<event>
 6    1  0.1715574E-005  0.2879244E+03  0.7818608E-02  0.1092050E+00
          2   -1    0    0  502    0  0.00000000000E+00  0.00000000000E+00  0.10104044712E+04  0.10104044712E+04  0.00000000000E+00 0.  1.
          1   -1    0    0  501    0 -0.00000000000E+00 -0.00000000000E+00 -0.83793139899E+02  0.83793139899E+02  0.00000000000E+00 0.  1.
          2    1    1    2  501    0  0.46639432140E+02 -0.13139379459E+03  0.12012522911E+03  0.18403705213E+03  0.00000000000E+00 0.  1.
          1    1    1    2  502    0 -0.13410252786E+03  0.21072983125E+03  0.47032505014E+03  0.53253751281E+03  0.00000000000E+00 0.  1.
         22    1    1    2    0    0  0.11748821747E+03 -0.72354738460E+02  0.24234489951E+03  0.27887226421E+03  0.00000000000E+00 0.  1.
         22    1    1    2    0    0 -0.30025121756E+02 -0.69812981993E+01  0.93816152561E+02  0.98750781983E+02  0.00000000000E+00 0.  1.
</event>
<event>
 6    1  0.1715574E-005  0.7167670E+02  0.7818608E-02  0.1370807E+00
          2   -1    0    0  502    0  0.00000000000E+00  0.00000000000E+00  0.11295244154E+03  0.11295244154E+03  0.00000000000E+00 0. -1.
          1   -1    0    0  501    0 -0.00000000000E+00 -0.00000000000E+00 -0.13039768889E+03  0.13039768889E+03  0.00000000000E+00 0. -1.
          2    1    1    2  501    0 -0.75126254829E+01  0.37179813747E+02  0.52497341752E+02  0.64766881837E+02  0.00000000000E+00 0. -1.
          1    1    1    2  502    0  0.26835994444E+02 -0.12242163563E+02 -0.32872785561E+02  0.44166290279E+02  0.00000000000E+00 0. -1.
         22    1    1    2    0    0 -0.13780199723E+02 -0.37804825729E+02 -0.79842167535E+02  0.89408447417E+02  0.00000000000E+00 0. -1.
         22    1    1    2    0    0 -0.55431692374E+01  0.12867175545E+02  0.42772363994E+02  0.45008510899E+02  0.00000000000E+00 0. -1.
</event>
<event>
 6    1  0.1715574E-005  0.1201219E+03  0.7818608E-02  0.1244541E+00
          2   -1    0    0  502    0  0.00000000000E+00  0.00000000000E+00  0.20576946599E+02  0.20576946599E+02  0.00000000000E+00 0.  1.
          1   -1    0    0  501    0 -0.00000000000E+00 -0.00000000000E+00 -0.80165535701E+03  0.80165535701E+03  0.00000000000E+00 0.  1.
          2    1    1    2  501    0  0.62181800910E+02 -0.56106787347E+02 -0.19575232396E+03  0.21291669800E+03  0.00000000000E+00 0.  1.
          1    1    1    2  502    0 -0.31864278414E+02  0.26139329864E+02 -0.15006669954E+03  0.15562329876E+03  0.00000000000E+00 0.  1.
         22    1    1    2    0    0 -0.61521319887E+02  0.39262605733E+02 -0.39609105763E+03  0.40275867581E+03  0.00000000000E+00 0.  1.
         22    1    1    2    0    0  0.31203797391E+02 -0.92951482493E+01 -0.39168329288E+02  0.50933631049E+02  0.00000000000E+00 0.  1.
</event>
<event>
 6    1  0.1715574E-005  0.9992369E+02  0.7818608E-02  0.1298132E+00
          2   -1    0    0  502    0  0.00000000000E+00  0.00000000000E+00  0.26091845114E+03  0.26091845114E+03  0.00000000000E+00 0. -1.
          1   -1    0    0  501    0 -0.00000000000E+00 -0.00000000000E+00 -0.27126301665E+03  0.27126301665E+03  0.00000000000E+00 0.  1.
          2    1    1    2  501    0  0.13464425660E+02  0.56140154513E+02  0.19196264900E+03  0.20045614563E+03  0.00000000000E+00 0. -1.
          1    1    1    2  502    0 -0.25147728163E+02 -0.21535107475E+02 -0.20148918963E+03  0.20419124032E+03  0.00000000000E+00 0.  1.
         22    1    1    2    0    0  0.25393208023E+01 -0.45016504739E+02 -0.55280595750E+02  0.71336373019E+02  0.00000000000E+00 0. -1.
         22    1    1    2    0    0  0.91439817005E+01  0.10411457701E+02  0.54462570861E+02  0.56197708829E+02  0.00000000000E+00 0.  1.
</event>
<event>
 6    1  0.1715574E-005  0.3729312E+02  0.7818608E-02  0.1605198E+00
          2   -1    0    0  502    0  0.00000000000E+00  0.00000000000E+00  0.49686436145E+02  0.49686436145E+02  0.00000000000E+00 0. -1.
          1   -1    0    0  501    0 -0.00000000000E+00 -0.00000000000E+00 -0.24041566110E+03  0.24041566110E+03  0.00000000000E+00 0.  1.
          2    1    1    2  501    0  0.20504947609E+02 -0.17648234573E+01  0.11598414707E+01  0.20613410939E+02  0.00000000000E+00 0. -1.
          1    1    1    2  502    0 -0.20847318868E+02 -0.62573722684E+01 -0.12855329136E+03  0.13038295184E+03  0.00000000000E+00 0.  1.
         22    1    1    2    0    0  0.14165085728E+02 -0.22276962678E+01  0.35759543850E+02  0.38527357303E+02  0.00000000000E+00 0. -1.
         22    1    1    2    0    0 -0.13822714469E+02  0.10249891993E+02 -0.99095318915E+02  0.10057837716E+03  0.00000000000E+00 0.  1.
</event>
<event>
 6    1  0.1715574E-005  0.1147739E+03  0.7818608E-02  0.1252549E+00
          2   -1    0    0  502    0  0.00000000000E+00  0.00000000000E+00  0.82890016944E+02  0.82890016944E+02  0.00000000000E+00 0.  1.
          1   -1    0    0  501    0 -0.00000000000E+00 -0.00000000000E+00 -0.41898157065E+03  0.41898157065E+03  0.00000000000E+00 0. -1.
          2    1    1    2  501    0 -0.63695584922E+02 -0.14616128715E+01  0.43985253910E+01  0.63864002978E+02  0.00000000000E+00 0.  1.
          1    1    1    2  502    0  0.95051194358E+02  0.71976032509E+01 -0.28671684707E+03  0.30214745644E+03  0.00000000000E+00 0. -1.
         22    1    1    2    0    0 -0.46899778396E+02 -0.12038161786E+02  0.25574379859E+02  0.54759067358E+02  0.00000000000E+00 0.  1.
         22    1    1    2    0    0  0.15544168961E+02  0.63021714066E+01 -0.79347611888E+02  0.81101060816E+02  0.00000000000E+00 0.  1.
</event>
<event>
 6    1  0.1715574E-005  0.2372763E+03  0.7818608E-02  0.1122312E+00
          2   -1    0    0  502    0  0.00000000000E+00  0.00000000000E+00  0.73201359448E+03  0.73201359448E+03  0.00000000000E+00 0. -1.
          1   -1    0    0  501    0 -0.00000000000E+00 -0.00000000000E+00 -0.14228189064E+03  0.14228189064E+03  0.00000000000E+00 0. -1.
          2    1    1    2  501    0  0.20427793333E+03 -0.25419975486E+02  0.51474508079E+03  0.55438086853E+03  0.00000000000E+00 0. -1.
          1    1    1    2  502    0 -0.17469718966E+03  0.87520820564E+00  0.23204500214E+02  0.17623371668E+03  0.00000000000E+00 0. -1.
         22    1    1    2    0    0 -0.53772344211E+02  0.12183512241E+02 -0.26242506018E+02  0.61062034805E+02  0.00000000000E+00 0. -1.
         22    1    1    2    0    0  0.24191600547E+02  0.12361255039E+02  0.78024628852E+02  0.82618865101E+02  0.00000000000E+00 0.  1.
</event>
<event>
 6    1  0.1715574E-005  0.7395978E+02  0.7818608E-02  0.1363392E+00
          2   -1    0    0  502    0  0.00000000000E+00  0.00000000000E+00  0.35448527059E+02  0.35448527059E+02  0.00000000000E+00 0.  1.
          1   -1    0    0  501    0 -0.00000000000E+00 -0.00000000000E+00 -0.42202258635E+03  0.42202258635E+03  0.00000000000E+00 0. -1.
          2    1    1    2  501    0  0.13205706346E+02 -0.16090627058E+02 -0.10014725266E+02  0.23099646780E+02  0.00000000000E+00 0.  1.
          1    1    1    2  502    0 -0.21843724240E+02  0.35996529035E+02 -0.25340368526E+03  0.25687803739E+03  0.00000000000E+00 0. -1.
         22    1    1    2    0    0 -0.19732103326E+02 -0.24088410620E+02 -0.14054704236E+03  0.14395512684E+03  0.00000000000E+00 0. -1.
         22    1    1    2    0    0  0.28370121220E+02  0.41825086425E+01  0.17391393592E+02  0.33538302397E+02  0.00000000000E+00 0.  1.
</event>
<event>
 6    1  0.1715574E-005  0.1038318E+03  0.7818608E-02  0.1273716E+00
          2   -1    0    0  502    0  0.00000000000E+00  0.00000000000E+00  0.12760819091E+03  0.12760819091E+03  0.00000000000E+00 0. -1.
          1   -1    0    0  501    0 -0.00000000000E+00 -0.00000000000E+00 -0.32137935428E+03  0.32137935428E+03  0.00000000000E+00 0.  1.
          2    1    1    2  501    0  0.84248364847E+02 -0.71582845629E+01  0.64809019032E+02  0.10653279760E+03  0.00000000000E+00 0. -1.
          1    1    1    2  502    0 -0.62100636404E+02  0.12782361424E+02 -0.18405929155E+03  0.19467331766E+03  0.00000000000E+00 0.  1.
         22    1    1    2    0    0  0.13255104075E+02  0.78895219144E+01  0.31564012162E+02  0.35131598367E+02  0.00000000000E+00 0.  1.
         22    1    1    2    0    0 -0.35402832519E+02 -0.13513598775E+02 -0.10608490301E+03  0.11264983156E+03  0.00000000000E+00 0.  1.
</event>
<event>
 6    1  0.1715574E-005  0.1274201E+03  0.7818608E-02  0.1247896E+00
          2   -1    0    0  502    0  0.00000000000E+00  0.00000000000E+00  0.11048356473E+03  0.11048356473E+03  0.00000000000E+00 0. -1.
          1   -1    0    0  501    0 -0.00000000000E+00 -0.00000000000E+00 -0.19372196976E+03  0.19372196976E+03  0.00000000000E+00 0. -1.
          2    1    1    2  501    0 -0.32343615253E+02 -0.37952364193E+01 -0.21749806197E+02  0.39160788254E+02  0.00000000000E+00 0. -1.
          1    1    1    2  502    0  0.57173183040E+02  0.36647114257E+02 -0.10993547874E+03  0.12921916781E+03  0.00000000000E+00 0. -1.
         22    1    1    2    0    0 -0.34419702844E+02 -0.53427099623E+02  0.76682649257E+02  0.99596182734E+02  0.00000000000E+00 0. -1.
         22    1    1    2    0    0  0.95901350567E+01  0.20575221786E+02 -0.28235769348E+02  0.36229395698E+02  0.00000000000E+00 0.  1.
</event>
<event>
 6    1  0.1715574E-005  0.8132172E+02  0.7818608E-02  0.1326015E+00
          2   -1    0    0  502    0  0.00000000000E+00  0.00000000000E+00  0.22234076473E+03  0.22234076473E+03  0.00000000000E+00 0. -1.
          1   -1    0    0  501    0 -0.00000000000E+00 -0.00000000000E+00 -0.24602404303E+03  0.24602404303E+03  0.00000000000E+00 0.  1.
          2    1    1    2  501    0 -0.15588918386E+02 -0.63432244748E+02  0.14844094684E+03  0.16217699821E+03  0.00000000000E+00 0. -1.
          1    1    1    2  502    0  0.21900979982E+02  0.53988904699E+02 -0.16764416874E+03  0.17747963846E+03  0.00000000000E+00 0.  1.
         22    1    1    2    0    0 -0.54363776885E+00  0.22089200657E+02 -0.63937423807E+02  0.67647782600E+02  0.00000000000E+00 0.  1.
         22    1    1    2    0    0 -0.57684238268E+01 -0.12645860608E+02  0.59457367405E+02  0.61060388491E+02  0.00000000000E+00 0. -1.
</event>
<event>
 6    1  0.1715574E-005  0.2136305E+03  0.7818608E-02  0.1178225E+00
          2   -1    0    0  502    0  0.00000000000E+00  0.00000000000E+00  0.32231036439E+03  0.32231036439E+03  0.00000000000E+00 0. -1.
          1   -1    0    0  501    0 -0.00000000000E+00 -0.00000000000E+00 -0.72469351875E+03  0.72469351875E+03  0.00000000000E+00 0.  1.
          2    1    1    2  501    0  0.52355687584E+02 -0.41888678421E+02  0.23980295248E+03  0.24900047273E+03  0.00000000000E+00 0. -1.
          1    1    1    2  502    0 -0.15948297788E+02  0.27813349727E+02 -0.66660046377E+03  0.66737104292E+03  0.00000000000E+00 0.  1.
         22    1    1    2    0    0 -0.54024927655E+02  0.17078500769E+02 -0.36334341242E+02  0.67309377877E+02  0.00000000000E+00 0.  1.
         22    1    1    2    0    0  0.17617537858E+02 -0.30031720754E+01  0.60748698171E+02  0.63322989603E+02  0.00000000000E+00 0.  1.
</event>
<event>
 6    1  0.1715574E-005  0.1104434E+03  0.7818608E-02  0.1265683E+00
          2   -1    0    0  502    0  0.00000000000E+00  0.00000000000E+00  0.45973744075E+03  0.45973744075E+03  0.00000000000E+00 0. -1.
          1   -1    0    0  501    0 -0.00000000000E+00 -0.00000000000E+00 -0.58288098411E+02  0.58288098411E+02  0.00000000000E+00 0. -1.
          2    1    1    2  501    0  0.43944783149E+02  0.98128802152E+01  0.27540991751E+03  0.27906640652E+03  0.00000000000E+00 0. -1.
          1    1    1    2  502    0 -0.66274030085E+02  0.98505739243E+01  0.84793196542E+01  0.67536506662E+02  0.00000000000E+00 0. -1.
         22    1    1    2    0    0 -0.28471922761E+02  0.98659159790E+00 -0.11863709944E+02  0.30860514615E+02  0.00000000000E+00 0. -1.
         22    1    1    2    0    0  0.50801169696E+02 -0.20650045737E+02  0.12942381512E+03  0.14056211136E+03  0.00000000000E+00 0. -1.
</event>
<event>
 6    1  0.1715574E-005  0.1005383E+03  0.7818608E-02  0.1299996E+00
          2   -1    0    0  502    0  0.00000000000E+00  0.00000000000E+00  0.70704232602E+03  0.70704232602E+03  0.00000000000E+00 0.  1.
          1   -1    0    0  501    0 -0.00000000000E+00 -0.00000000000E+00 -0.96451817651E+02  0.96451817651E+02  0.00000000000E+00 0.  1.
          2    1    1    2  501    0 -0.68590796836E+02  0.67807249052E+02 -0.15442850947E+02  0.97678053215E+02  0.00000000000E+00 0.  1.
          1    1    1    2  502    0  0.29510083668E+02 -0.81989013289E+02  0.54052204984E+03  0.54750080338E+03  0.00000000000E+00 0.  1.
         22    1    1    2    0    0 -0.15845131565E+02  0.54346307075E+02  0.11476208415E+02  0.57760649638E+02  0.00000000000E+00 0.  1.
         22    1    1    2    0    0  0.54925844733E+02 -0.40164542838E+02  0.74035101055E+02  0.10055463743E+03  0.00000000000E+00 0.  1.
</event>
<event>
 6    1  0.1715574E-005  0.7665545E+02  0.7818608E-02  0.1346606E+00
          2   -1    0    0  502    0  0.00000000000E+00  0.00000000000E+00  0.38115382662E+03  0.38115382662E+03  0.00000000000E+00 0. -1.
          1   -1    0    0  501    0 -0.00000000000E+00 -0.00000000000E+00 -0.15508859967E+03  0.15508859967E+03  0.00000000000E+00 0.  1.
          2    1    1    2  501    0 -0.78471049511E+02  0.55675131253E+02  0.14852946448E+03  0.17697013214E+03  0.00000000000E+00 0. -1.
          1    1    1    2  502    0  0.10857595397E+03  0.14097037038E+02 -0.87232605406E+02  0.13998925559E+03  0.00000000000E+00 0.  1.
         22    1    1    2    0    0 -0.40938679897E+02 -0.20321581082E+02  0.16228555467E+03  0.16859876460E+03  0.00000000000E+00 0. -1.
         22    1    1    2    0    0  0.10833775438E+02 -0.49450587209E+02  0.24828132063E+01  0.50684273961E+02  0.00000000000E+00 0. -1.
</event>
<event>
 6    1  0.1715574E-005  0.1091786E+03  0.7818608E-02  0.1287654E+00
          2   -1    0    0  502    0  0.00000000000E+00  0.00000000000E+00  0.11976936882E+03  0.11976936882E+03  0.00000000000E+00 0. -1.
          1   -1    0    0  501    0 -0.00000000000E+00 -0.00000000000E+00 -0.13005024277E+03  0.13005024277E+03  0.00000000000E+00 0. -1.
          2    1    1    2  501    0  0.15208763304E+02 -0.55473312783E+02 -0.14450866679E+02  0.59307861706E+02  0.00000000000E+00 0. -1.
          1    1    1    2  502    0 -0.18027772542E+02  0.26676416588E+02  0.48761670165E+02  0.58432287839E+02  0.00000000000E+00 0. -1.
         22    1    1    2    0    0  0.29103598006E+02  0.75052162330E+01 -0.78577172347E+02  0.84129184601E+02  0.00000000000E+00 0. -1.
         22    1    1    2    0    0 -0.26284588768E+02  0.21291679963E+02  0.33985494911E+02  0.47950277442E+02  0.00000000000E+00 0. -1.
</event>
<event>
 6    1  0.1715574E-005  0.6842321E+02  0.7818608E-02  0.1379875E+00
          2   -1    0    0  502    0  0.00000000000E+00  0.00000000000E+00  0.53246173242E+03  0.53246173242E+03  0.00000000000E+00 0.  1.
          1   -1    0    0  501    0 -0.00000000000E+00 -0.00000000000E+00 -0.29758003571E+02  0.29758003571E+02  0.00000000000E+00 0. -1.
          2    1    1    2  501    0 -0.59838608471E+02  0.60800464093E+01  0.16929518544E+03  0.17966214359E+03  0.00000000000E+00 0.  1.
          1    1    1    2  502    0  0.35200940403E+02  0.24864371894E+02  0.37584158135E+02  0.57183145573E+02  0.00000000000E+00 0. -1.
         22    1    1    2    0    0  0.16845309252E+02  0.22508207990E+02  0.37686205048E+01  0.28365231733E+02  0.00000000000E+00 0. -1.
         22    1    1    2    0    0  0.77923588160E+01 -0.53452626294E+02  0.29205576477E+03  0.29700921509E+03  0.00000000000E+00 0.  1.
</event>
<event>
 6    1  0.1715574E-005  0.1989299E+03  0.7818608E-02  0.1151103E+00
          2   -1    0    0  502    0  0.00000000000E+00  0.00000000000E+00  0.75841910818E+03  0.75841910818E+03  0.00000000000E+00 0.  1.
          1   -1    0    0  501    0 -0.00000000000E+00 -0.00000000000E+00 -0.93196144877E+02  0.93196144877E+02  0.00000000000E+00 0.  1.
          2    1    1    2  501    0  0.86446853567E+01  0.72136756124E+02  0.20770840665E+03  0.22004823190E+03  0.00000000000E+00 0.  1.
          1    1    1    2  502    0 -0.81063919079E+02 -0.15929906039E+03  0.42755732471E+02  0.18378139807E+03  0.00000000000E+00 0.  1.
         22    1    1    2    0    0  0.64389292536E+02  0.10562828950E+03  0.40831517588E+03  0.42664341011E+03  0.00000000000E+00 0.  1.
         22    1    1    2    0    0  0.80299411865E+01 -0.18465985231E+02  0.64436483003E+01  0.21142212973E+02  0.00000000000E+00 0.  1.
</event>
<event>
 6    1  0.1715574E-005  0.7390159E+02  0.7818608E-02  0.1348144E+00
          2   -1    0    0  502    0  0.00000000000E+00  0.00000000000E+00  0.21097373003E+03  0.21097373003E+03  0.00000000000E+00 0.  1.
          1   -1    0    0  501    0 -0.00000000000E+00 -0.00000000000E+00 -0.72360412057E+02  0.72360412057E+02  0.00000000000E+00 0.  1.
          2    1    1    2  501    0 -0.21620992221E+02 -0.82492340396E+01  0.44468743888E+02  0.50129695289E+02  0.00000000000E+00 0.  1.
          1    1    1    2  502    0  0.44300166385E+02  0.30064555727E+02 -0.24112572921E+02  0.58717956586E+02  0.00000000000E+00 0.  1.
         22    1    1    2    0    0  0.17753480823E+02  0.52962465212E+01 -0.20385026521E+02  0.27546063508E+02  0.00000000000E+00 0.  1.
         22    1    1    2    0    0 -0.40432654986E+02 -0.27111568208E+02  0.13864217353E+03  0.14694042671E+03  0.00000000000E+00 0.  1.
</event>
<event>
 6    1  0.1715574E-005  0.6032997E+02  0.7818608E-02  0.1409300E+00
          2   -1    0    0  502    0  0.00000000000E+00  0.00000000000E+00  0.60589414884E+02  0.60589414884E+02  0.00000000000E+00 0.  1.
          1   -1    0    0  501    0 -0.00000000000E+00 -0.00000000000E+00 -0.42784140597E+03  0.42784140597E+03  0.00000000000E+00 0.  1.
          2    1    1    2  501    0  0.70417330509E+01  0.27109425588E+02  0.27231975776E+02  0.39065169458E+02  0.00000000000E+00 0.  1.
          1    1    1    2  502    0  0.45400397123E+02 -0.50058895243E+02 -0.20042461795E+03  0.21151150449E+03  0.00000000000E+00 0.  1.
         22    1    1    2    0    0  0.99688398175E+01  0.17970141875E+02  0.11098489706E+02  0.23355518407E+02  0.00000000000E+00 0.  1.
         22    1    1    2    0    0 -0.62410969992E+02  0.49793277792E+01 -0.20515783862E+03  0.21449862850E+03  0.00000000000E+00 0.  1.
</event>
<event>
 6    1  0.1715574E-005  0.1329403E+03  0.7818608E-02  0.1234255E+00
          2   -1    0    0  502    0  0.00000000000E+00  0.00000000000E+00  0.36844275191E+03  0.36844275191E+03  0.00000000000E+00 0. -1.
          1   -1    0    0  501    0 -0.00000000000E+00 -0.00000000000E+00 -0.10812419232E+03  0.10812419232E+03  0.00000000000E+00 0. -1.
          2    1    1    2  501    0  0.26368823533E+02  0.30320290011E+02  0.29991052468E+02  0.50140782493E+02  0.00000000000E+00 0. -1.
          1    1    1    2  502    0 -0.67287752769E+02 -0.54267610216E+02 -0.60849760142E+02  0.10571333171E+03  0.00000000000E+00 0. -1.
         22    1    1    2    0    0  0.57221140177E+02  0.16126971097E+02  0.29607147620E+03  0.30198121978E+03  0.00000000000E+00 0. -1.
         22    1    1    2    0    0 -0.16302210940E+02  0.78203491084E+01 -0.48942089348E+01  0.18731610257E+02  0.00000000000E+00 0.  1.
</event>
<event>
 6    1  0.1715574E-005  0.7049670E+02  0.7818608E-02  0.1361758E+00
          2   -1    0    0  502    0  0.00000000000E+00  0.00000000000E+00  0.11148333388E+03  0.11148333388E+03  0.00000000000E+00 0. -1.
          1   -1    0    0  501    0 -0.00000000000E+00 -0.00000000000E+00 -0.72762234883E+02  0.72762234883E+02  0.00000000000E+00 0. -1.
          2    1    1    2  501    0 -0.28860554839E+02 -0.48086464834E+01  0.12426865896E+02  0.31788074849E+02  0.00000000000E+00 0. -1.
          1    1    1    2  502    0  0.23315139046E+02 -0.48249776809E+01 -0.21761561541E+01  0.23908403835E+02  0.00000000000E+00 0. -1.
         22    1    1    2    0    0 -0.32139725353E+02  0.39953657085E+01  0.66964284928E+02  0.74385081493E+02  0.00000000000E+00 0. -1.
         22    1    1    2    0    0  0.37685141146E+02  0.56382584557E+01 -0.38493895674E+02  0.54164008583E+02  0.00000000000E+00 0. -1.
</event>
<event>
 6    1  0.1715574E-005  0.6757627E+02  0.7818608E-02  0.1464103E+00
          2   -1    0    0  502    0  0.00000000000E+00  0.00000000000E+00  0.25466288583E+03  0.25466288583E+03  0.00000000000E+00 0.  1.
          1   -1    0    0  501    0 -0.00000000000E+00 -0.00000000000E+00 -0.18929331992E+03  0.18929331992E+03  0.00000000000E+00 0.  1.
          2    1    1    2  501    0  0.37438864251E+02 -0.27901675993E+02  0.13748589831E+03  0.14519829308E+03  0.00000000000E+00 0.  1.
          1    1    1    2  502    0 -0.51812750140E+02  0.25779742116E+02 -0.14499121422E+03  0.15611408771E+03  0.00000000000E+00 0.  1.
         22    1    1    2    0    0  0.12731955415E+02 -0.13180174459E+02  0.10523067762E+03  0.10681439603E+03  0.00000000000E+00 0.  1.
         22    1    1    2    0    0  0.16419304743E+01  0.15302108336E+02 -0.32355795807E+02  0.35829428931E+02  0.00000000000E+00 0. -1.
</event>
<event>
 6    1  0.1715574E-005  0.1135035E+03  0.7818608E-02  0.1333624E+00
          2   -1    0    0  502    0  0.00000000000E+00  0.00000000000E+00  0.40794115688E+03  0.40794115688E+03  0.00000000000E+00 0. -1.
          1   -1    0    0  501    0 -0.00000000000E+00 -0.00000000000E+00 -0.91609610512E+02  0.91609610512E+02  0.00000000000E+00 0. -1.
          2    1    1    2  501    0 -0.14191613503E+02  0.36647833081E+02  0.15491402984E+03  0.15982121951E+03  0.00000000000E+00 0. -1.
          1    1    1    2  502    0  0.35016984272E+02 -0.10020369100E+03 -0.20906444604E+02  0.10818524993E+03  0.00000000000E+00 0. -1.
         22    1    1    2    0    0  0.25005970822E+02  0.65536103852E+01 -0.84766162529E+01  0.27204804887E+02  0.00000000000E+00 0.  1.
         22    1    1    2    0    0 -0.45831341591E+02  0.57002247532E+02  0.19080057738E+03  0.20433949306E+03  0.00000000000E+00 0.  1.
</event>
<event>
 6    1  0.1715574E-005  0.4551178E+02  0.7818608E-02  0.1560437E+00
          2   -1    0    0  502    0  0.00000000000E+00  0.00000000000E+00  0.13484706846E+03  0.13484706846E+03  0.00000000000E+00 0. -1.
          1   -1    0    0  501    0 -0.00000000000E+00 -0.00000000000E+00 -0.98133448040E+02  0.98133448040E+02  0.00000000000E+00 0. -1.
          2    1    1    2  501    0 -0.11958885876E+02  0.32086282449E+02  0.66429205338E+02  0.74735425299E+02  0.00000000000E+00 0. -1.
          1    1    1    2  502    0  0.12552040050E+02 -0.31029862862E+02  0.11185352509E+01  0.33491151365E+02  0.00000000000E+00 0. -1.
         22    1    1    2    0    0  0.54538914036E+01 -0.12551826826E+02 -0.76275050946E+02  0.77493075077E+02  0.00000000000E+00 0. -1.
         22    1    1    2    0    0 -0.60470455777E+01  0.11495407239E+02  0.45440930776E+02  0.47260864758E+02  0.00000000000E+00 0. -1.
</event>
<event>
 6    1  0.1715574E-005  0.6090545E+02  0.7818608E-02  0.1420653E+00
          2   -1    0    0  502    0  0.00000000000E+00  0.00000000000E+00  0.12167356564E+03  0.12167356564E+03  0.00000000000E+00 0.  1.
          1   -1    0    0  501    0 -0.00000000000E+00 -0.00000000000E+00 -0.16177802690E+03  0.16177802690E+03  0.00000000000E+00 0.  1.
          2    1    1    2  501    0 -0.22974825468E+02 -0.12791556090E+02  0.50669605629E+02  0.57086561003E+02  0.00000000000E+00 0.  1.
          1    1    1    2  502    0  0.14370880150E+01  0.28372940203E+02 -0.90897525158E+02  0.95233654963E+02  0.00000000000E+00 0.  1.
         22    1    1    2    0    0 -0.10268297625E+02 -0.20661679896E+01 -0.60472859268E+02  0.61373232719E+02  0.00000000000E+00 0.  1.
         22    1    1    2    0    0  0.31806035079E+02 -0.13515216123E+02  0.60596317542E+02  0.69758143854E+02  0.00000000000E+00 0.  1.
</event>
<event>
 6    1  0.1715574E-005  0.1752892E+03  0.7818608E-02  0.1180710E+00
          2   -1    0    0  502    0  0.00000000000E+00  0.00000000000E+00  0.34707956058E+02  0.34707956058E+02  0.00000000000E+00 0. -1.
          1   -1    0    0  501    0 -0.00000000000E+00 -0.00000000000E+00 -0.74119838668E+03  0.74119838668E+03  0.00000000000E+00 0. -1.
          2    1    1    2  501    0  0.10788548760E+03 -0.31265922153E+02 -0.24475980773E+03  0.26930317451E+03  0.00000000000E+00 0. -1.
          1    1    1    2  502    0 -0.23158592911E+02 -0.11872181276E+02 -0.10861020362E+02  0.28199838248E+02  0.00000000000E+00 0. -1.
         22    1    1    2    0    0  0.24815862797E+02 -0.21341629327E+02 -0.85176788715E+02  0.91248986430E+02  0.00000000000E+00 0.  1.
         22    1    1    2    0    0 -0.10954275748E+03  0.64479732756E+02 -0.36569281382E+03  0.38715434355E+03  0.00000000000E+00 0. -1.
</event>
<event>
 6    1  0.1715574E-005  0.7845915E+02  0.7818608E-02  0.1334080E+00
          2   -1    0    0  502    0  0.00000000000E+00  0.00000000000E+00  0.25931702832E+03  0.25931702832E+03  0.00000000000E+00 0.  1.
          1   -1    0    0  501    0 -0.00000000000E+00 -0.00000000000E+00 -0.27246233735E+03  0.27246233735E+03  0.00000000000E+00 0. -1.
          2    1    1    2  501    0 -0.59108725411E+02 -0.34096276764E+01  0.16264821187E+03  0.17308930587E+03  0.00000000000E+00 0.  1.
          1    1    1    2  502    0  0.60873128295E+02  0.65965341508E+01 -0.21810471055E+03  0.22653634758E+03  0.00000000000E+00 0. -1.
         22    1    1    2    0    0 -0.16967060159E+02  0.16122906473E+01  0.84944370472E+02  0.86637328481E+02  0.00000000000E+00 0. -1.
         22    1    1    2    0    0  0.15202657275E+02 -0.47991971217E+01 -0.42633180822E+02  0.45516383734E+02  0.00000000000E+00 0. -1.
</event>
<event>
 6    1  0.1715574E-005  0.4363782E+02  0.7818608E-02  0.1566420E+00
          2   -1    0    0  502    0  0.00000000000E+00  0.00000000000E+00  0.12014204014E+03  0.12014204014E+03  0.00000000000E+00 0.  1.
          1   -1    0    0  501    0 -0.00000000000E+00 -0.00000000000E+00 -0.16094721987E+03  0.16094721987E+03  0.00000000000E+00 0. -1.
          2    1    1    2  501    0 -0.47566275571E+02  0.79537365776E+01  0.49651410606E+02  0.69217592217E+02  0.00000000000E+00 0.  1.
          1    1    1    2  502    0  0.27842254526E+02  0.15700033793E+00 -0.84020645312E+02  0.88513753874E+02  0.00000000000E+00 0. -1.
         22    1    1    2    0    0  0.14209806343E+02  0.51876300903E+01 -0.63102967629E+02  0.64890789992E+02  0.00000000000E+00 0. -1.
         22    1    1    2    0    0  0.55142147024E+01 -0.13298367006E+02  0.56667022610E+02  0.58467123927E+02  0.00000000000E+00 0.  1.
</event>
<event>
 6    1  0.1715574E-005  0.1025832E+03  0.7818608E-02  0.1293629E+00
          2   -1    0    0  502    0  0.00000000000E+00  0.00000000000E+00  0.12661844365E+03  0.12661844365E+03  0.00000000000E+00 0.  1.
          1   -1    0    0  501    0 -0.00000000000E+00 -0.00000000000E+00 -0.23363211894E+03  0.23363211894E+03  0.00000000000E+00 0.  1.
          2    1    1    2  501    0  0.30748950347E+02  0.53840523192E+01  0.26815523394E+02  0.41152864563E+02  0.00000000000E+00 0.  1.
          1    1    1    2  502    0 -0.24452404662E+02  0.49592213365E+02 -0.16853809743E+03  0.17737643024E+03  0.00000000000E+00 0.  1.
         22    1    1    2    0    0 -0.39940814697E+01 -0.71124918631E+02  0.71836030751E+02  0.10116878002E+03  0.00000000000E+00 0.  1.
         22    1    1    2    0    0 -0.23024642156E+01  0.16148652947E+02 -0.37127131996E+02  0.40552487762E+02  0.00000000000E+00 0.  1.
</event>
<event>
 6    1  0.1715574E-005  0.1576014E+03  0.7818608E-02  0.1219486E+00
          2   -1    0    0  502    0  0.00000000000E+00  0.00000000000E+00  0.56074406093E+03  0.56074406093E+03  0.00000000000E+00 0. -1.
          1   -1    0    0  501    0 -0.00000000000E+00 -0.00000000000E+00 -0.33252927337E+03  0.33252927337E+03  0.00000000000E+00 0. -1.
          2    1    1    2  501    0 -0.82016239201E+02  0.12034431618E+03  0.49594567306E+03  0.51688637877E+03  0.00000000000E+00 0. -1.
          1    1    1    2  502    0  0.98393033222E+02 -0.43162435935E+02 -0.15048617174E+03  0.18490611874E+03  0.00000000000E+00 0. -1.
         22    1    1    2    0    0 -0.58658795140E+01 -0.85967838223E+02 -0.14030851343E+03  0.16465526621E+03  0.00000000000E+00 0.  1.
         22    1    1    2    0    0 -0.10510914507E+02  0.87859579800E+01  0.23063799672E+02  0.26825570576E+02  0.00000000000E+00 0. -1.
</event>
<event>
 6    1  0.1715574E-005  0.3939726E+02  0.7818608E-02  0.1559487E+00
          2   -1    0    0  502    0  0.00000000000E+00  0.00000000000E+00  0.40717503420E+03  0.40717503420E+03  0.00000000000E+00 0.  1.
          1   -1    0    0  501    0 -0.00000000000E+00 -0.00000000000E+00 -0.12608740844E+03  0.12608740844E+03  0.00000000000E+00 0.  1.
          2    1    1    2  501    0 -0.73770952311E+00  0.41441875191E+02  0.34141496703E+03  0.34392172503E+03  0.00000000000E+00 0.  1.
          1    1    1    2  502    0  0.29495198173E+02 -0.24392493156E+02 -0.39722213739E+02  0.55161714095E+02  0.00000000000E+00 0.  1.
         22    1    1    2    0    0  0.18090264887E+02 -0.11344953820E+02  0.47062114361E+02  0.51679863284E+02  0.00000000000E+00 0. -1.
         22    1    1    2    0    0 -0.46847753537E+02 -0.57044282153E+01 -0.67667241890E+02  0.82499140224E+02  0.00000000000E+00 0.  1.
</event>
<event>
 6    1  0.1715574E-005  0.7457920E+02  0.7818608E-02  0.1352693E+00
          2   -1    0    0  502    0  0.00000000000E+00  0.00000000000E+00  0.12096537024E+03  0.12096537024E+03  0.00000000000E+00 0.  1.
          1   -1    0    0  501    0 -0.00000000000E+00 -0.00000000000E+00 -0.61420729939E+03  0.61420729939E+03  0.00000000000E+00 0.  1.
          2    1    1    2  501    0 -0.18529901636E+02 -0.80590698608E+01  0.11178514028E+02  0.23092532073E+02  0.00000000000E+00 0.  1.
          1    1    1    2  502    0  0.21616891773E+02 -0.16801614870E+02 -0.56949696195E+03  0.57015469299E+03  0.00000000000E+00 0.  1.
         22    1    1    2    0    0 -0.14098918203E+02 -0.89094405911E+01 -0.33348887754E+02  0.37286806521E+02  0.00000000000E+00 0.  1.
         22    1    1    2    0    0  0.11011928066E+02  0.33770125322E+02  0.98425406516E+02  0.10463863804E+03  0.00000000000E+00 0.  1.
</event>
<event>
 6    1  0.1715574E-005  0.1172557E+03  0.7818608E-02  0.1248608E+00
          2   -1    0    0  502    0  0.00000000000E+00  0.00000000000E+00  0.13099074749E+03  0.13099074749E+03  0.00000000000E+00 0. -1.
          1   -1    0    0  501    0 -0.00000000000E+00 -0.00000000000E+00 -0.17719732677E+03  0.17719732677E+03  0.00000000000E+00 0.  1.
          2    1    1    2  501    0 -0.64836263071E+02 -0.62776943356E+02  0.55783468886E+02  0.10609656463E+03  0.00000000000E+00 0. -1.
          1    1    1    2  502    0  0.30587555922E+02  0.16646573934E+02 -0.18000853433E+02  0.39201246476E+02  0.00000000000E+00 0.  1.
         22    1    1    2    0    0  0.58100280215E+02  0.51894859479E+02 -0.10489177219E+03  0.13065604799E+03  0.00000000000E+00 0.  1.
         22    1    1    2    0    0 -0.23851573065E+02 -0.57644900567E+01  0.20902577460E+02  0.32234215173E+02  0.00000000000E+00 0.  1.
</event>
<event>
 6    1  0.1715574E-005  0.1004569E+03  0.7818608E-02  0.1296946E+00
          2   -1    0    0  502    0  0.00000000000E+00  0.00000000000E+00  0.77311450517E+03  0.77311450517E+03  0.00000000000E+00 0.  1.
          1   -1    0    0  501    0 -0.00000000000E+00 -0.00000000000E+00 -0.32300534427E+02  0.32300534427E+02  0.00000000000E+00 0. -1.
          2    1    1    2  501    0 -0.37837633384E+02  0.98627174286E+01  0.37203243206E+03  0.37408166247E+03  0.00000000000E+00 0.  1.
          1    1    1    2  502    0  0.22020005910E+02 -0.48033953947E+02  0.18915289219E+02  0.56124233254E+02  0.00000000000E+00 0. -1.
         22    1    1    2    0    0  0.20235643988E+02  0.55280564628E+02  0.35246620461E+03  0.35734835595E+03  0.00000000000E+00 0.  1.
         22    1    1    2    0    0 -0.44180165148E+01 -0.17109328110E+02 -0.25999551396E+01  0.17860787917E+02  0.00000000000E+00 0. -1.
</event>
<event>
 6    1  0.1715574E-005  0.4703744E+02  0.7818608E-02  0.1465373E+00
          2   -1    0    0  502    0  0.00000000000E+00  0.00000000000E+00  0.73599914683E+02  0.73599914683E+02  0.00000000000E+00 0. -1.
          1   -1    0    0  501    0 -0.00000000000E+00 -0.00000000000E+00 -0.30740139245E+03  0.30740139245E+03  0.00000000000E+00 0.  1.
          2    1    1    2  501    0  0.21700089207E+02  0.49787407790E+01  0.20006092636E+02  0.29932014198E+02  0.00000000000E+00 0. -1.
          1    1    1    2  502    0 -0.26975903154E+02 -0.99121174510E+01 -0.21621791322E+03  0.21811954388E+03  0.00000000000E+00 0.  1.
         22    1    1    2    0    0  0.17923732027E+02  0.13820623430E+02  0.44228943063E+02  0.49683691552E+02  0.00000000000E+00 0. -1.
         22    1    1    2    0    0 -0.12647918080E+02 -0.88872467577E+01 -0.81818600249E+02  0.83266057510E+02  0.00000000000E+00 0. -1.
</event>
<event>
 6    1  0.1715574E-005  0.1294557E+03  0.7818608E-02  0.1257210E+00
          2   -1    0    0  502    0  0.00000000000E+00  0.00000000000E+00  0.46121013637E+03  0.46121013637E+03  0.00000000000E+00 0.  1.
          1   -1    0    0  501    0 -0.00000000000E+00 -0.00000000000E+00 -0.29175217672E+03  0.29175217672E+03  0.00000000000E+00 0.  1.
          2    1    1    2  501    0  0.30145195592E+02  0.40574225371E+01  0.34464767085E+03  0.34598730109E+03  0.00000000000E+00 0.  1.
          1    1    1    2  502    0 -0.24611062083E+02 -0.52708309318E+02 -0.24665720772E+03  0.25342385123E+03  0.00000000000E+00 0.  1.
         22    1    1    2    0    0  0.19394416929E+01 -0.12428670164E+02 -0.31320187783E+02  0.33751850896E+02  0.00000000000E+00 0. -1.
         22    1    1    2    0    0 -0.74735752017E+01  0.61079556945E+02  0.10278768431E+03  0.11979930988E+03  0.00000000000E+00 0.  1.
</event>
<event>
 6    1  0.1715574E-005  0.1533818E+03  0.7818608E-02  0.1205037E+00
          2   -1    0    0  502    0  0.00000000000E+00  0.00000000000E+00  0.57400348053E+03  0.57400348053E+03  0.00000000000E+00 0.  1.
          1   -1    0    0  501    0 -0.00000000000E+00 -0.00000000000E+00 -0.11142556568E+03  0.11142556568E+03  0.00000000000E+00 0. -1.
          2    1    1    2  501    0 -0.98922034219E+02  0.51685705310E+02  0.46403279193E+03  0.47726660576E+03  0.00000000000E+00 0.  1.
          1    1    1    2  502    0 -0.13486516581E+02 -0.33112874194E+02  0.30834656053E+01  0.35886715189E+02  0.00000000000E+00 0. -1.
         22    1    1    2    0    0  0.32856979581E+01  0.14543569834E+02  0.45398336094E+02  0.47784099392E+02  0.00000000000E+00 0. -1.
         22    1    1    2    0    0  0.10912285284E+03 -0.33116400949E+02 -0.49936678775E+02  0.12449162587E+03  0.00000000000E+00 0. -1.
</event>
<event>
 6    1  0.1715574E-005  0.5025447E+02  0.7818608E-02  0.1548451E+00
          2   -1    0    0  502    0  0.00000000000E+00  0.00000000000E+00  0.24432985553E+03  0.24432985553E+03  0.00000000000E+00 0.  1.
          1   -1    0    0  501    0 -0.00000000000E+00 -0.00000000000E+00 -0.22694806836E+03  0.22694806836E+03  0.00000000000E+00 0. -1.
          2    1    1    2  501    0  0.90521799069E+01  0.46681073876E+02  0.19543316727E+03  0.20113474958E+03  0.00000000000E+00 0.  1.
          1    1    1    2  502    0 -0.41991283767E+01 -0.29042194744E+02 -0.13196819676E+03  0.13519129672E+03  0.00000000000E+00 0. -1.
         22    1    1    2    0    0 -0.11649054951E+02  0.21527135390E+01  0.42402128269E+02  0.44025846256E+02  0.00000000000E+00 0. -1.
         22    1    1    2    0    0  0.67960034203E+01 -0.19791592671E+02 -0.88485311616E+02  0.90926031337E+02  0.00000000000E+00 0. -1.
</event>
<event>
 6    1  0.1715574E-005  0.3804226E+02  0.7818608E-02  0.1585423E+00
          2   -1    0    0  502    0  0.00000000000E+00  0.00000000000E+00  0.20439757624E+03  0.20439757624E+03  0.00000000000E+00 0. -1.
          1   -1    0    0  501    0 -0.00000000000E+00 -0.00000000000E+00 -0.27689564748E+03  0.27689564748E+03  0.00000000000E+00 0.  1.
          2    1    1    2  501    0  0.14369374479E+02  0.46011348350E+02  0.16148330837E+03  0.16852412879E+03  0.00000000000E+00 0. -1.
          1    1    1    2  502    0  0.22684037725E+02 -0.32297792610E+02 -0.15079876824E+03  0.15587809813E+03  0.00000000000E+00 0.  1.
         22    1    1    2    0    0 -0.12942242285E+02  0.34108137881E+01  0.33734005021E+02  0.36292125604E+02  0.00000000000E+00 0. -1.
         22    1    1    2    0    0 -0.24111169920E+02 -0.17124369528E+02 -0.11691661639E+03  0.12059887120E+03  0.00000000000E+00 0.  1.
</event>
<event>
 6    1  0.1715574E-005  0.1433842E+03  0.7818608E-02  0.1209645E+00
          2   -1    0    0  502    0  0.00000000000E+00  0.00000000000E+00  0.42605976228E+03  0.42605976228E+03  0.00000000000E+00 0.  1.
          1   -1    0    0  501    0 -0.00000000000E+00 -0.00000000000E+00 -0.98948894785E+02  0.98948894785E+02  0.00000000000E+00 0.  1.
          2    1    1    2  501    0  0.21145586804E+02 -0.89181154423E+01  0.12245210428E+02  0.26011801221E+02  0.00000000000E+00 0.  1.
          1    1    1    2  502    0 -0.10421187757E+03 -0.33766017018E+00 -0.41305661713E+02  0.11209989800E+03  0.00000000000E+00 0.  1.
         22    1    1    2    0    0  0.98535807738E+02 -0.13614947370E+02  0.34137289962E+03  0.35557014609E+03  0.00000000000E+00 0.  1.
         22    1    1    2    0    0 -0.15469516968E+02  0.22870722983E+02  0.14798419164E+02  0.31326811755E+02  0.00000000000E+00 0.  1.
</event>
<event>
 6    1  0.1715574E-005  0.1224140E+03  0.7818608E-02  0.1253828E+00
          2   -1    0    0  502    0  0.00000000000E+00  0.00000000000E+00  0.16177631646E+02  0.16177631646E+02  0.00000000000E+00 0. -1.
          1   -1    0    0  501    0 -0.00000000000E+00 -0.00000000000E+00 -0.70571783432E+03  0.70571783432E+03  0.00000000000E+00 0. -1.
          2    1    1    2  501    0  0.37022354686E+02 -0.31828805225E+02 -0.24475204941E+03  0.24957422399E+03  0.00000000000E+00 0. -1.
          1    1    1    2  502    0  0.13286186610E+02  0.15225095658E+02 -0.95456360268E+02  0.97571732628E+02  0.00000000000E+00 0. -1.
         22    1    1    2    0    0 -0.38322177414E+02 -0.51864967249E+02 -0.13902091729E+03  0.15324940311E+03  0.00000000000E+00 0. -1.
         22    1    1    2    0    0 -0.11986363881E+02  0.68468676817E+02 -0.21031087570E+03  0.22150010624E+03  0.00000000000E+00 0. -1.
</event>
<event>
 6    1  0.1715574E-005  0.4741416E+02  0.7818608E-02  0.1503071E+00
          2   -1    0    0  502    0  0.00000000000E+00  0.00000000000E+00  0.17156552997E+03  0.17156552997E+03  0.00000000000E+00 0. -1.
          1   -1    0    0  501    0 -0.00000000000E+00 -0.00000000000E+00 -0.13351876548E+03  0.13351876548E+03  0.00000000000E+00 0. -1.
          2    1    1    2  501    0  0.29522783401E+02  0.17008489667E+02  0.12158804611E+03  0.12627167702E+03  0.00000000000E+00 0. -1.
          1    1    1    2  502    0 -0.26341254259E+02 -0.59878022662E+01 -0.38305766458E+02  0.46872670032E+02  0.00000000000E+00 0. -1.
         22    1    1    2    0    0  0.92614419648E+01  0.11535550986E+02  0.40131253290E+02  0.42771026811E+02  0.00000000000E+00 0. -1.
         22    1    1    2    0    0 -0.12442971107E+02 -0.22556238387E+02 -0.85366768457E+02  0.89168921587E+02  0.00000000000E+00 0. -1.
</event>
<event>
 6    1  0.1715574E-005  0.6924365E+02  0.7818608E-02  0.1364678E+00
          2   -1    0    0  502    0  0.00000000000E+00  0.00000000000E+00  0.23556074976E+03  0.23556074976E+03  0.00000000000E+00 0.  1.
          1   -1    0    0  501    0 -0.00000000000E+00 -0.00000000000E+00 -0.19876420966E+03  0.19876420966E+03  0.00000000000E+00 0. -1.
          2    1    1    2  501    0 -0.28314851694E+02 -0.11436189139E+03  0.13566414102E+03  0.17968063944E+03  0.00000000000E+00 0.  1.
          1    1    1    2  502    0 -0.10410731512E+02  0.97472205311E+02 -0.44064611932E+02  0.10747513277E+03  0.00000000000E+00 0. -1.
         22    1    1    2    0    0  0.74729188379E+01  0.39633286376E+02 -0.87625031470E+02  0.96461329273E+02  0.00000000000E+00 0. -1.
         22    1    1    2    0    0  0.31252664368E+02 -0.22743600294E+02  0.32822042487E+02  0.50707857946E+02  0.00000000000E+00 0.  1.
</event>
<event>
 6    1  0.1715574E-005  0.4712065E+02  0.7818608E-02  0.1515576E+00
          2   -1    0    0  502    0  0.00000000000E+00  0.00000000000E+00  0.26831961466E+03  0.26831961466E+03  0.00000000000E+00 0.  1.
          1   -1    0    0  501    0 -0.00000000000E+00 -0.00000000000E+00 -0.17490636091E+03  0.17490636091E+03  0.00000000000E+00 0.  1.
          2    1    1    2  501    0  0.36386061301E+01 -0.28088444184E+02  0.21368719568E+03  0.21555606637E+03  0.00000000000E+00 0.  1.
          1    1    1    2  502    0  0.23465261220E+01  0.31216333300E+02 -0.98510029620E+02  0.10336436323E+03  0.00000000000E+00 0.  1.
         22    1    1    2    0    0  0.13064133034E+02  0.81733332641E+01 -0.69761795735E+02  0.71443565789E+02  0.00000000000E+00 0.  1.
         22    1    1    2    0    0 -0.19049265286E+02 -0.11301222380E+02  0.47997883431E+02  0.52861980185E+02  0.00000000000E+00 0. -1.
</event>
<event>
 6    1  0.1715574E-005  0.5968035E+02  0.7818608E-02  0.1501328E+00
          2   -1    0    0  502    0  0.00000000000E+00  0.00000000000E+00  0.10899946479E+03  0.10899946479E+03  0.00000000000E+00 0.  1.
          1   -1    0    0  501    0 -0.00000000000E+00 -0.00000000000E+00 -0.36683638021E+03  0.36683638021E+03  0.00000000000E+00 0.  1.
          2    1    1    2  501    0  0.32786394801E+02  0.12190173963E+02  0.49744824124E+02  0.60811968825E+02  0.00000000000E+00 0.  1.
          1    1    1    2  502    0 -0.35494402914E+02 -0.35924321711E+02 -0.28005060826E+03  0.28456765930E+03  0.00000000000E+00 0.  1.
         22    1    1    2    0    0 -0.12395405754E+02  0.46245126446E+01 -0.75503780609E+02  0.76654113310E+02  0.00000000000E+00 0. -1.
         22    1    1    2    0    0  0.15103413867E+02  0.19109635104E+02  0.47972649327E+02  0.53802103562E+02  0.00000000000E+00 0.  1.
</event>
<event>
 6    1  0.2623436E-005  0.5525212E+03  0.7818608E-02  0.1001339E+00
          2   -1    0    0  502    0  0.00000000000E+00  0.00000000000E+00  0.19194662177E+04  0.19194662177E+04  0.00000000000E+00 0.  1.
          1   -1    0    0  501    0 -0.00000000000E+00 -0.00000000000E+00 -0.16924903376E+03  0.16924903376E+03  0.00000000000E+00 0.  1.
          2    1    1    2  501    0  0.48201818095E+03  0.16204278184E+03  0.10428040300E+04  0.11601894824E+04  0.00000000000E+00 0.  1.
          1    1    1    2  502    0 -0.43569500917E+03 -0.15482951092E+03  0.57591340379E+03  0.73856520845E+03  0.00000000000E+00 0.  1.
         22    1    1    2    0    0  0.16322415484E+02  0.29627424156E+02  0.10862552289E+03  0.11377042556E+03  0.00000000000E+00 0.  1.
         22    1    1    2    0    0 -0.62645587266E+02 -0.36840695074E+02  0.22874227240E+02  0.76190135118E+02  0.00000000000E+00 0.  1.
</event>
<event>
 6    1  0.1774089E-005  0.6431739E+03  0.7818608E-02  0.9831120E-01
          2   -1    0    0  502    0  0.00000000000E+00  0.00000000000E+00  0.88867888136E+03  0.88867888136E+03  0.00000000000E+00 0. -1.
          1   -1    0    0  501    0 -0.00000000000E+00 -0.00000000000E+00 -0.11984296046E+04  0.11984296046E+04  0.00000000000E+00 0. -1.
          2    1    1    2  501    0 -0.32506843697E+01  0.59967706511E+03  0.63914094088E+03  0.87642700305E+03  0.00000000000E+00 0. -1.
          1    1    1    2  502    0 -0.55523116321E+02 -0.57785331967E+03 -0.87722609044E+03  0.10519139172E+04  0.00000000000E+00 0. -1.
         22    1    1    2    0    0  0.49714209973E+02 -0.37818308076E+02 -0.10414856427E+03  0.12144402224E+03  0.00000000000E+00 0. -1.
         22    1    1    2    0    0  0.90595907172E+01  0.15994562640E+02  0.32482990586E+02  0.37323543447E+02  0.00000000000E+00 0. -1.
</event>
<event>
 6    1  0.1715574E-005  0.4135704E+02  0.7818608E-02  0.1554875E+00
          2   -1    0    0  502    0  0.00000000000E+00  0.00000000000E+00  0.39649823651E+03  0.39649823651E+03  0.00000000000E+00 0. -1.
          1   -1    0    0  501    0 -0.00000000000E+00 -0.00000000000E+00 -0.11987199273E+03  0.11987199273E+03  0.00000000000E+00 0. -1.
          2    1    1    2  501    0  0.24067469122E+02 -0.80967532938E+01  0.30481397433E+03  0.30586984066E+03  0.00000000000E+00 0. -1.
          1    1    1    2  502    0 -0.29578839738E+02  0.12833890461E+01 -0.70550290027E+02  0.76510772252E+02  0.00000000000E+00 0. -1.
         22    1    1    2    0    0  0.13974728526E+02  0.13706973962E+02  0.86415322009E+02  0.88604638990E+02  0.00000000000E+00 0. -1.
         22    1    1    2    0    0 -0.84633579097E+01 -0.68936097148E+01 -0.44052762525E+02  0.45384977339E+02  0.00000000000E+00 0. -1.
</event>
<event>
 6    1  0.1715574E-005  0.1503520E+03  0.7818608E-02  0.1272867E+00
          2   -1    0    0  502    0  0.00000000000E+00  0.00000000000E+00  0.91464301813E+03  0.91464301813E+03  0.00000000000E+00 0.  1.
          1   -1    0    0  501    0 -0.00000000000E+00 -0.00000000000E+00 -0.19755336364E+03  0.19755336364E+03  0.00000000000E+00 0. -1.
          2    1    1    2  501    0 -0.10418704456E+02 -0.11153147560E+03  0.79730916776E+03  0.80513957078E+03  0.00000000000E+00 0.  1.
          1    1    1    2  502    0  0.19752686601E+02  0.10516646278E+03 -0.13211336843E+03  0.17001204557E+03  0.00000000000E+00 0. -1.
         22    1    1    2    0    0 -0.11963423715E+02  0.40179594420E+02 -0.27888996307E+02  0.50351955570E+02  0.00000000000E+00 0.  1.
         22    1    1    2    0    0  0.26294415701E+01 -0.33814581600E+02  0.79782851468E+02  0.86692809853E+02  0.00000000000E+00 0.  1.
</event>
<event>
 6    1  0.1715574E-005  0.8050102E+02  0.7818608E-02  0.1351921E+00
          2   -1    0    0  502    0  0.00000000000E+00  0.00000000000E+00  0.84356697641E+02  0.84356697641E+02  0.00000000000E+00 0. -1.
          1   -1    0    0  501    0 -0.00000000000E+00 -0.00000000000E+00 -0.23358265012E+03  0.23358265012E+03  0.00000000000E+00 0.  1.
          2    1    1    2  501    0 -0.10472162087E+02  0.18868775298E+02  0.56836078727E+02  0.60795038491E+02  0.00000000000E+00 0. -1.
          1    1    1    2  502    0 -0.20857992189E+02  0.92608069219E+01 -0.29699184092E+02  0.37454771641E+02  0.00000000000E+00 0.  1.
         22    1    1    2    0    0  0.12788729894E+02  0.18834125471E+02  0.11255352653E+02  0.25396040201E+02  0.00000000000E+00 0.  1.
         22    1    1    2    0    0  0.18541424383E+02 -0.46963707691E+02 -0.18761819977E+03  0.19429349743E+03  0.00000000000E+00 0.  1.
</event>
<event>
 6    1  0.1715574E-005  0.5377765E+02  0.7818608E-02  0.1428534E+00
          2   -1    0    0  502    0  0.00000000000E+00  0.00000000000E+00  0.21070195288E+03  0.21070195288E+03  0.00000000000E+00 0.  1.
          1   -1    0    0  501    0 -0.00000000000E+00 -0.00000000000E+00 -0.65006885873E+02  0.65006885873E+02  0.00000000000E+00 0.  1.
          2    1    1    2  501    0  0.92617736315E+01  0.20576203638E+02  0.10109120973E+03  0.10357892301E+03  0.00000000000E+00 0.  1.
          1    1    1    2  502    0  0.12464153769E+02 -0.23900128748E+02 -0.15841892489E+02  0.31265585569E+02  0.00000000000E+00 0.  1.
         22    1    1    2    0    0 -0.41842896014E+01 -0.21538780603E+02 -0.34653519084E+02  0.41015774213E+02  0.00000000000E+00 0. -1.
         22    1    1    2    0    0 -0.17541637799E+02  0.24862705713E+02  0.95099268842E+02  0.99848555955E+02  0.00000000000E+00 0. -1.
</event>
<event>
 6    1  0.1715574E-005  0.8061807E+02  0.7818608E-02  0.1328957E+00
          2   -1    0    0  502    0  0.00000000000E+00  0.00000000000E+00  0.13995594820E+03  0.13995594820E+03  0.00000000000E+00 0. -1.
          1   -1    0    0  501    0 -0.00000000000E+00 -0.00000000000E+00 -0.27994598126E+03  0.27994598126E+03  0.00000000000E+00 0.  1.
          2    1    1    2  501    0 -0.59096612218E+02 -0.22982935312E+02  0.98189877008E+02  0.11688403158E+03  0.00000000000E+00 0. -1.
          1    1    1    2  502    0  0.40512430277E+02  0.22052922912E+02 -0.11499170512E+03  0.12389786383E+03  0.00000000000E+00 0.  1.
         22    1    1    2    0    0 -0.98042505012E+01 -0.11198385636E+02  0.24267114660E+02  0.28467877031E+02  0.00000000000E+00 0. -1.
         22    1    1    2    0    0  0.28388432443E+02  0.12128398036E+02 -0.14745531960E+03  0.15065215702E+03  0.00000000000E+00 0.  1.
</event>
<event>
 6    1  0.1715574E-005  0.4498087E+02  0.7818608E-02  0.1526518E+00
          2   -1    0    0  502    0  0.00000000000E+00  0.00000000000E+00  0.11862744791E+03  0.11862744791E+03  0.00000000000E+00 0.  1.
          1   -1    0    0  501    0 -0.00000000000E+00 -0.00000000000E+00 -0.16075054104E+03  0.16075054104E+03  0.00000000000E+00 0.  1.
          2    1    1    2  501    0 -0.16175869675E+02 -0.23775010309E+02  0.55294503623E+02  0.62324890741E+02  0.00000000000E+00 0.  1.
          1    1    1    2  502    0  0.28391709305E+02  0.11502184684E+02 -0.82051459063E+02  0.87583282333E+02  0.00000000000E+00 0.  1.
         22    1    1    2    0    0 -0.11993626783E+02 -0.97274047896E+01  0.54278560875E+02  0.56432540772E+02  0.00000000000E+00 0. -1.
         22    1    1    2    0    0 -0.22221284790E+00  0.22000230415E+02 -0.69644698569E+02  0.73037275111E+02  0.00000000000E+00 0.  1.
</event>
<event>
 6    1  0.1715574E-005  0.1033867E+03  0.7818608E-02  0.1273782E+00
          2   -1    0    0  502    0  0.00000000000E+00  0.00000000000E+00  0.18174606935E+03  0.18174606935E+03  0.00000000000E+00 0. -1.
          1   -1    0    0  501    0 -0.00000000000E+00 -0.00000000000E+00 -0.36431355137E+03  0.36431355137E+03  0.00000000000E+00 0.  1.
          2    1    1    2  501    0 -0.26134947816E+02  0.98914265720E+01  0.36584985603E+02  0.46036257325E+02  0.00000000000E+00 0. -1.
          1    1    1    2  502    0  0.67701122329E+02 -0.58963155799E+02 -0.31659185712E+03  0.32907521891E+03  0.00000000000E+00 0.  1.
         22    1    1    2    0    0 -0.41814077195E+02  0.61270480230E+02  0.12242383879E+03  0.14314358212E+03  0.00000000000E+00 0. -1.
         22    1    1    2    0    0  0.24790268108E+00 -0.12198751003E+02 -0.24984449291E+02  0.27804562362E+02  0.00000000000E+00 0. -1.
</event>
<event>
 6    1  0.1715574E-005  0.4723100E+02  0.7818608E-02  0.1464357E+00
          2   -1    0    0  502    0  0.00000000000E+00  0.00000000000E+00  0.88373724506E+02  0.88373724506E+02  0.00000000000E+00 0. -1.
          1   -1    0    0  501    0 -0.00000000000E+00 -0.00000000000E+00 -0.17440710029E+03  0.17440710029E+03  0.00000000000E+00 0.  1.
          2    1    1    2  501    0 -0.63818288723E+02 -0.62979994225E+01 -0.11868087379E+02  0.65217254391E+02  0.00000000000E+00 0. -1.
          1    1    1    2  502    0  0.56665457247E+02 -0.18598610263E+02 -0.30820639875E+02  0.67132661135E+02  0.00000000000E+00 0.  1.
         22    1    1    2    0    0 -0.32606296178E+02  0.15457976408E+02  0.29698099209E+02  0.46734320169E+02  0.00000000000E+00 0. -1.
         22    1    1    2    0    0  0.39759127654E+02  0.94386332781E+01 -0.73042747741E+02  0.83696589103E+02  0.00000000000E+00 0.  1.
</event>
<event>
 6    1  0.1715574E-005  0.7185904E+02  0.7818608E-02  0.1384741E+00
          2   -1    0    0  502    0  0.00000000000E+00  0.00000000000E+00  0.44184800669E+03  0.44184800669E+03  0.00000000000E+00 0. -1.
          1   -1    0    0  501    0 -0.00000000000E+00 -0.00000000000E+00 -0.38334239686E+02  0.38334239686E+02  0.00000000000E+00 0. -1.
          2    1    1    2  501    0 -0.14774776467E+02  0.44200685318E+02  0.13429813089E+03  0.14215478382E+03  0.00000000000E+00 0. -1.
          1    1    1    2  502    0 -0.51863898570E+01 -0.53202311548E+02  0.21692768187E+02  0.57688480526E+02  0.00000000000E+00 0. -1.
         22    1    1    2    0    0 -0.79844484255E+01 -0.23794888453E+02 -0.37686879085E+01  0.25380132815E+02  0.00000000000E+00 0.  1.
         22    1    1    2    0    0  0.27945614749E+02  0.32796514683E+02  0.25129155583E+03  0.25495884921E+03  0.00000000000E+00 0. -1.
</event>
<event>
 6    1  0.1715574E-005  0.8015120E+02  0.7818608E-02  0.1343666E+00
          2   -1    0    0  502    0  0.00000000000E+00  0.00000000000E+00  0.33515111315E+03  0.33515111315E+03  0.00000000000E+00 0.  1.
          1   -1    0    0  501    0 -0.00000000000E+00 -0.00000000000E+00 -0.79897824831E+02  0.79897824831E+02  0.00000000000E+00 0. -1.
          2    1    1    2  501    0  0.17395350536E+02  0.18795721127E+02  0.67111934472E+02  0.71832368063E+02  0.00000000000E+00 0.  1.
          1    1    1    2  502    0  0.85602751404E+01 -0.49833111135E+02 -0.50773385368E+02  0.71655801842E+02  0.00000000000E+00 0. -1.
         22    1    1    2    0    0 -0.31965810481E+02  0.40372160353E+02  0.25036851281E+03  0.25560930456E+03  0.00000000000E+00 0.  1.
         22    1    1    2    0    0  0.60101848049E+01 -0.93347703455E+01 -0.11453773593E+02  0.15951463517E+02  0.00000000000E+00 0. -1.
</event>
<event>
 6    1  0.1715574E-005  0.6625548E+02  0.7818608E-02  0.1459723E+00
          2   -1    0    0  502    0  0.00000000000E+00  0.00000000000E+00  0.11042721315E+03  0.11042721315E+03  0.00000000000E+00 0. -1.
          1   -1    0    0  501    0 -0.00000000000E+00 -0.00000000000E+00 -0.12940975789E+03  0.12940975789E+03  0.00000000000E+00 0. -1.
          2    1    1    2  501    0  0.15378897168E+01  0.33900626154E+02  0.27736261993E+02  0.43828276122E+02  0.00000000000E+00 0. -1.
          1    1    1    2  502    0  0.12759242360E+02 -0.48168491336E+02 -0.48900950832E+02  0.69816221721E+02  0.00000000000E+00 0. -1.
         22    1    1    2    0    0 -0.66182065373E+01 -0.16090682034E+02 -0.56804353980E+02  0.59409135132E+02  0.00000000000E+00 0. -1.
         22    1    1    2    0    0 -0.76789255395E+01  0.30358547215E+02  0.58986498082E+02  0.66783338060E+02  0.00000000000E+00 0. -1.
</event>
<event>
 6    1  0.1715574E-005  0.7723954E+02  0.7818608E-02  0.1338231E+00
          2   -1    0    0  502    0  0.00000000000E+00  0.00000000000E+00  0.50657884539E+02  0.50657884539E+02  0.00000000000E+00 0. -1.
          1   -1    0    0  501    0 -0.00000000000E+00 -0.00000000000E+00 -0.23805875804E+03  0.23805875804E+03  0.00000000000E+00 0.  1.
          2    1    1    2  501    0 -0.87789205788E+01 -0.20921475876E+02  0.31931391764E+01  0.22912305365E+02  0.00000000000E+00 0. -1.
          1    1    1    2  502    0  0.17330000788E+01  0.42928905754E+02 -0.10293875003E+03  0.11154497074E+03  0.00000000000E+00 0.  1.
         22    1    1    2    0    0  0.27882038854E+02 -0.46880696534E+02  0.62537590053E+01  0.54902798653E+02  0.00000000000E+00 0. -1.
         22    1    1    2    0    0 -0.20836118354E+02  0.24873266656E+02 -0.93909021651E+02  0.99356567824E+02  0.00000000000E+00 0. -1.
</event>
<event>
 6    1  0.1715574E-005  0.1567875E+03  0.7818608E-02  0.1225183E+00
          2   -1    0    0  502    0  0.00000000000E+00  0.00000000000E+00  0.24125415015E+03  0.24125415015E+03  0.00000000000E+00 0.  1.
          1   -1    0    0  501    0 -0.00000000000E+00 -0.00000000000E+00 -0.20818870322E+03  0.20818870322E+03  0.00000000000E+00 0. -1.
          2    1    1    2  501    0 -0.10374471852E+01  0.43549050787E+02  0.14143272562E+03  0.14798922932E+03  0.00000000000E+00 0.  1.
          1    1    1    2  502    0 -0.39748633032E+02 -0.16385544604E+02 -0.15342062201E+03  0.15933087321E+03  0.00000000000E+00 0. -1.
         22    1    1    2    0    0  0.27742347309E+01  0.31891037631E+02  0.62089093067E+02  0.69855494683E+02  0.00000000000E+00 0.  1.
         22    1    1    2    0    0  0.38011845486E+02 -0.59054543813E+02 -0.17035749744E+02  0.72267256151E+02  0.00000000000E+00 0.  1.
</event>
<event>
 6    1  0.1715574E-005  0.1617700E+03  0.7818608E-02  0.1228114E+00
          2   -1    0    0  502    0  0.00000000000E+00  0.00000000000E+00  0.59747522321E+02  0.59747522321E+02  0.00000000000E+00 0. -1.
          1   -1    0    0  501    0 -0.00000000000E+00 -0.00000000000E+00 -0.30039519120E+03  0.30039519120E+03  0.00000000000E+00 0. -1.
          2    1    1    2  501    0  0.22499412182E+02  0.97981728655E+01 -0.11456912762E+03  0.11716788273E+03  0.00000000000E+00 0. -1.
          1    1    1    2  502    0 -0.45592019987E+02 -0.78139273522E+01 -0.99032047533E+02  0.10930249853E+03  0.00000000000E+00 0. -1.
         22    1    1    2    0    0 -0.11333623018E+02 -0.13819727362E+02 -0.72937655211E+02  0.75095521989E+02  0.00000000000E+00 0. -1.
         22    1    1    2    0    0  0.34426230823E+02  0.11835481849E+02  0.45891161482E+02  0.58576810270E+02  0.00000000000E+00 0. -1.
</event>
<event>
 6    1  0.1715574E-005  0.1586226E+03  0.7818608E-02  0.1214658E+00
          2   -1    0    0  502    0  0.00000000000E+00  0.00000000000E+00  0.34051284757E+02  0.34051284757E+02  0.00000000000E+00 0. -1.
          1   -1    0    0  501    0 -0.00000000000E+00 -0.00000000000E+00 -0.14725604257E+04  0.14725604257E+04  0.00000000000E+00 0.  1.
          2    1    1    2  501    0 -0.36024408755E+02 -0.17057253371E+03 -0.32952716869E+03  0.37280142460E+03  0.00000000000E+00 0. -1.
          1    1    1    2  502    0  0.31011786203E+02  0.24718506320E+02 -0.14727402921E+03  0.15252008103E+03  0.00000000000E+00 0.  1.
         22    1    1    2    0    0  0.51181984953E+02  0.11180347020E+02 -0.28363929785E+03  0.28843690303E+03  0.00000000000E+00 0. -1.
         22    1    1    2    0    0 -0.46169362401E+02  0.13467368037E+03 -0.67806864524E+03  0.69285330183E+03  0.00000000000E+00 0.  1.
</event>
<event>
 6    1  0.1715574E-005  0.1292787E+03  0.7818608E-02  0.1229959E+00
          2   -1    0    0  502    0  0.00000000000E+00  0.00000000000E+00  0.51711327343E+03  0.51711327343E+03  0.00000000000E+00 0. -1.
          1   -1    0    0  501    0 -0.00000000000E+00 -0.00000000000E+00 -0.57899823579E+02  0.57899823579E+02  0.00000000000E+00 0. -1.
          2    1    1    2  501    0 -0.34886316962E+02 -0.15535886271E+02 -0.59242398932E+01  0.38646028149E+02  0.00000000000E+00 0. -1.
          1    1    1    2  502    0  0.78168332767E+02  0.49114967521E+02  0.34769913052E+03  0.35974609608E+03  0.00000000000E+00 0. -1.
         22    1    1    2    0    0  0.26765803958E+02  0.15779078307E+02  0.74614578537E+02  0.80825261547E+02  0.00000000000E+00 0.  1.
         22    1    1    2    0    0 -0.70047819763E+02 -0.49358159557E+02  0.42823980686E+02  0.95795711231E+02  0.00000000000E+00 0. -1.
</event>
<event>
 6    1  0.1715574E-005  0.6777105E+02  0.7818608E-02  0.1382962E+00
          2   -1    0    0  502    0  0.00000000000E+00  0.00000000000E+00  0.13786320620E+03  0.13786320620E+03  0.00000000000E+00 0.  1.
          1   -1    0    0  501    0 -0.00000000000E+00 -0.00000000000E+00 -0.13096406484E+03  0.13096406484E+03  0.00000000000E+00 0.  1.
          2    1    1    2  501    0  0.12204406752E+02 -0.35223325998E+02  0.88681143600E+02  0.96197585566E+02  0.00000000000E+00 0.  1.
          1    1    1    2  502    0 -0.21572156233E+02  0.23241507168E+01 -0.23452906350E+02  0.31949936109E+02  0.00000000000E+00 0.  1.
         22    1    1    2    0    0  0.11170674962E+02 -0.10845163545E+02  0.34606703742E+02  0.37947667850E+02  0.00000000000E+00 0.  1.
         22    1    1    2    0    0 -0.18029254800E+01  0.43744338826E+02 -0.92935799635E+02  0.10273208152E+03  0.00000000000E+00 0.  1.
</event>
<event>
 6    1  0.1715574E-005  0.8750231E+02  0.7818608E-02  0.1309267E+00
          2   -1    0    0  502    0  0.00000000000E+00  0.00000000000E+00  0.40994007022E+03  0.40994007022E+03  0.00000000000E+00 0.  1.
          1   -1    0    0  501    0 -0.00000000000E+00 -0.00000000000E+00 -0.57108790353E+02  0.57108790353E+02  0.00000000000E+00 0.  1.
          2    1    1    2  501    0 -0.25690929856E+01  0.22406277137E+02  0.82633799521E+02  0.85656210033E+02  0.00000000000E+00 0.  1.
          1    1    1    2  502    0 -0.16993373846E+02 -0.69536694142E+02 -0.67030574129E+01  0.71896158212E+02  0.00000000000E+00 0.  1.
         22    1    1    2    0    0  0.15001211458E+01 -0.14537929521E+02 -0.85298384622E+01  0.16922171917E+02  0.00000000000E+00 0. -1.
         22    1    1    2    0    0  0.18062345686E+02  0.61668346526E+02  0.28543037622E+03  0.29257432041E+03  0.00000000000E+00 0.  1.
</event>
<event>
 6    1  0.1715574E-005  0.3989035E+02  0.7818608E-02  0.1578648E+00
          2   -1    0    0  502    0  0.00000000000E+00  0.00000000000E+00  0.20417030785E+03  0.20417030785E+03  0.00000000000E+00 0. -1.
          1   -1    0    0  501    0 -0.00000000000E+00 -0.00000000000E+00 -0.18039263088E+03  0.18039263088E+03  0.00000000000E+00 0. -1.
          2    1    1    2  501    0  0.33450373851E+02  0.12009413070E+02  0.14804675068E+03  0.15225305876E+03  0.00000000000E+00 0. -1.
          1    1    1    2  502    0 -0.11810628478E+02 -0.16331746084E+02 -0.10586740597E+03  0.10776884764E+03  0.00000000000E+00 0. -1.
         22    1    1    2    0    0 -0.58050498094E+01  0.15104332314E+02  0.50498256042E+02  0.53027477040E+02  0.00000000000E+00 0. -1.
         22    1    1    2    0    0 -0.15834695563E+02 -0.10781999299E+02 -0.68899923784E+02  0.71513555288E+02  0.00000000000E+00 0. -1.
</event>
<event>
 6    1  0.1715574E-005  0.1153926E+03  0.7818608E-02  0.1263176E+00
          2   -1    0    0  502    0  0.00000000000E+00  0.00000000000E+00  0.49067805631E+02  0.49067805631E+02  0.00000000000E+00 0.  1.
          1   -1    0    0  501    0 -0.00000000000E+00 -0.00000000000E+00 -0.21758191756E+03  0.21758191756E+03  0.00000000000E+00 0.  1.
          2    1    1    2  501    0  0.11661259889E+02 -0.25084746731E+02 -0.14615154890E+02  0.31286294975E+02  0.00000000000E+00 0.  1.
          1    1    1    2  502    0 -0.94385623139E+01  0.48953064028E+02 -0.28933415173E+02  0.57642271380E+02  0.00000000000E+00 0.  1.
         22    1    1    2    0    0  0.59819338728E+02 -0.17985746816E+02 -0.48539949592E+02  0.79107313699E+02  0.00000000000E+00 0.  1.
         22    1    1    2    0    0 -0.62042036303E+02 -0.58825704812E+01 -0.76425592276E+02  0.98613843140E+02  0.00000000000E+00 0.  1.
</event>
<event>
 6    1  0.1715574E-005  0.1619697E+03  0.7818608E-02  0.1248096E+00
          2   -1    0    0  502    0  0.00000000000E+00  0.00000000000E+00  0.25157654056E+03  0.25157654056E+03  0.00000000000E+00 0. -1.
          1   -1    0    0  501    0 -0.00000000000E+00 -0.00000000000E+00 -0.27922875759E+03  0.27922875759E+03  0.00000000000E+00 0. -1.
          2    1    1    2  501    0  0.11028113827E+03  0.14408604454E+03 -0.16176260346E+03  0.24308405453E+03  0.00000000000E+00 0. -1.
          1    1    1    2  502    0 -0.28808456853E+02 -0.29867210029E+01 -0.17852250953E+02  0.34022794604E+02  0.00000000000E+00 0. -1.
         22    1    1    2    0    0 -0.14021236901E+02  0.34118738687E+01 -0.16366329126E+02  0.21819548497E+02  0.00000000000E+00 0.  1.
         22    1    1    2    0    0 -0.67451444516E+02 -0.14451119740E+03  0.16832896651E+03  0.23187890052E+03  0.00000000000E+00 0. -1.
</event>
<event>
 6    1  0.1715574E-005  0.5070360E+02  0.7818608E-02  0.1503493E+00
          2   -1    0    0  502    0  0.00000000000E+00  0.00000000000E+00  0.43487784732E+03  0.43487784732E+03  0.00000000000E+00 0. -1.
          1   -1    0    0  501    0 -0.00000000000E+00 -0.00000000000E+00 -0.11492885190E+03  0.11492885190E+03  0.00000000000E+00 0.  1.
          2    1    1    2  501    0 -0.66563813430E+01 -0.58965269361E+02  0.36823727538E+03  0.37298780326E+03  0.00000000000E+00 0. -1.
          1    1    1    2  502    0  0.15908146406E+02  0.12832566303E+02 -0.39477542112E+02  0.44454698416E+02  0.00000000000E+00 0.  1.
         22    1    1    2    0    0  0.38728765254E+01  0.29811010658E+02 -0.65424560587E+02  0.72000476783E+02  0.00000000000E+00 0.  1.
         22    1    1    2    0    0 -0.13124641588E+02  0.16321692401E+02  0.56613822744E+02  0.60363720771E+02  0.00000000000E+00 0. -1.
</event>
<event>
 6    1  0.1715574E-005  0.1105374E+03  0.7818608E-02  0.1269977E+00
          2   -1    0    0  502    0  0.00000000000E+00  0.00000000000E+00  0.38244666145E+02  0.38244666145E+02  0.00000000000E+00 0. -1.
          1   -1    0    0  501    0 -0.00000000000E+00 -0.00000000000E+00 -0.29743351178E+03  0.29743351178E+03  0.00000000000E+00 0. -1.
          2    1    1    2  501    0 -0.37248603698E+02 -0.26760316760E+02 -0.92629227180E+02  0.10336221146E+03  0.00000000000E+00 0. -1.
          1    1    1    2  502    0  0.21969486256E+02 -0.45220648351E+01 -0.54626419979E+02  0.59052122370E+02  0.00000000000E+00 0. -1.
         22    1    1    2    0    0  0.11499489792E+02  0.66161325192E+02 -0.11977432047E+03  0.13731513777E+03  0.00000000000E+00 0. -1.
         22    1    1    2    0    0  0.37796276505E+01 -0.34878943596E+02  0.78411220009E+01  0.35948706316E+02  0.00000000000E+00 0. -1.
</event>
<event>
 6    1  0.3082574E-005  0.2460106E+03  0.7818608E-02  0.1230007E+00
          2   -1    0    0  502    0  0.00000000000E+00  0.00000000000E+00  0.12925543649E+04  0.12925543649E+04  0.00000000000E+00 0.  1.
          1   -1    0    0  501    0 -0.00000000000E+00 -0.00000000000E+00 -0.23577067261E+03  0.23577067261E+03  0.00000000000E+00 0.  1.
          2    1    1    2  501    0 -0.18127998273E+03 -0.17341068963E+03  0.11072233598E+04  0.11352873063E+04  0.00000000000E+00 0.  1.
          1    1    1    2  502    0  0.16914101410E+03  0.13808899120E+03 -0.11873649491E+03  0.24854699227E+03  0.00000000000E+00 0.  1.
         22    1    1    2    0    0  0.13748456122E+02  0.17196519920E+02 -0.34044992448E+02  0.40543826335E+02  0.00000000000E+00 0. -1.
         22    1    1    2    0    0 -0.16094874936E+01  0.18125178512E+02  0.10234181984E+03  0.10394691257E+03  0.00000000000E+00 0. -1.
</event>
<event>
 6    1  0.1715574E-005  0.1089661E+03  0.7818608E-02  0.1297441E+00
          2   -1    0    0  502    0  0.00000000000E+00  0.00000000000E+00  0.87684544176E+02  0.87684544176E+02  0.00000000000E+00 0.  1.
          1   -1    0    0  501    0 -0.00000000000E+00 -0.00000000000E+00 -0.13648859071E+03  0.13648859071E+03  0.00000000000E+00 0.  1.
          2    1    1    2  501    0 -0.26211895366E+02 -0.19846383965E+02  0.21725566555E+02  0.39407393435E+02  0.00000000000E+00 0.  1.
          1    1    1    2  502    0 -0.14097505304E+02  0.36920136202E+02 -0.14656589385E+02  0.42150346682E+02  0.00000000000E+00 0.  1.
         22    1    1    2    0    0  0.61185686875E+02 -0.12142273685E+02 -0.85624542653E+02  0.10593717663E+03  0.00000000000E+00 0. -1.
         22    1    1    2    0    0 -0.20876286204E+02 -0.49314785520E+01  0.29751518946E+02  0.36678218140E+02  0.00000000000E+00 0.  1.
</event>
<event>
 6    1  0.1715574E-005  0.8424911E+02  0.7818608E-02  0.1318980E+00
          2   -1    0    0  502    0  0.00000000000E+00  0.00000000000E+00  0.35531856925E+03  0.35531856925E+03  0.00000000000E+00 0.  1.
          1   -1    0    0  501    0 -0.00000000000E+00 -0.00000000000E+00 -0.79246119609E+02  0.79246119609E+02  0.00000000000E+00 0.  1.
          2    1    1    2  501    0  0.18795778886E+02  0.33519540552E+02  0.26895664099E+03  0.27168826923E+03  0.00000000000E+00 0.  1.
          1    1    1    2  502    0 -0.15925212691E+02 -0.28415120000E+02  0.48374513484E+01  0.32930720906E+02  0.00000000000E+00 0.  1.
         22    1    1    2    0    0 -0.24348682193E+02  0.17869409778E+02 -0.56055402522E+02  0.63674031460E+02  0.00000000000E+00 0.  1.
         22    1    1    2    0    0  0.21478115998E+02 -0.22973830330E+02  0.58333759821E+02  0.66271667262E+02  0.00000000000E+00 0.  1.
</event>
<event>
 6    1  0.1715574E-005  0.1365836E+03  0.7818608E-02  0.1311222E+00
          2   -1    0    0  502    0  0.00000000000E+00  0.00000000000E+00  0.10788973533E+03  0.10788973533E+03  0.00000000000E+00 0. -1.
          1   -1    0    0  501    0 -0.00000000000E+00 -0.00000000000E+00 -0.60707587630E+03  0.60707587630E+03  0.00000000000E+00 0.  1.
          2    1    1    2  501    0  0.94379930026E+02  0.69214649122E+02  0.37533230418E+02  0.12291046428E+03  0.00000000000E+00 0. -1.
          1    1    1    2  502    0 -0.28936154778E+02 -0.59428196133E+02 -0.35564735254E+03  0.36173754425E+03  0.00000000000E+00 0.  1.
         22    1    1    2    0    0 -0.73087134295E+01  0.20861765145E+02  0.12845634116E+02  0.25566400857E+02  0.00000000000E+00 0. -1.
         22    1    1    2    0    0 -0.58135061819E+02 -0.30648218134E+02 -0.19391765296E+03  0.20475120223E+03  0.00000000000E+00 0. -1.
</event>
<event>
 6    1  0.1715574E-005  0.6396453E+02  0.7818608E-02  0.1382187E+00
          2   -1    0    0  502    0  0.00000000000E+00  0.00000000000E+00  0.28396651621E+03  0.28396651621E+03  0.00000000000E+00 0. -1.
          1   -1    0    0  501    0 -0.00000000000E+00 -0.00000000000E+00 -0.97612968636E+02  0.97612968636E+02  0.00000000000E+00 0. -1.
          2    1    1    2  501    0 -0.37907587964E+02  0.73175443779E+01  0.16981033094E+03  0.17414384908E+03  0.00000000000E+00 0. -1.
          1    1    1    2  502    0  0.43380907701E+02 -0.27987904578E+01 -0.46527406834E+02  0.63675238262E+02  0.00000000000E+00 0. -1.
         22    1    1    2    0    0  0.18955223839E+02  0.78904666924E+00 -0.36480392879E+02  0.41118635313E+02  0.00000000000E+00 0. -1.
         22    1    1    2    0    0 -0.24428543576E+02 -0.53078005893E+01  0.99551016355E+02  0.10264176219E+03  0.00000000000E+00 0.  1.
</event>
<event>
 6    1  0.1715574E-005  0.1788404E+03  0.7818608E-02  0.1222213E+00
          2   -1    0    0  502    0  0.00000000000E+00  0.00000000000E+00  0.17767494855E+03  0.17767494855E+03  0.00000000000E+00 0.  1.
          1   -1    0    0  501    0 -0.00000000000E+00 -0.00000000000E+00 -0.99924203364E+02  0.99924203364E+02  0.00000000000E+00 0.  1.
          2    1    1    2  501    0 -0.23861760560E+02  0.98251027663E+00 -0.44681074752E+02  0.50663077132E+02  0.00000000000E+00 0.  1.
          1    1    1    2  502    0  0.31220372373E+02 -0.21120268976E+02 -0.16047127626E+02  0.40966910035E+02  0.00000000000E+00 0.  1.
         22    1    1    2    0    0 -0.23165940311E+02  0.21575198716E+02  0.15781157159E+03  0.16095540413E+03  0.00000000000E+00 0.  1.
         22    1    1    2    0    0  0.15807328498E+02 -0.14374400161E+01 -0.19332624033E+02  0.25013760614E+02  0.00000000000E+00 0.  1.
</event>
<event>
 6    1  0.1715574E-005  0.2600334E+02  0.7818608E-02  0.1709325E+00
          2   -1    0    0  502    0  0.00000000000E+00  0.00000000000E+00  0.20381884934E+03  0.20381884934E+03  0.00000000000E+00 0.  1.
          1   -1    0    0  501    0 -0.00000000000E+00 -0.00000000000E+00 -0.12699480027E+03  0.12699480027E+03  0.00000000000E+00 0. -1.
          2    1    1    2  501    0 -0.12050761262E+02  0.27056235462E+02  0.89827998636E+02  0.94585041435E+02  0.00000000000E+00 0.  1.
          1    1    1    2  502    0 -0.53454224670E+01 -0.28117756245E+02 -0.86606487728E+02  0.91213296587E+02  0.00000000000E+00 0. -1.
         22    1    1    2    0    0  0.29514225616E+02 -0.41055979564E+01  0.10596457349E+03  0.11007468502E+03  0.00000000000E+00 0.  1.
         22    1    1    2    0    0 -0.12118041886E+02  0.51671187398E+01 -0.32362035321E+02  0.34940626574E+02  0.00000000000E+00 0.  1.
</event>
<event>
 6    1  0.1715574E-005  0.4576543E+02  0.7818608E-02  0.1581031E+00
          2   -1    0    0  502    0  0.00000000000E+00  0.00000000000E+00  0.26903423275E+03  0.26903423275E+03  0.00000000000E+00 0. -1.
          1   -1    0    0  501    0 -0.00000000000E+00 -0.00000000000E+00 -0.77370157387E+02  0.77370157387E+02  0.00000000000E+00 0. -1.
          2    1    1    2  501    0 -0.12652131557E+02 -0.27775850170E+02  0.17076099794E+03  0.17346726695E+03  0.00000000000E+00 0. -1.
          1    1    1    2  502    0  0.74115765833E+01  0.33829584892E+02 -0.23162970236E+02  0.41664078912E+02  0.00000000000E+00 0. -1.
         22    1    1    2    0    0  0.15177438801E+01 -0.15769495967E+02  0.86317541460E+02  0.87759321518E+02  0.00000000000E+00 0. -1.
         22    1    1    2    0    0  0.37228110939E+01  0.97157612446E+01 -0.42251493806E+02  0.43513722753E+02  0.00000000000E+00 0. -1.
</event>
<event>
 6    1  0.1715574E-005  0.1610486E+03  0.7818608E-02  0.1188425E+00
          2   -1    0    0  502    0  0.00000000000E+00  0.00000000000E+00  0.91674064015E+02  0.91674064015E+02  0.00000000000E+00 0. -1.
          1   -1    0    0  501    0 -0.00000000000E+00 -0.00000000000E+00 -0.90270844465E+03  0.90270844465E+03  0.00000000000E+00 0. -1.
          2    1    1    2  501    0 -0.43188573148E+02 -0.11715798609E+03 -0.78888580376E+01  0.12511387068E+03  0.00000000000E+00 0. -1.
          1    1    1    2  502    0  0.36281337369E+02  0.10379621001E+03 -0.69251782614E+03  0.70119250436E+03  0.00000000000E+00 0. -1.
         22    1    1    2    0    0 -0.73993757783E+01 -0.27034966774E+02  0.17451037361E+02  0.33017857219E+02  0.00000000000E+00 0. -1.
         22    1    1    2    0    0  0.14306611558E+02  0.40396742858E+02 -0.12807873382E+03  0.13505827640E+03  0.00000000000E+00 0. -1.
</event>
<event>
 6    1  0.1715574E-005  0.1220005E+03  0.7818608E-02  0.1247481E+00
          2   -1    0    0  502    0  0.00000000000E+00  0.00000000000E+00  0.30340336518E+03  0.30340336518E+03  0.00000000000E+00 0. -1.
          1   -1    0    0  501    0 -0.00000000000E+00 -0.00000000000E+00 -0.49180852778E+02  0.49180852778E+02  0.00000000000E+00 0. -1.
          2    1    1    2  501    0 -0.77549289522E+01 -0.36567427499E+02  0.30700332601E+01  0.37506543178E+02  0.00000000000E+00 0. -1.
          1    1    1    2  502    0  0.43103871717E+02  0.32294276485E+02  0.11131207059E+03  0.12365775798E+03  0.00000000000E+00 0. -1.
         22    1    1    2    0    0 -0.17751959990E+02 -0.59570190806E+02  0.49797666795E+02  0.79646389337E+02  0.00000000000E+00 0. -1.
         22    1    1    2    0    0 -0.17596982774E+02  0.63843341820E+02  0.90042741762E+02  0.11177352746E+03  0.00000000000E+00 0.  1.
</event>
<event>
 6    1  0.1715574E-005  0.9679382E+02  0.7818608E-02  0.1384314E+00
          2   -1    0    0  502    0  0.00000000000E+00  0.00000000000E+00  0.66064054575E+02  0.66064054575E+02  0.00000000000E+00 0.  1.
          1   -1    0    0  501    0 -0.00000000000E+00 -0.00000000000E+00 -0.68736971275E+03  0.68736971275E+03  0.00000000000E+00 0.  1.
          2    1    1    2  501    0 -0.20777991055E+02  0.91024929011E+01 -0.13257564192E+02  0.26274384819E+02  0.00000000000E+00 0.  1.
          1    1    1    2  502    0  0.14845010085E+02  0.97672098452E+02 -0.54553613469E+03  0.55440949432E+03  0.00000000000E+00 0.  1.
         22    1    1    2    0    0  0.52930507520E+01 -0.16944991258E+02  0.35565602335E+02  0.39749983452E+02  0.00000000000E+00 0.  1.
         22    1    1    2    0    0  0.63993021801E+00 -0.89829600096E+02 -0.98077561630E+02  0.13299990473E+03  0.00000000000E+00 0.  1.
</event>
<event>
 6    1  0.1715574E-005  0.1221815E+03  0.7818608E-02  0.1241128E+00
          2   -1    0    0  502    0  0.00000000000E+00  0.00000000000E+00  0.85673572750E+02  0.85673572750E+02  0.00000000000E+00 0. -1.
          1   -1    0    0  501    0 -0.00000000000E+00 -0.00000000000E+00 -0.55460894610E+03  0.55460894610E+03  0.00000000000E+00 0.  1.
          2    1    1    2  501    0  0.66011197473E+02 -0.58807089092E+02  0.40736148521E+02  0.97340565622E+02  0.00000000000E+00 0. -1.
          1    1    1    2  502    0 -0.12520152265E+02 -0.22772267781E+02 -0.93158233699E+02  0.96714977633E+02  0.00000000000E+00 0.  1.
         22    1    1    2    0    0  0.17647275450E+02  0.17265500450E+02 -0.70389352336E+01  0.25672367359E+02  0.00000000000E+00 0.  1.
         22    1    1    2    0    0 -0.71138320658E+02  0.64313856423E+02 -0.40947435294E+03  0.42055460824E+03  0.00000000000E+00 0.  1.
</event>
<event>
 6    1  0.1715574E-005  0.4690822E+02  0.7818608E-02  0.1563212E+00
          2   -1    0    0  502    0  0.00000000000E+00  0.00000000000E+00  0.33659709820E+03  0.33659709820E+03  0.00000000000E+00 0. -1.
          1   -1    0    0  501    0 -0.00000000000E+00 -0.00000000000E+00 -0.15431878282E+03  0.15431878282E+03  0.00000000000E+00 0. -1.
          2    1    1    2  501    0  0.41521202748E+02  0.20613872683E+02  0.29085228991E+03  0.29452333791E+03  0.00000000000E+00 0. -1.
          1    1    1    2  502    0 -0.18672589618E+02 -0.12680327505E+02 -0.48184909301E+02  0.53209414515E+02  0.00000000000E+00 0. -1.
         22    1    1    2    0    0 -0.13892089162E+02 -0.16021926861E+02 -0.99767826558E+02  0.10199662493E+03  0.00000000000E+00 0. -1.
         22    1    1    2    0    0 -0.89565239691E+01  0.80883816829E+01  0.39378761330E+02  0.41186503660E+02  0.00000000000E+00 0. -1.
</event>
<event>
 6    1  0.1715574E-005  0.1796877E+03  0.7818608E-02  0.1169027E+00
          2   -1    0    0  502    0  0.00000000000E+00  0.00000000000E+00  0.81991987635E+02  0.81991987635E+02  0.00000000000E+00 0.  1.
          1   -1    0    0  501    0 -0.00000000000E+00 -0.00000000000E+00 -0.38921448933E+03  0.38921448933E+03  0.00000000000E+00 0.  1.
          2    1    1    2  501    0 -0.17356797947E+02  0.20708901798E+02 -0.44404848802E+02  0.51979877316E+02  0.00000000000E+00 0.  1.
          1    1    1    2  502    0  0.86717684435E+02 -0.12115926239E+03 -0.90645687218E+02  0.17440230580E+03  0.00000000000E+00 0.  1.
         22    1    1    2    0    0 -0.89091478240E+02  0.11612104752E+03 -0.13031060810E+03  0.19596490439E+03  0.00000000000E+00 0.  1.
         22    1    1    2    0    0  0.19730591751E+02 -0.15670686921E+02 -0.41861357573E+02  0.48859389449E+02  0.00000000000E+00 0. -1.
</event>
<event>
 6    1  0.1715574E-005  0.3284610E+03  0.7818608E-02  0.1073998E+00
          2   -1    0    0  502    0  0.00000000000E+00  0.00000000000E+00  0.13305127748E+04  0.13305127748E+04  0.00000000000E+00 0. -1.
          1   -1    0    0  501    0 -0.00000000000E+00 -0.00000000000E+00 -0.16392097591E+03  0.16392097591E+03  0.00000000000E+00 0.  1.
          2    1    1    2  501    0 -0.93683853798E+02  0.28008907020E+03  0.10925023753E+04  0.11317190427E+04  0.00000000000E+00 0. -1.
          1    1    1    2  502    0  0.93379610506E+02 -0.10320185833E+03  0.29109871937E+02  0.14218916930E+03  0.00000000000E+00 0.  1.
         22    1    1    2    0    0  0.52096862239E+01 -0.18863766095E+03  0.16621813374E+02  0.18944020861E+03  0.00000000000E+00 0. -1.
         22    1    1    2    0    0 -0.49054429320E+01  0.11750449086E+02  0.28357738310E+02  0.31085330079E+02  0.00000000000E+00 0.  1.
</event>
<event>
 6    1  0.1715574E-005  0.1296255E+03  0.7818608E-02  0.1231203E+00
          2   -1    0    0  502    0  0.00000000000E+00  0.00000000000E+00  0.16276094032E+03  0.16276094032E+03  0.00000000000E+00 0.  1.
          1   -1    0    0  501    0 -0.00000000000E+00 -0.00000000000E+00 -0.49442828254E+03  0.49442828254E+03  0.00000000000E+00 0.  1.
          2    1    1    2  501    0  0.62487935000E+02  0.57482201487E+02  0.71431490724E+02  0.11095676354E+03  0.00000000000E+00 0.  1.
          1    1    1    2  502    0 -0.94213107584E+02 -0.55579261241E+02 -0.40217803322E+03  0.41678811683E+03  0.00000000000E+00 0.  1.
         22    1    1    2    0    0 -0.11472109137E+02  0.10586432813E+01 -0.57249480407E+02  0.58397200451E+02  0.00000000000E+00 0. -1.
         22    1    1    2    0    0  0.43197281720E+02 -0.29615835269E+01  0.56328680679E+02  0.71047142040E+02  0.00000000000E+00 0. -1.
</event>
<event>
 6    1  0.1715574E-005  0.9933642E+02  0.7818608E-02  0.1283428E+00
          2   -1    0    0  502    0  0.00000000000E+00  0.00000000000E+00  0.10202052802E+04  0.10202052802E+04  0.00000000000E+00 0. -1.
          1   -1    0    0  501    0 -0.00000000000E+00 -0.00000000000E+00 -0.29243407049E+02  0.29243407049E+02  0.00000000000E+00 0. -1.
          2    1    1    2  501    0  0.13879071768E+02  0.23514464987E+02  0.19367151434E+02  0.33476039960E+02  0.00000000000E+00 0. -1.
          1    1    1    2  502    0 -0.52786511998E+02 -0.41807542276E+02  0.78010803789E+03  0.78300883598E+03  0.00000000000E+00 0. -1.
         22    1    1    2    0    0  0.57348466527E+02  0.37891641494E+02  0.40884029343E+02  0.79975789858E+02  0.00000000000E+00 0. -1.
         22    1    1    2    0    0 -0.18441026298E+02 -0.19598564205E+02  0.15060265451E+03  0.15298802147E+03  0.00000000000E+00 0. -1.
</event>
<event>
 6    1  0.1715574E-005  0.7391165E+02  0.7818608E-02  0.1347339E+00
          2   -1    0    0  502    0  0.00000000000E+00  0.00000000000E+00  0.35160262340E+03  0.35160262340E+03  0.00000000000E+00 0. -1.
          1   -1    0    0  501    0 -0.00000000000E+00 -0.00000000000E+00 -0.98390927909E+02  0.98390927909E+02  0.00000000000E+00 0. -1.
          2    1    1    2  501    0  0.52568117493E+02 -0.21178816388E+02  0.25341701813E+03  0.25967698073E+03  0.00000000000E+00 0. -1.
          1    1    1    2  502    0 -0.39041808468E+02  0.17238417018E+02 -0.36572049484E+02  0.56204453856E+02  0.00000000000E+00 0. -1.
         22    1    1    2    0    0 -0.24059197542E+02  0.17576572779E+02 -0.43323462809E+02  0.52580446239E+02  0.00000000000E+00 0. -1.
         22    1    1    2    0    0  0.10532888517E+02 -0.13636173409E+02  0.79690189653E+02  0.81531670489E+02  0.00000000000E+00 0. -1.
</event>
<event>
 6    1  0.1715574E-005  0.7540388E+02  0.7818608E-02  0.1402007E+00
          2   -1    0    0  502    0  0.00000000000E+00  0.00000000000E+00  0.76015689514E+02  0.76015689514E+02  0.00000000000E+00 0. -1.
          1   -1    0    0  501    0 -0.00000000000E+00 -0.00000000000E+00 -0.28244081554E+03  0.28244081554E+03  0.00000000000E+00 0.  1.
          2    1    1    2  501    0  0.21092704011E+02  0.21840913452E+01  0.18494379061E+02  0.28137421246E+02  0.00000000000E+00 0. -1.
          1    1    1    2  502    0 -0.52951035252E+02 -0.42489293386E+02 -0.17836836605E+03  0.19085184357E+03  0.00000000000E+00 0.  1.
         22    1    1    2    0    0 -0.19210511436E+02  0.20773804565E+02 -0.73319651844E+02  0.78589859729E+02  0.00000000000E+00 0.  1.
         22    1    1    2    0    0  0.51068842677E+02  0.19531397476E+02  0.26768512808E+02  0.60877380509E+02  0.00000000000E+00 0. -1.
</event>
<event>
 6    1  0.1715574E-005  0.4209012E+02  0.7818608E-02  0.1529313E+00
          2   -1    0    0  502    0  0.00000000000E+00  0.00000000000E+00  0.23947482651E+03  0.23947482651E+03  0.00000000000E+00 0.  1.
          1   -1    0    0  501    0 -0.00000000000E+00 -0.00000000000E+00 -0.17062025188E+03  0.17062025188E+03  0.00000000000E+00 0.  1.
          2    1    1    2  501    0 -0.20933093648E+02 -0.35161745747E+02  0.97753404637E+02  0.10597297246E+03  0.00000000000E+00 0.  1.
          1    1    1    2  502    0  0.56648786942E+01 -0.32458067896E+02 -0.12752942277E+03  0.13171700989E+03  0.00000000000E+00 0.  1.
         22    1    1    2    0    0  0.12577452207E+02  0.41881823898E+02  0.12681460205E+03  0.13414254646E+03  0.00000000000E+00 0.  1.
         22    1    1    2    0    0  0.26907627461E+01  0.25737989745E+02 -0.28184009298E+02  0.38262549580E+02  0.00000000000E+00 0.  1.
</event>
<event>
 6    1  0.1715574E-005  0.8546901E+02  0.7818608E-02  0.1317736E+00
          2   -1    0    0  502    0  0.00000000000E+00  0.00000000000E+00  0.13877358467E+03  0.13877358467E+03  0.00000000000E+00 0. -1.
          1   -1    0    0  501    0 -0.00000000000E+00 -0.00000000000E+00 -0.29086513645E+03  0.29086513645E+03  0.00000000000E+00 0.  1.
          2    1    1    2  501    0 -0.28543183805E+01  0.58053791683E+02  0.67330190001E+02  0.88947986755E+02  0.00000000000E+00 0. -1.
          1    1    1    2  502    0 -0.50768281518E+01 -0.63177868118E+02 -0.20590348453E+03  0.21543783824E+03  0.00000000000E+00 0.  1.
         22    1    1    2    0    0 -0.80428888548E+01 -0.14533922274E+02 -0.65422180846E+02  0.67498034819E+02  0.00000000000E+00 0.  1.
         22    1    1    2    0    0  0.15974035387E+02  0.19657998709E+02  0.51903923595E+02  0.57754861305E+02  0.00000000000E+00 0. -1.
</event>
<event>
 6    1  0.1715574E-005  0.5267073E+02  0.7818608E-02  0.1549788E+00
          2   -1    0    0  502    0  0.00000000000E+00  0.00000000000E+00  0.55735169020E+02  0.55735169020E+02  0.00000000000E+00 0.  1.
          1   -1    0    0  501    0 -0.00000000000E+00 -0.00000000000E+00 -0.31013162629E+03  0.31013162629E+03  0.00000000000E+00 0.  1.
          2    1    1    2  501    0 -0.12180912653E+02  0.40436202082E+02  0.20209655004E+02  0.46817637993E+02  0.00000000000E+00 0.  1.
          1    1    1    2  502    0  0.22020037024E+01 -0.21719471444E+02 -0.10705014128E+03  0.10925345308E+03  0.00000000000E+00 0.  1.
         22    1    1    2    0    0  0.16124240015E+02 -0.26749946172E+02 -0.18608386591E+03  0.18868692559E+03  0.00000000000E+00 0.  1.
         22    1    1    2    0    0 -0.61453310650E+01  0.80332155337E+01  0.18527894924E+02  0.21108778648E+02  0.00000000000E+00 0. -1.
</event>
<event>
 6    1  0.1715574E-005  0.4508181E+02  0.7818608E-02  0.1582545E+00
          2   -1    0    0  502    0  0.00000000000E+00  0.00000000000E+00  0.18981128727E+02  0.18981128727E+02  0.00000000000E+00 0. -1.
          1   -1    0    0  501    0 -0.00000000000E+00 -0.00000000000E+00 -0.85836591975E+03  0.85836591975E+03  0.00000000000E+00 0.  1.
          2    1    1    2  501    0 -0.15454568909E+02  0.17645889202E+02 -0.15557251049E+02  0.28146921077E+02  0.00000000000E+00 0. -1.
          1    1    1    2  502    0 -0.65039614000E+01  0.38265078344E+02 -0.45202041269E+03  0.45368377888E+03  0.00000000000E+00 0.  1.
         22    1    1    2    0    0  0.24651389154E+02 -0.66249982282E+02 -0.37704749250E+03  0.38361642658E+03  0.00000000000E+00 0.  1.
         22    1    1    2    0    0 -0.26928588446E+01  0.10339014735E+02  0.52403652185E+01  0.11899921936E+02  0.00000000000E+00 0. -1.
</event>
<event>
 6    1  0.1715574E-005  0.7651501E+02  0.7818608E-02  0.1340143E+00
          2   -1    0    0  502    0  0.00000000000E+00  0.00000000000E+00  0.15587147457E+03  0.15587147457E+03  0.00000000000E+00 0. -1.
          1   -1    0    0  501    0 -0.00000000000E+00 -0.00000000000E+00 -0.26416983238E+03  0.26416983238E+03  0.00000000000E+00 0.  1.
          2    1    1    2  501    0 -0.15678195458E+02  0.50695467424E+02  0.10420043240E+03  0.11693402560E+03  0.00000000000E+00 0. -1.
          1    1    1    2  502    0  0.58430232691E+01 -0.39476395070E+02 -0.16233145094E+03  0.16716466928E+03  0.00000000000E+00 0.  1.
         22    1    1    2    0    0  0.63344192375E+01  0.22263561918E+02  0.36356758332E+02  0.43099941215E+02  0.00000000000E+00 0. -1.
         22    1    1    2    0    0  0.35007529510E+01 -0.33482634272E+02 -0.86524097592E+02  0.92842670864E+02  0.00000000000E+00 0.  1.
</event>
<event>
 6    1  0.1715574E-005  0.1053885E+03  0.7818608E-02  0.1289226E+00
          2   -1    0    0  502    0  0.00000000000E+00  0.00000000000E+00  0.46950048415E+02  0.46950048415E+02  0.00000000000E+00 0. -1.
          1   -1    0    0  501    0 -0.00000000000E+00 -0.00000000000E+00 -0.22662386840E+03  0.22662386840E+03  0.00000000000E+00 0. -1.
          2    1    1    2  501    0 -0.93433726087E+01 -0.29946719117E+02 -0.15292225504E+02  0.34899237218E+02  0.00000000000E+00 0. -1.
          1    1    1    2  502    0  0.39952073574E+02 -0.27147314914E+01 -0.63737567224E+02  0.75272939530E+02  0.00000000000E+00 0. -1.
         22    1    1    2    0    0 -0.19448718734E+02 -0.31713966421E+02  0.66384336479E+01  0.37790172371E+02  0.00000000000E+00 0. -1.
         22    1    1    2    0    0 -0.11159982231E+02  0.64375417029E+02 -0.10728246091E+03  0.12561156770E+03  0.00000000000E+00 0. -1.
</event>
<event>
 6    1  0.1715574E-005  0.6262624E+02  0.7818608E-02  0.1403795E+00
          2   -1    0    0  502    0  0.00000000000E+00  0.00000000000E+00  0.57137577122E+03  0.57137577122E+03  0.00000000000E+00 0. -1.
          1   -1    0    0  501    0 -0.00000000000E+00 -0.00000000000E+00 -0.71142319866E+02  0.71142319866E+02  0.00000000000E+00 0. -1.
          2    1    1    2  501    0  0.10411436684E+02  0.21915726569E+02  0.45738404476E+03  0.45802714055E+03  0.00000000000E+00 0. -1.
          1    1    1    2  502    0 -0.19259298825E+02 -0.14141635555E+02 -0.31826576235E+02  0.39797454721E+02  0.00000000000E+00 0. -1.
         22    1    1    2    0    0 -0.11689779346E+02 -0.21063319269E+02 -0.29269704162E+02  0.37908177766E+02  0.00000000000E+00 0. -1.
         22    1    1    2    0    0  0.20537641487E+02  0.13289228255E+02  0.10394568699E+03  0.10678531804E+03  0.00000000000E+00 0. -1.
</event>
<event>
 6    1  0.1715574E-005  0.6145252E+02  0.7818608E-02  0.1398800E+00
          2   -1    0    0  502    0  0.00000000000E+00  0.00000000000E+00  0.26427127213E+03  0.26427127213E+03  0.00000000000E+00 0.  1.
          1   -1    0    0  501    0 -0.00000000000E+00 -0.00000000000E+00 -0.86896818246E+02  0.86896818246E+02  0.00000000000E+00 0.  1.
          2    1    1    2  501    0  0.31367369164E+01 -0.40351806553E+02  0.20180742245E+03  0.20582600216E+03  0.00000000000E+00 0.  1.
          1    1    1    2  502    0 -0.34265523625E+00  0.20224190952E+02 -0.58246967563E+01  0.21049047593E+02  0.00000000000E+00 0.  1.
         22    1    1    2    0    0  0.49535733297E+01  0.31644243356E+02 -0.66832371076E+02  0.74111145248E+02  0.00000000000E+00 0.  1.
         22    1    1    2    0    0 -0.77476550098E+01 -0.11516627755E+02  0.48224099275E+02  0.50181895379E+02  0.00000000000E+00 0. -1.
</event>
<event>
 6    1  0.1715574E-005  0.2054612E+03  0.7818608E-02  0.1150595E+00
          2   -1    0    0  502    0  0.00000000000E+00  0.00000000000E+00  0.25841765080E+03  0.25841765080E+03  0.00000000000E+00 0. -1.
          1   -1    0    0  501    0 -0.00000000000E+00 -0.00000000000E+00 -0.15054917935E+03  0.15054917935E+03  0.00000000000E+00 0. -1.
          2    1    1    2  501    0  0.60068420720E+01  0.15589063026E+03  0.11088834571E+01  0.15601025728E+03  0.00000000000E+00 0. -1.
          1    1    1    2  502    0  0.32691879024E+02 -0.19302416516E+02  0.37845463258E+02  0.53606168737E+02  0.00000000000E+00 0. -1.
         22    1    1    2    0    0 -0.34004824450E+02 -0.15979428671E+03  0.60923700738E+02  0.17436237972E+03  0.00000000000E+00 0. -1.
         22    1    1    2    0    0 -0.46938966458E+01  0.23206072960E+02  0.79904239993E+01  0.24988024405E+02  0.00000000000E+00 0. -1.
</event>
<event>
 6    1  0.1715574E-005  0.2508444E+03  0.7818608E-02  0.1113299E+00
          2   -1    0    0  502    0  0.00000000000E+00  0.00000000000E+00  0.41947735334E+03  0.41947735334E+03  0.00000000000E+00 0.  1.
          1   -1    0    0  501    0 -0.00000000000E+00 -0.00000000000E+00 -0.15569558173E+03  0.15569558173E+03  0.00000000000E+00 0.  1.
          2    1    1    2  501    0  0.43521724703E+01 -0.22826451436E+02  0.11135545415E+02  0.25767977453E+02  0.00000000000E+00 0.  1.
          1    1    1    2  502    0 -0.16076166047E+03  0.16756784684E+03  0.69902754069E+02  0.24250709227E+03  0.00000000000E+00 0.  1.
         22    1    1    2    0    0 -0.10948340270E+02  0.82557400376E+01 -0.26948132515E+01  0.13974455864E+02  0.00000000000E+00 0.  1.
         22    1    1    2    0    0  0.16735782827E+03 -0.15299713544E+03  0.18543828538E+03  0.29292340948E+03  0.00000000000E+00 0.  1.
</event>
<event>
 6    1  0.1715574E-005  0.1127104E+03  0.7818608E-02  0.1388569E+00
          2   -1    0    0  502    0  0.00000000000E+00  0.00000000000E+00  0.36663476062E+03  0.36663476062E+03  0.00000000000E+00 0.  1.
          1   -1    0    0  501    0 -0.00000000000E+00 -0.00000000000E+00 -0.30781434477E+03  0.30781434477E+03  0.00000000000E+00 0. -1.
          2    1    1    2  501    0 -0.77709548860E+02  0.19270355186E+02  0.28593485902E+03  0.29693242358E+03  0.00000000000E+00 0.  1.
          1    1    1    2  502    0  0.10239389876E+03 -0.23825289489E+02 -0.22430318173E+03  0.24771772697E+03  0.00000000000E+00 0. -1.
         22    1    1    2    0    0 -0.25556517594E+02  0.15015398390E+02  0.59571938183E+02  0.66538812728E+02  0.00000000000E+00 0.  1.
         22    1    1    2    0    0  0.87216769771E+00 -0.10460464087E+02 -0.62383199625E+02  0.63260142118E+02  0.00000000000E+00 0. -1.
</event>
<event>
 6    1  0.1715574E-005  0.1190805E+03  0.7818608E-02  0.1244638E+00
          2   -1    0    0  502    0  0.00000000000E+00  0.00000000000E+00  0.30017845766E+03  0.30017845766E+03  0.00000000000E+00 0.  1.
          1   -1    0    0  501    0 -0.00000000000E+00 -0.00000000000E+00 -0.33238389370E+03  0.33238389370E+03  0.00000000000E+00 0.  1.
          2    1    1    2  501    0 -0.26426878971E+02 -0.10361788853E+03  0.26242079578E+03  0.28337205369E+03  0.00000000000E+00 0.  1.
          1    1    1    2  502    0  0.87496952210E+01  0.27386006586E+02 -0.10865239252E+03  0.11239169419E+03  0.00000000000E+00 0.  1.
         22    1    1    2    0    0 -0.71140732744E+01 -0.80438998043E+01  0.14429626144E+02  0.17986897267E+02  0.00000000000E+00 0. -1.
         22    1    1    2    0    0  0.24791257024E+02  0.84275781744E+02 -0.20040346544E+03  0.21881170621E+03  0.00000000000E+00 0.  1.
</event>
<event>
 6    1  0.1715574E-005  0.9388690E+02  0.7818608E-02  0.1294145E+00
          2   -1    0    0  502    0  0.00000000000E+00  0.00000000000E+00  0.26633291538E+02  0.26633291538E+02  0.00000000000E+00 0.  1.
          1   -1    0    0  501    0 -0.00000000000E+00 -0.00000000000E+00 -0.70298778839E+03  0.70298778839E+03  0.00000000000E+00 0. -1.
          2    1    1    2  501    0  0.69734485452E+02 -0.12297015921E+02 -0.65852515478E+02  0.96698856542E+02  0.00000000000E+00 0.  1.
          1    1    1    2  502    0 -0.24600252808E+02  0.62127593066E+00 -0.22375505864E+03  0.22510416409E+03  0.00000000000E+00 0. -1.
         22    1    1    2    0    0  0.20770730657E+02  0.21673655452E+01 -0.66266551590E+01  0.21909661887E+02  0.00000000000E+00 0. -1.
         22    1    1    2    0    0 -0.65904963301E+02  0.95083744451E+01 -0.38012026757E+03  0.38590839741E+03  0.00000000000E+00 0. -1.
</event>
<event>
 6    1  0.1715574E-005  0.8389262E+02  0.7818608E-02  0.1325589E+00
          2   -1    0    0  502    0  0.00000000000E+00  0.00000000000E+00  0.16164008484E+03  0.16164008484E+03  0.00000000000E+00 0. -1.
          1   -1    0    0  501    0 -0.00000000000E+00 -0.00000000000E+00 -0.71230946220E+02  0.71230946220E+02  0.00000000000E+00 0.  1.
          2    1    1    2  501    0  0.32906274014E+02  0.71056265062E+01  0.26257446072E+02  0.42693866911E+02  0.00000000000E+00 0. -1.
          1    1    1    2  502    0 -0.32621640503E+02 -0.66491773002E+00 -0.19993205029E+02  0.38266719118E+02  0.00000000000E+00 0.  1.
         22    1    1    2    0    0 -0.37911697673E+02  0.14834268474E+02 -0.15289567075E+02  0.43487046381E+02  0.00000000000E+00 0. -1.
         22    1    1    2    0    0  0.37627064162E+02 -0.21274977250E+02  0.99434464647E+02  0.10842339865E+03  0.00000000000E+00 0. -1.
</event>
<event>
 6    1  0.1715574E-005  0.4561091E+02  0.7818608E-02  0.1472117E+00
          2   -1    0    0  502    0  0.00000000000E+00  0.00000000000E+00  0.10126642011E+03  0.10126642011E+03  0.00000000000E+00 0.  1.
          1   -1    0    0  501    0 -0.00000000000E+00 -0.00000000000E+00 -0.23496360363E+03  0.23496360363E+03  0.00000000000E+00 0.  1.
          2    1    1    2  501    0  0.10308983538E+02 -0.29258386108E+02  0.50825171320E+02  0.59544322475E+02  0.00000000000E+00 0.  1.
          1    1    1    2  502    0 -0.55292586814E+01  0.26304871201E+02 -0.14242800239E+03  0.14494224648E+03  0.00000000000E+00 0.  1.
         22    1    1    2    0    0 -0.11254949832E+02  0.13637618514E+02 -0.85121826773E+02  0.86938966681E+02  0.00000000000E+00 0. -1.
         22    1    1    2    0    0  0.64752249751E+01 -0.10684103606E+02  0.43027474318E+02  0.44804488107E+02  0.00000000000E+00 0.  1.
</event>
<event>
 6    1  0.1715574E-005  0.1167948E+03  0.7818608E-02  0.1250426E+00
          2   -1    0    0  502    0  0.00000000000E+00  0.00000000000E+00  0.26442315402E+03  0.26442315402E+03  0.00000000000E+00 0. -1.
          1   -1    0    0  501    0 -0.00000000000E+00 -0.00000000000E+00 -0.19291785224E+03  0.19291785224E+03  0.00000000000E+00 0.  1.
          2    1    1    2  501    0 -0.19625697036E+02 -0.49133747258E+02  0.13346324308E+03  0.14356785977E+03  0.00000000000E+00 0. -1.
          1    1    1    2  502    0  0.51883692683E+02  0.78011780582E+02 -0.13616060095E+03  0.16527995863E+03  0.00000000000E+00 0.  1.
         22    1    1    2    0    0 -0.48473973414E+02 -0.38040310548E+02  0.99526871409E+02  0.11705720592E+03  0.00000000000E+00 0. -1.
         22    1    1    2    0    0  0.16215977766E+02  0.91622772235E+01 -0.25324211763E+02  0.31435981935E+02  0.00000000000E+00 0.  1.
</event>
<event>
 6    1  0.1715574E-005  0.3577212E+02  0.7818608E-02  0.1585248E+00
          2   -1    0    0  502    0  0.00000000000E+00  0.00000000000E+00  0.10965097349E+03  0.10965097349E+03  0.00000000000E+00 0. -1.
          1   -1    0    0  501    0 -0.00000000000E+00 -0.00000000000E+00 -0.95373991960E+02  0.95373991960E+02  0.00000000000E+00 0.  1.
          2    1    1    2  501    0 -0.30002758142E+01  0.23175008754E+02  0.22445415227E+02  0.32401841775E+02  0.00000000000E+00 0. -1.
          1    1    1    2  502    0  0.14893627731E+02 -0.16554996588E+02 -0.39042597010E+02  0.44946773414E+02  0.00000000000E+00 0.  1.
         22    1    1    2    0    0  0.82351758767E+01 -0.11390645691E+02 -0.45983384679E+02  0.48083641683E+02  0.00000000000E+00 0.  1.
         22    1    1    2    0    0 -0.20128527794E+02  0.47706335251E+01  0.76857547994E+02  0.79592708580E+02  0.00000000000E+00 0. -1.
</event>
<event>
 6    1  0.1715574E-005  0.1654551E+03  0.7818608E-02  0.1183703E+00
          2   -1    0    0  502    0  0.00000000000E+00  0.00000000000E+00  0.32792177400E+03  0.32792177400E+03  0.00000000000E+00 0. -1.
          1   -1    0    0  501    0 -0.00000000000E+00 -0.00000000000E+00 -0.10761883261E+03  0.10761883261E+03  0.00000000000E+00 0. -1.
          2    1    1    2  501    0  0.57745432832E+02 -0.51908107777E+01  0.84137874272E+02  0.10217955479E+03  0.00000000000E+00 0. -1.
          1    1    1    2  502    0 -0.13012775528E+03  0.46978554819E+02  0.13378693769E+02  0.13899354932E+03  0.00000000000E+00 0. -1.
         22    1    1    2    0    0  0.80321903207E+02 -0.65286573733E+02  0.13214413538E+03  0.16785713378E+03  0.00000000000E+00 0.  1.
         22    1    1    2    0    0 -0.79395807605E+01  0.23498829692E+02 -0.93577620297E+01  0.26510368721E+02  0.00000000000E+00 0. -1.
</event>
<event>
 6    1  0.1715574E-005  0.4636237E+03  0.7818608E-02  0.1024362E+00
          2   -1    0    0  502    0  0.00000000000E+00  0.00000000000E+00  0.66992155490E+03  0.66992155490E+03  0.00000000000E+00 0. -1.
          1   -1    0    0  501    0 -0.00000000000E+00 -0.00000000000E+00 -0.33169705153E+03  0.33169705153E+03  0.00000000000E+00 0. -1.
          2    1    1    2  501    0 -0.41096610500E+03 -0.14197868287E+03  0.57829002860E+02  0.43862886296E+03  0.00000000000E+00 0. -1.
          1    1    1    2  502    0  0.22998628115E+03  0.10982976676E+03  0.20938708150E+03  0.32984726327E+03  0.00000000000E+00 0. -1.
         22    1    1    2    0    0  0.19879198417E+03  0.24354467166E+02  0.73916863656E+02  0.21348324471E+03  0.00000000000E+00 0.  1.
         22    1    1    2    0    0 -0.17812160320E+02  0.77944489440E+01 -0.29084446460E+01  0.19659235485E+02  0.00000000000E+00 0. -1.
</event>
<event>
 6    1  0.1715574E-005  0.7791024E+02  0.7818608E-02  0.1390649E+00
          2   -1    0    0  502    0  0.00000000000E+00  0.00000000000E+00  0.62759757994E+02  0.62759757994E+02  0.00000000000E+00 0. -1.
          1   -1    0    0  501    0 -0.00000000000E+00 -0.00000000000E+00 -0.55140361792E+03  0.55140361792E+03  0.00000000000E+00 0.  1.
          2    1    1    2  501    0  0.52530987718E+02  0.83581640100E+02 -0.47748350265E+02  0.10965992972E+03  0.00000000000E+00 0. -1.
          1    1    1    2  502    0 -0.28120933832E+02 -0.11365039288E+03 -0.21800398930E+03  0.24745290071E+03  0.00000000000E+00 0.  1.
         22    1    1    2    0    0 -0.43063809652E+02  0.44695972393E+02 -0.22485573590E+03  0.23326449283E+03  0.00000000000E+00 0.  1.
         22    1    1    2    0    0  0.18653755766E+02 -0.14627219615E+02  0.19642155413E+01  0.23786052647E+02  0.00000000000E+00 0. -1.
</event>
<event>
 6    1  0.1715574E-005  0.3220527E+02  0.7818608E-02  0.1625901E+00
          2   -1    0    0  502    0  0.00000000000E+00  0.00000000000E+00  0.10274813865E+03  0.10274813865E+03  0.00000000000E+00 0.  1.
          1   -1    0    0  501    0 -0.00000000000E+00 -0.00000000000E+00 -0.84684569401E+03  0.84684569401E+03  0.00000000000E+00 0.  1.
          2    1    1    2  501    0  0.33982624323E+02  0.89495476398E+01  0.36264634803E+02  0.50497890017E+02  0.00000000000E+00 0.  1.
          1    1    1    2  502    0 -0.40240973795E+02  0.31920585205E+00 -0.77669654396E+03  0.77773836170E+03  0.00000000000E+00 0.  1.
         22    1    1    2    0    0  0.17192823186E+02 -0.11234938475E+02  0.56529991949E+02  0.60145299080E+02  0.00000000000E+00 0.  1.
         22    1    1    2    0    0 -0.10934473713E+02  0.19661849836E+01 -0.60195638147E+02  0.61212281862E+02  0.00000000000E+00 0.  1.
</event>
<event>
 6    1  0.1715574E-005  0.1021464E+03  0.7818608E-02  0.1285865E+00
          2   -1    0    0  502    0  0.00000000000E+00  0.00000000000E+00  0.33725292499E+02  0.33725292499E+02  0.00000000000E+00 0.  1.
          1   -1    0    0  501    0 -0.00000000000E+00 -0.00000000000E+00 -0.44130818223E+03  0.44130818223E+03  0.00000000000E+00 0.  1.
          2    1    1    2  501    0  0.18882702607E+02  0.46119109351E+02 -0.15733139438E+02  0.52259548234E+02  0.00000000000E+00 0.  1.
          1    1    1    2  502    0 -0.23221565130E+02 -0.20617160904E+02 -0.47221613083E+02  0.56517158041E+02  0.00000000000E+00 0.  1.
         22    1    1    2    0    0 -0.15101216981E+02 -0.52531349644E+02 -0.32052896670E+03  0.32515597479E+03  0.00000000000E+00 0.  1.
         22    1    1    2    0    0  0.19440079504E+02  0.27029401197E+02 -0.24099170507E+02  0.41100793658E+02  0.00000000000E+00 0.  1.
</event>
<event>
 6    1  0.1715574E-005  0.1240357E+03  0.7818608E-02  0.1260419E+00
          2   -1    0    0  502    0  0.00000000000E+00  0.00000000000E+00  0.20699014865E+02  0.20699014865E+02  0.00000000000E+00 0. -1.
          1   -1    0    0  501    0 -0.00000000000E+00 -0.00000000000E+00 -0.56353593542E+03  0.56353593542E+03  0.00000000000E+00 0. -1.
          2    1    1    2  501    0  0.12211770622E+02 -0.37342369337E+02 -0.57504759826E+02  0.69644650133E+02  0.00000000000E+00 0. -1.
          1    1    1    2  502    0 -0.39338869297E+02  0.54627696564E+01 -0.89448304274E+02  0.97869237390E+02  0.00000000000E+00 0. -1.
         22    1    1    2    0    0  0.55947695630E+02  0.56124932262E+02 -0.34146594707E+03  0.35054121823E+03  0.00000000000E+00 0. -1.
         22    1    1    2    0    0 -0.28820596955E+02 -0.24245332582E+02 -0.54417909381E+02  0.66179844532E+02  0.00000000000E+00 0. -1.
</event>
<event>
 6    1  0.1715574E-005  0.3625558E+02  0.7818608E-02  0.1599427E+00
          2   -1    0    0  502    0  0.00000000000E+00  0.00000000000E+00  0.12816209162E+03  0.12816209162E+03  0.00000000000E+00 0.  1.
          1   -1    0    0  501    0 -0.00000000000E+00 -0.00000000000E+00 -0.97286586668E+02  0.97286586668E+02  0.00000000000E+00 0.  1.
          2    1    1    2  501    0 -0.98601756228E+01 -0.17868628760E+02  0.54368564467E+02  0.58072814287E+02  0.00000000000E+00 0.  1.
          1    1    1    2  502    0  0.22036096568E+02  0.24054852894E+02 -0.23629599504E+02  0.40281304255E+02  0.00000000000E+00 0.  1.
         22    1    1    2    0    0 -0.13844806238E+02  0.93824809588E+01 -0.61379409518E+02  0.63617148014E+02  0.00000000000E+00 0.  1.
         22    1    1    2    0    0  0.16688852921E+01 -0.15568705093E+02  0.61515949505E+02  0.63477411730E+02  0.00000000000E+00 0.  1.
</event>
<event>
 6    1  0.1715574E-005  0.1149124E+03  0.7818608E-02  0.1283823E+00
          2   -1    0    0  502    0  0.00000000000E+00  0.00000000000E+00  0.22181821725E+03  0.22181821725E+03  0.00000000000E+00 0. -1.
          1   -1    0    0  501    0 -0.00000000000E+00 -0.00000000000E+00 -0.40025890223E+03  0.40025890223E+03  0.00000000000E+00 0. -1.
          2    1    1    2  501    0  0.28324129870E+02  0.42018790382E+02  0.17154480682E+03  0.17887273639E+03  0.00000000000E+00 0. -1.
          1    1    1    2  502    0  0.19547851918E+02 -0.35728004933E+02 -0.30107569343E+03  0.30381767892E+03  0.00000000000E+00 0. -1.
         22    1    1    2    0    0  0.13938684496E+00  0.10961803321E+02  0.37483942367E+02  0.39054148257E+02  0.00000000000E+00 0. -1.
         22    1    1    2    0    0 -0.48011368633E+02 -0.17252588770E+02 -0.86393740734E+02  0.10033255591E+03  0.00000000000E+00 0.  1.
</event>
<event>
 6    1  0.1715574E-005  0.1229643E+03  0.7818608E-02  0.1239281E+00
          2   -1    0    0  502    0  0.00000000000E+00  0.00000000000E+00  0.84220873701E+02  0.84220873701E+02  0.00000000000E+00 0.  1.
          1   -1    0    0  501    0 -0.00000000000E+00 -0.00000000000E+00 -0.58698725899E+03  0.58698725899E+03  0.00000000000E+00 0. -1.
          2    1    1    2  501    0 -0.68707651014E+02 -0.57986607561E+02  0.31431035005E+02  0.95242311636E+02  0.00000000000E+00 0.  1.
          1    1    1    2  502    0  0.41562804361E+02  0.45404646332E+02 -0.32842422577E+03  0.33414296444E+03  0.00000000000E+00 0. -1.
         22    1    1    2    0    0 -0.27424375054E+02 -0.93050153785E+01 -0.12178878055E+01  0.28985563803E+02  0.00000000000E+00 0. -1.
         22    1    1    2    0    0  0.54569221707E+02  0.21886976607E+02 -0.20455530672E+03  0.21283729281E+03  0.00000000000E+00 0.  1.
</event>
<event>
 6    1  0.1715574E-005  0.6220479E+02  0.7818608E-02  0.1402101E+00
          2   -1    0    0  502    0  0.00000000000E+00  0.00000000000E+00  0.12713398150E+03  0.12713398150E+03  0.00000000000E+00 0. -1.
          1   -1    0    0  501    0 -0.00000000000E+00 -0.00000000000E+00 -0.68510338007E+02  0.68510338007E+02  0.00000000000E+00 0.  1.
          2    1    1    2  501    0 -0.25928013208E+02  0.36655205271E+01  0.25439563811E+02  0.36508482802E+02  0.00000000000E+00 0. -1.
          1    1    1    2  502    0  0.20893067038E+02  0.86741820176E+01 -0.86031146453E+01  0.24202794581E+02  0.00000000000E+00 0.  1.
         22    1    1    2    0    0 -0.82738585554E+01 -0.29618417450E+02  0.82885310443E+02  0.88406346350E+02  0.00000000000E+00 0. -1.
         22    1    1    2    0    0  0.13308804725E+02  0.17278714905E+02 -0.41098116112E+02  0.46526695778E+02  0.00000000000E+00 0.  1.
</event>
<event>
 6    1  0.1715574E-005  0.1068034E+03  0.7818608E-02  0.1299657E+00
          2   -1    0    0  502    0  0.00000000000E+00  0.00000000000E+00  0.15240885706E+03  0.15240885706E+03  0.00000000000E+00 0. -1.
          1   -1    0    0  501    0 -0.00000000000E+00 -0.00000000000E+00 -0.49729406818E+03  0.49729406818E+03  0.00000000000E+00 0.  1.
          2    1    1    2  501    0 -0.10794583043E+03  0.99654861941E+01  0.94731516562E+02  0.14396413947E+03  0.00000000000E+00 0. -1.
          1    1    1    2  502    0  0.49707897547E+02 -0.50761492160E+02 -0.28990945980E+03  0.29848802162E+03  0.00000000000E+00 0.  1.
         22    1    1    2    0    0  0.34542123970E+02 -0.11171045059E+02 -0.14552324642E+03  0.14998321847E+03  0.00000000000E+00 0.  1.
         22    1    1    2    0    0  0.23695808917E+02  0.51967051025E+02 -0.41840214668E+01  0.57267545679E+02  0.00000000000E+00 0.  1.
</event>
<event>
 6    1  0.1715574E-005  0.6151268E+02  0.7818608E-02  0.1482806E+00
          2   -1    0    0  502    0  0.00000000000E+00  0.00000000000E+00  0.94953316360E+03  0.94953316360E+03  0.00000000000E+00 0.  1.
          1   -1    0    0  501    0 -0.00000000000E+00 -0.00000000000E+00 -0.14519376300E+03  0.14519376300E+03  0.00000000000E+00 0.  1.
          2    1    1    2  501    0 -0.37309095550E+02  0.35118920542E+02  0.88798733032E+03  0.88946433655E+03  0.00000000000E+00 0.  1.
          1    1    1    2  502    0  0.23805103547E+02 -0.26404091383E+02 -0.67716850325E+02  0.76481571732E+02  0.00000000000E+00 0.  1.
         22    1    1    2    0    0  0.46768350313E+01  0.14912391528E+02  0.53065376805E+02  0.55318951747E+02  0.00000000000E+00 0. -1.
         22    1    1    2    0    0  0.88271569722E+01 -0.23627220687E+02 -0.68996456194E+02  0.73462066572E+02  0.00000000000E+00 0.  1.
</event>
<event>
 6    1  0.1715574E-005  0.1299649E+03  0.7818608E-02  0.1262070E+00
          2   -1    0    0  502    0  0.00000000000E+00  0.00000000000E+00  0.25074844720E+02  0.25074844720E+02  0.00000000000E+00 0.  1.
          1   -1    0    0  501    0 -0.00000000000E+00 -0.00000000000E+00 -0.56179426979E+03  0.56179426979E+03  0.00000000000E+00 0.  1.
          2    1    1    2  501    0  0.27402894995E+02  0.31592048121E+02 -0.34377521589E+02  0.54136772615E+02  0.00000000000E+00 0.  1.
          1    1    1    2  502    0 -0.19466983407E+02  0.24393204044E+02 -0.40431796173E+02  0.51075649661E+02  0.00000000000E+00 0.  1.
         22    1    1    2    0    0  0.34851366151E+01 -0.75416355401E+02 -0.44975787703E+03  0.45605034897E+03  0.00000000000E+00 0.  1.
         22    1    1    2    0    0 -0.11421048204E+02  0.19431103237E+02 -0.12152230281E+02  0.25606343274E+02  0.00000000000E+00 0.  1.
</event>
<event>
 6    1  0.1715574E-005  0.7513773E+02  0.7818608E-02  0.1343969E+00
          2   -1    0    0  502    0  0.00000000000E+00  0.00000000000E+00  0.56298590097E+03  0.56298590097E+03  0.00000000000E+00 0.  1.
          1   -1    0    0  501    0 -0.00000000000E+00 -0.00000000000E+00 -0.12974575705E+03  0.12974575705E+03  0.00000000000E+00 0. -1.
          2    1    1    2  501    0  0.48491089470E+02  0.26947733104E+02  0.44987625833E+03  0.45328381163E+03  0.00000000000E+00 0.  1.
          1    1    1    2  502    0 -0.51038669953E+02 -0.24225348587E+02 -0.78478647838E+02  0.96699077096E+02  0.00000000000E+00 0. -1.
         22    1    1    2    0    0  0.18177645785E+02  0.35212210517E+01  0.99654536070E+02  0.10136001363E+03  0.00000000000E+00 0. -1.
         22    1    1    2    0    0 -0.15630065301E+02 -0.62436055685E+01 -0.37812002638E+02  0.41388755663E+02  0.00000000000E+00 0.  1.
</event>
<event>
 6    1  0.1715574E-005  0.1210393E+03  0.7818608E-02  0.1279791E+00
          2   -1    0    0  502    0  0.00000000000E+00  0.00000000000E+00  0.20696192486E+03  0.20696192486E+03  0.00000000000E+00 0. -1.
          1   -1    0    0  501    0 -0.00000000000E+00 -0.00000000000E+00 -0.41078633466E+03  0.41078633466E+03  0.00000000000E+00 0. -1.
          2    1    1    2  501    0  0.18475178728E+02 -0.95759116947E+02  0.12069027675E+03  0.15516856515E+03  0.00000000000E+00 0. -1.
          1    1    1    2  502    0 -0.73387464132E+02  0.87006651485E+02 -0.30024306402E+03  0.32109465082E+03  0.00000000000E+00 0. -1.
         22    1    1    2    0    0  0.70826820997E+01 -0.22137107858E+02  0.45702412948E+02  0.51273058026E+02  0.00000000000E+00 0.  1.
         22    1    1    2    0    0  0.47829603305E+02  0.30889573320E+02 -0.69974035476E+02  0.90211985529E+02  0.00000000000E+00 0. -1.
</event>
<event>
 6    1  0.1715574E-005  0.6984344E+02  0.7818608E-02  0.1389408E+00
          2   -1    0    0  502    0  0.00000000000E+00  0.00000000000E+00  0.99085823675E+02  0.99085823675E+02  0.00000000000E+00 0.  1.
          1   -1    0    0  501    0 -0.00000000000E+00 -0.00000000000E+00 -0.22315923948E+03  0.22315923948E+03  0.00000000000E+00 0. -1.
          2    1    1    2  501    0  0.32956852652E+02  0.42148057933E+02  0.47688836708E+02  0.71671738299E+02  0.00000000000E+00 0.  1.
          1    1    1    2  502    0 -0.46928185989E+02 -0.18871760544E+02 -0.87426061438E+02  0.10100353561E+03  0.00000000000E+00 0. -1.
         22    1    1    2    0    0  0.56252740580E+01  0.19437973083E+02  0.24839640439E+02  0.32038823994E+02  0.00000000000E+00 0.  1.
         22    1    1    2    0    0  0.83460592790E+01 -0.42714270472E+02 -0.10917583151E+03  0.11753096526E+03  0.00000000000E+00 0. -1.
</event>
<event>
 6    1  0.1715574E-005  0.3900472E+02  0.7818608E-02  0.1538511E+00
          2   -1    0    0  502    0  0.00000000000E+00  0.00000000000E+00  0.35365326467E+03  0.35365326467E+03  0.00000000000E+00 0.  1.
          1   -1    0    0  501    0 -0.00000000000E+00 -0.00000000000E+00 -0.10113229159E+03  0.10113229159E+03  0.00000000000E+00 0. -1.
          2    1    1    2  501    0 -0.16950170320E+02  0.49373472164E+02  0.20704752327E+03  0.21352687166E+03  0.00000000000E+00 0.  1.
          1    1    1    2  502    0  0.50054165824E+00 -0.28675860589E+02 -0.65448237179E+02  0.71456471172E+02  0.00000000000E+00 0. -1.
         22    1    1    2    0    0  0.24685162186E+02 -0.14874249304E+02  0.13796296810E+03  0.14094105538E+03  0.00000000000E+00 0. -1.
         22    1    1    2    0    0 -0.82355335238E+01 -0.58233622710E+01 -0.27041281106E+02  0.28861158058E+02  0.00000000000E+00 0. -1.
</event>
<event>
 6    1  0.1715574E-005  0.3479943E+02  0.7818608E-02  0.1580500E+00
          2   -1    0    0  502    0  0.00000000000E+00  0.00000000000E+00  0.24251476245E+03  0.24251476245E+03  0.00000000000E+00 0. -1.
          1   -1    0    0  501    0 -0.00000000000E+00 -0.00000000000E+00 -0.10080814315E+03  0.10080814315E+03  0.00000000000E+00 0. -1.
          2    1    1    2  501    0 -0.55960151184E+02 -0.16957388751E+02  0.14171660027E+03  0.15330585881E+03  0.00000000000E+00 0. -1.
          1    1    1    2  502    0  0.43612408456E+02  0.13824642535E+02 -0.37131008300E+02  0.58922616116E+02  0.00000000000E+00 0. -1.
         22    1    1    2    0    0  0.18215490264E+02 -0.95451810014E+01 -0.44111351271E+02  0.48669558009E+02  0.00000000000E+00 0. -1.
         22    1    1    2    0    0 -0.58677475360E+01  0.12677927217E+02  0.81232378596E+02  0.82424872654E+02  0.00000000000E+00 0. -1.
</event>
<event>
 6    1  0.1715574E-005  0.7522949E+02  0.7818608E-02  0.1452400E+00
          2   -1    0    0  502    0  0.00000000000E+00  0.00000000000E+00  0.26531429553E+03  0.26531429553E+03  0.00000000000E+00 0.  1.
          1   -1    0    0  501    0 -0.00000000000E+00 -0.00000000000E+00 -0.31719063691E+03  0.31719063691E+03  0.00000000000E+00 0.  1.
          2    1    1    2  501    0  0.80175233216E+01  0.20246450254E+02  0.11567593939E+03  0.11770778386E+03  0.00000000000E+00 0.  1.
          1    1    1    2  502    0  0.12068975587E+02 -0.66063002969E+02 -0.28014314434E+03  0.28808013096E+03  0.00000000000E+00 0.  1.
         22    1    1    2    0    0 -0.12595747965E+02 -0.40389441649E+01 -0.26038174443E+02  0.29205349940E+02  0.00000000000E+00 0. -1.
         22    1    1    2    0    0 -0.74907509440E+01  0.49855496880E+02  0.13862903802E+03  0.14751166768E+03  0.00000000000E+00 0.  1.
</event>
<event>
 6    1  0.1715574E-005  0.9849733E+02  0.7818608E-02  0.1300829E+00
          2   -1    0    0  502    0  0.00000000000E+00  0.00000000000E+00  0.65891268842E+02  0.65891268842E+02  0.00000000000E+00 0. -1.
          1   -1    0    0  501    0 -0.00000000000E+00 -0.00000000000E+00 -0.17082409460E+03  0.17082409460E+03  0.00000000000E+00 0. -1.
          2    1    1    2  501    0 -0.15384110260E+02 -0.32987836680E+02 -0.24236200953E+02  0.43729414059E+02  0.00000000000E+00 0. -1.
          1    1    1    2  502    0  0.20890848898E+02  0.20223626286E+02 -0.62765006054E+02  0.69172744725E+02  0.00000000000E+00 0. -1.
         22    1    1    2    0    0  0.35476863364E+02  0.20077495780E+02 -0.54734938638E+02  0.68246810758E+02  0.00000000000E+00 0. -1.
         22    1    1    2    0    0 -0.40983602001E+02 -0.73132853862E+01  0.36803319888E+02  0.55566393899E+02  0.00000000000E+00 0. -1.
</event>
<event>
 6    1  0.1715574E-005  0.6727582E+02  0.7818608E-02  0.1383150E+00
          2   -1    0    0  502    0  0.00000000000E+00  0.00000000000E+00  0.15069125311E+03  0.15069125311E+03  0.00000000000E+00 0.  1.
          1   -1    0    0  501    0 -0.00000000000E+00 -0.00000000000E+00 -0.17332925120E+03  0.17332925120E+03  0.00000000000E+00 0. -1.
          2    1    1    2  501    0  0.18929964749E+02 -0.33186965502E+02  0.82572996604E+02  0.90983613979E+02  0.00000000000E+00 0.  1.
          1    1    1    2  502    0 -0.21061487534E+02  0.22468148717E+01 -0.10290351566E+03  0.10506078226E+03  0.00000000000E+00 0. -1.
         22    1    1    2    0    0  0.12598253765E+02 -0.56996989515E+01  0.56353473287E+02  0.58025136946E+02  0.00000000000E+00 0.  1.
         22    1    1    2    0    0 -0.10466730980E+02  0.36639849581E+02 -0.58660952316E+02  0.69950971126E+02  0.00000000000E+00 0. -1.
</event>
<event>
 6    1  0.1715574E-005  0.1755790E+03  0.7818608E-02  0.1172297E+00
          2   -1    0    0  502    0  0.00000000000E+00  0.00000000000E+00  0.47812450045E+03  0.47812450045E+03  0.00000000000E+00 0.  1.
          1   -1    0    0  501    0 -0.00000000000E+00 -0.00000000000E+00 -0.12474126228E+03  0.12474126228E+03  0.00000000000E+00 0.  1.
          2    1    1    2  501    0  0.12380662379E+03 -0.14348150040E+02  0.24456074144E+03  0.27448844376E+03  0.00000000000E+00 0.  1.
          1    1    1    2  502    0 -0.14689635663E+03  0.16582318076E+02 -0.19197549963E+02  0.14907065033E+03  0.00000000000E+00 0.  1.
         22    1    1    2    0    0 -0.21694148747E+02  0.14603625082E+02 -0.13845452062E+02  0.29590513652E+02  0.00000000000E+00 0.  1.
         22    1    1    2    0    0  0.44783881588E+02 -0.16837793119E+02  0.14186549876E+03  0.14971615499E+03  0.00000000000E+00 0.  1.
</event>
<event>
 6    1  0.1715574E-005  0.5710430E+02  0.7818608E-02  0.1472613E+00
          2   -1    0    0  502    0  0.00000000000E+00  0.00000000000E+00  0.16869012006E+03  0.16869012006E+03  0.00000000000E+00 0.  1.
          1   -1    0    0  501    0 -0.00000000000E+00 -0.00000000000E+00 -0.86682923090E+02  0.86682923090E+02  0.00000000000E+00 0. -1.
          2    1    1    2  501    0 -0.26637780367E+02 -0.22692936374E+02  0.54359359964E+02  0.64648903470E+02  0.00000000000E+00 0.  1.
          1    1    1    2  502    0  0.24102905762E+02  0.66750812500E+01 -0.38499419904E+02  0.45909825841E+02  0.00000000000E+00 0. -1.
         22    1    1    2    0    0 -0.20656951651E+02 -0.90956349587E+01  0.96497029649E+02  0.99101548716E+02  0.00000000000E+00 0.  1.
         22    1    1    2    0    0  0.23191826255E+02  0.25113490083E+02 -0.30349772744E+02  0.45712765119E+02  0.00000000000E+00 0. -1.
</event>
<event>
 6    1  0.1715574E-005  0.9660623E+02  0.7818608E-02  0.1289757E+00
          2   -1    0    0  502    0  0.00000000000E+00  0.00000000000E+00  0.79482438579E+02  0.79482438579E+02  0.00000000000E+00 0.  1.
          1   -1    0    0  501    0 -0.00000000000E+00 -0.00000000000E+00 -0.17864826274E+03  0.17864826274E+03  0.00000000000E+00 0.  1.
          2    1    1    2  501    0 -0.57810137464E+01 -0.28964346210E+02  0.29170187681E+02  0.41512086440E+02  0.00000000000E+00 0.  1.
          1    1    1    2  502    0 -0.26929348319E+01  0.38422080863E+02 -0.61111248620E+02  0.72236368290E+02  0.00000000000E+00 0.  1.
         22    1    1    2    0    0  0.41008577152E+02  0.37847526946E+02  0.22634230014E+00  0.55804927442E+02  0.00000000000E+00 0.  1.
         22    1    1    2    0    0 -0.32534628574E+02 -0.47305261599E+02 -0.67451105526E+02  0.88577319151E+02  0.00000000000E+00 0. -1.
</event>
<event>
 6    1  0.1715574E-005  0.3748803E+02  0.7818608E-02  0.1608725E+00
          2   -1    0    0  502    0  0.00000000000E+00  0.00000000000E+00  0.15420906499E+03  0.15420906499E+03  0.00000000000E+00 0.  1.
          1   -1    0    0  501    0 -0.00000000000E+00 -0.00000000000E+00 -0.25459584178E+03  0.25459584178E+03  0.00000000000E+00 0. -1.
          2    1    1    2  501    0 -0.87796553174E+01  0.22457888595E+02  0.90673742104E+02  0.93825191792E+02  0.00000000000E+00 0.  1.
          1    1    1    2  502    0  0.24397231844E+02 -0.15371444886E+02 -0.18829904661E+03  0.19049419202E+03  0.00000000000E+00 0. -1.
         22    1    1    2    0    0 -0.11959090107E+02  0.59449604580E+01  0.59392144016E+02  0.60875193321E+02  0.00000000000E+00 0. -1.
         22    1    1    2    0    0 -0.36584864191E+01 -0.13031404167E+02 -0.62153616299E+02  0.63610329637E+02  0.00000000000E+00 0. -1.
</event>
<event>
 6    1  0.1715574E-005  0.8452236E+02  0.7818608E-02  0.1351968E+00
          2   -1    0    0  502    0  0.00000000000E+00  0.00000000000E+00  0.75924574138E+02  0.75924574138E+02  0.00000000000E+00 0.  1.
          1   -1    0    0  501    0 -0.00000000000E+00 -0.00000000000E+00 -0.23175291217E+03  0.23175291217E+03  0.00000000000E+00 0.  1.
          2    1    1    2  501    0  0.40516709535E+02  0.32388088087E+02 -0.45527732811E+00  0.51872914695E+02  0.00000000000E+00 0.  1.
          1    1    1    2  502    0 -0.24888241483E+02 -0.41666616268E+02 -0.11595746480E+03  0.12570467421E+03  0.00000000000E+00 0.  1.
         22    1    1    2    0    0  0.29880458089E+02  0.12433842288E+02  0.31899555798E+02  0.45442533707E+02  0.00000000000E+00 0.  1.
         22    1    1    2    0    0 -0.45508926142E+02 -0.31553141067E+01 -0.71315151702E+02  0.84657363696E+02  0.00000000000E+00 0.  1.
</event>
<event>
 6    1  0.1715574E-005  0.1007706E+03  0.7818608E-02  0.1281705E+00
          2   -1    0    0  502    0  0.00000000000E+00  0.00000000000E+00  0.36167428818E+02  0.36167428818E+02  0.00000000000E+00 0. -1.
          1   -1    0    0  501    0 -0.00000000000E+00 -0.00000000000E+00 -0.65718698240E+03  0.65718698240E+03  0.00000000000E+00 0. -1.
          2    1    1    2  501    0 -0.66882795571E+01  0.21945526473E+02 -0.47343119886E+02  0.52609031697E+02  0.00000000000E+00 0. -1.
          1    1    1    2  502    0 -0.55736363333E+02 -0.48190175801E+02 -0.44054955220E+03  0.44666849361E+03  0.00000000000E+00 0. -1.
         22    1    1    2    0    0  0.25893519454E+02 -0.73843453745E+01 -0.14122395017E+03  0.14376789283E+03  0.00000000000E+00 0.  1.
         22    1    1    2    0    0  0.36531123436E+02  0.33628994703E+02  0.80970686699E+01  0.50308993086E+02  0.00000000000E+00 0.  1.
</event>
<event>
 6    1  0.1715574E-005  0.4513804E+02  0.7818608E-02  0.1495493E+00
          2   -1    0    0  502    0  0.00000000000E+00  0.00000000000E+00  0.26093861625E+03  0.26093861625E+03  0.00000000000E+00 0.  1.
          1   -1    0    0  501    0 -0.00000000000E+00 -0.00000000000E+00 -0.51795751842E+02  0.51795751842E+02  0.00000000000E+00 0. -1.
          2    1    1    2  501    0 -0.67578457789E+01 -0.51109881660E+02  0.85107691235E+02  0.99504811894E+02  0.00000000000E+00 0.  1.
          1    1    1    2  502    0  0.31347287269E+02  0.12630990519E+02 -0.10356899766E+01  0.33812231431E+02  0.00000000000E+00 0. -1.
         22    1    1    2    0    0 -0.33000772356E+02 -0.30132100563E+01 -0.12547583843E+02  0.35434055246E+02  0.00000000000E+00 0. -1.
         22    1    1    2    0    0  0.84113308654E+01  0.41492101197E+02  0.13761844699E+03  0.14398326952E+03  0.00000000000E+00 0.  1.
</event>
<event>
 6    1  0.1715574E-005  0.7709360E+02  0.7818608E-02  0.1417482E+00
          2   -1    0    0  502    0  0.00000000000E+00  0.00000000000E+00  0.69398034318E+02  0.69398034318E+02  0.00000000000E+00 0. -1.
          1   -1    0    0  501    0 -0.00000000000E+00 -0.00000000000E+00 -0.25344079802E+03  0.25344079802E+03  0.00000000000E+00 0.  1.
          2    1    1    2  501    0  0.40620288126E+02 -0.42446021818E+02  0.69166945152E+01  0.59156683804E+02  0.00000000000E+00 0. -1.
          1    1    1    2  502    0 -0.24475937557E+01  0.28207103777E+02 -0.95598398315E+02  0.99702984805E+02  0.00000000000E+00 0.  1.
         22    1    1    2    0    0 -0.36502220898E+02  0.34964154848E+02 -0.12090327778E+03  0.13104391185E+03  0.00000000000E+00 0.  1.
         22    1    1    2    0    0 -0.16704734730E+01 -0.20725236807E+02  0.25542217878E+02  0.32935251881E+02  0.00000000000E+00 0. -1.
</event>
<event>
 6    1  0.1715574E-005  0.1245357E+03  0.7818608E-02  0.1240756E+00
          2   -1    0    0  502    0  0.00000000000E+00  0.00000000000E+00  0.62002813520E+02  0.62002813520E+02  0.00000000000E+00 0.  1.
          1   -1    0    0  501    0 -0.00000000000E+00 -0.00000000000E+00 -0.16801271057E+04  0.16801271057E+04  0.00000000000E+00 0. -1.
          2    1    1    2  501    0 -0.24097321648E+02  0.24182881715E+02 -0.19273836897E+02  0.39204253179E+02  0.00000000000E+00 0.  1.
          1    1    1    2  502    0  0.92146492419E+02  0.82160118206E+01 -0.15500914730E+04  0.15528496558E+04  0.00000000000E+00 0. -1.
         22    1    1    2    0    0  0.11337308449E+02 -0.45403805987E+01 -0.63498215424E+02  0.64661990233E+02  0.00000000000E+00 0. -1.
         22    1    1    2    0    0 -0.79386479221E+02 -0.27858512937E+02  0.14739233094E+02  0.85414020034E+02  0.00000000000E+00 0.  1.
</event>
<event>
 6    1  0.1715574E-005  0.1225599E+03  0.7818608E-02  0.1263742E+00
          2   -1    0    0  502    0  0.00000000000E+00  0.00000000000E+00  0.24360437409E+03  0.24360437409E+03  0.00000000000E+00 0.  1.
          1   -1    0    0  501    0 -0.00000000000E+00 -0.00000000000E+00 -0.58554338096E+02  0.58554338096E+02  0.00000000000E+00 0.  1.
          2    1    1    2  501    0  0.49635780676E+02 -0.45757400017E+01  0.99851694692E+02  0.11160201187E+03  0.00000000000E+00 0.  1.
          1    1    1    2  502    0 -0.23078856338E+02 -0.18212613082E+02  0.51889579319E+02  0.59639427621E+02  0.00000000000E+00 0.  1.
         22    1    1    2    0    0  0.14830087623E+02 -0.19612782056E+02  0.60811103487E+02  0.65594077676E+02  0.00000000000E+00 0.  1.
         22    1    1    2    0    0 -0.41387011962E+02  0.42401135140E+02 -0.27502341500E+02  0.65323195025E+02  0.00000000000E+00 0.  1.
</event>
<event>
 6    1  0.1715574E-005  0.1809675E+03  0.7818608E-02  0.1245441E+00
          2   -1    0    0  502    0  0.00000000000E+00  0.00000000000E+00  0.18376901594E+03  0.18376901594E+03  0.00000000000E+00 0. -1.
          1   -1    0    0  501    0 -0.00000000000E+00 -0.00000000000E+00 -0.32378511526E+03  0.32378511526E+03  0.00000000000E+00 0. -1.
          2    1    1    2  501    0  0.14444568335E+03 -0.88989710870E+02  0.54531308380E+02  0.17820602592E+03  0.00000000000E+00 0. -1.
          1    1    1    2  502    0 -0.10527200254E+03  0.12449539199E+02 -0.11268298332E+03  0.15470824243E+03  0.00000000000E+00 0. -1.
         22    1    1    2    0    0  0.18093644740E+02  0.28042022554E+02  0.26647557527E+02  0.42706291469E+02  0.00000000000E+00 0. -1.
         22    1    1    2    0    0 -0.57267325547E+02  0.48498149117E+02 -0.10851198191E+03  0.13193357139E+03  0.00000000000E+00 0.  1.
</event>
<event>
 6    1  0.1715574E-005  0.3222354E+02  0.7818608E-02  0.1612615E+00
          2   -1    0    0  502    0  0.00000000000E+00  0.00000000000E+00  0.18511217417E+03  0.18511217417E+03  0.00000000000E+00 0. -1.
          1   -1    0    0  501    0 -0.00000000000E+00 -0.00000000000E+00 -0.84495994268E+02  0.84495994268E+02  0.00000000000E+00 0.  1.
          2    1    1    2  501    0 -0.29591559256E+02  0.22805498406E+02  0.80707500134E+02  0.88935098328E+02  0.00000000000E+00 0. -1.
          1    1    1    2  502    0  0.21409149345E+02 -0.31685340353E+02 -0.24816757292E+02  0.45587102468E+02  0.00000000000E+00 0.  1.
         22    1    1    2    0    0  0.22188860370E+02  0.60720214185E+01 -0.41626573688E+02  0.47560346988E+02  0.00000000000E+00 0. -1.
         22    1    1    2    0    0 -0.14006450458E+02  0.28078205282E+01  0.86352010751E+02  0.87525620656E+02  0.00000000000E+00 0.  1.
</event>
<event>
 6    1  0.1715574E-005  0.7828403E+02  0.7818608E-02  0.1339597E+00
          2   -1    0    0  502    0  0.00000000000E+00  0.00000000000E+00  0.30744311673E+03  0.30744311673E+03  0.00000000000E+00 0.  1.
          1   -1    0    0  501    0 -0.00000000000E+00 -0.00000000000E+00 -0.86004758997E+02  0.86004758997E+02  0.00000000000E+00 0. -1.
          2    1    1    2  501    0 -0.28381241769E+02 -0.70551998559E+01  0.61223120862E+02  0.67849401305E+02  0.00000000000E+00 0.  1.
          1    1    1    2  502    0  0.55488756343E+02  0.24973939289E+01 -0.53368038041E+02  0.77028478768E+02  0.00000000000E+00 0. -1.
         22    1    1    2    0    0 -0.39888269739E+02  0.13030861396E+02  0.22536109851E+03  0.22923460064E+03  0.00000000000E+00 0.  1.
         22    1    1    2    0    0  0.12780755164E+02 -0.84730554694E+01 -0.11777823596E+02  0.19335395011E+02  0.00000000000E+00 0.  1.
</event>
<event>
 6    1  0.1715574E-005  0.1123600E+03  0.7818608E-02  0.1269849E+00
          2   -1    0    0  502    0  0.00000000000E+00  0.00000000000E+00  0.27682418905E+03  0.27682418905E+03  0.00000000000E+00 0. -1.
          1   -1    0    0  501    0 -0.00000000000E+00 -0.00000000000E+00 -0.13288334266E+03  0.13288334266E+03  0.00000000000E+00 0.  1.
          2    1    1    2  501    0 -0.17792705332E+02  0.19847654099E+02  0.82526113687E+02  0.86724098015E+02  0.00000000000E+00 0. -1.
          1    1    1    2  502    0 -0.71474060550E+02 -0.18447365072E+02 -0.83810800974E+02  0.11168302006E+03  0.00000000000E+00 0.  1.
         22    1    1    2    0    0  0.83555651954E+02  0.85094427454E+01  0.16687311290E+03  0.18681700511E+03  0.00000000000E+00 0. -1.
         22    1    1    2    0    0  0.57111139281E+01 -0.99097317722E+01 -0.21647579228E+02  0.24483408516E+02  0.00000000000E+00 0.  1.
</event>
<event>
 6    1  0.1715574E-005  0.8407564E+02  0.7818608E-02  0.1373711E+00
          2   -1    0    0  502    0  0.00000000000E+00  0.00000000000E+00  0.13872419839E+03  0.13872419839E+03  0.00000000000E+00 0. -1.
          1   -1    0    0  501    0 -0.00000000000E+00 -0.00000000000E+00 -0.28099017419E+03  0.28099017419E+03  0.00000000000E+00 0.  1.
          2    1    1    2  501    0  0.14533051421E+01 -0.60379764825E+02  0.82020226694E+02  0.10185845906E+03  0.00000000000E+00 0. -1.
          1    1    1    2  502    0 -0.32968704043E+02  0.50110482291E+02 -0.16484466997E+03  0.17541881627E+03  0.00000000000E+00 0.  1.
         22    1    1    2    0    0  0.28753437274E+02 -0.14519372235E+02  0.33341674601E+02  0.46359892044E+02  0.00000000000E+00 0.  1.
         22    1    1    2    0    0  0.27619616271E+01  0.24788654768E+02 -0.92783207119E+02  0.96077205207E+02  0.00000000000E+00 0.  1.
</event>
<event>
 6    1  0.1715574E-005  0.1122239E+03  0.7818608E-02  0.1291833E+00
          2   -1    0    0  502    0  0.00000000000E+00  0.00000000000E+00  0.71482479036E+02  0.71482479036E+02  0.00000000000E+00 0.  1.
          1   -1    0    0  501    0 -0.00000000000E+00 -0.00000000000E+00 -0.16305773643E+03  0.16305773643E+03  0.00000000000E+00 0.  1.
          2    1    1    2  501    0 -0.48348568892E+01 -0.27099931297E+02 -0.28687051528E+02  0.39758383302E+02  0.00000000000E+00 0.  1.
          1    1    1    2  502    0  0.34194556196E+02 -0.10281903064E+02 -0.50829406658E+02  0.62117741308E+02  0.00000000000E+00 0.  1.
         22    1    1    2    0    0 -0.47465632750E+02  0.34675108136E+02  0.44171477227E+02  0.73528693835E+02  0.00000000000E+00 0.  1.
         22    1    1    2    0    0  0.18105933444E+02  0.27067262241E+01 -0.56230276432E+02  0.59135397016E+02  0.00000000000E+00 0. -1.
</event>
<event>
 6    1  0.1715574E-005  0.1165393E+03  0.7818608E-02  0.1259340E+00
          2   -1    0    0  502    0  0.00000000000E+00  0.00000000000E+00  0.58853411142E+02  0.58853411142E+02  0.00000000000E+00 0.  1.
          1   -1    0    0  501    0 -0.00000000000E+00 -0.00000000000E+00 -0.25038372145E+03  0.25038372145E+03  0.00000000000E+00 0.  1.
          2    1    1    2  501    0 -0.42273607228E+02 -0.16291285231E+02  0.55725573922E+01  0.45645560994E+02  0.00000000000E+00 0.  1.
          1    1    1    2  502    0  0.34550279944E+02  0.28978288126E+02 -0.27794713543E+02  0.52971776710E+02  0.00000000000E+00 0.  1.
         22    1    1    2    0    0  0.53822528430E+02 -0.60973918817E+01 -0.15127838481E+03  0.16068351647E+03  0.00000000000E+00 0.  1.
         22    1    1    2    0    0 -0.46099201145E+02 -0.65896110134E+01 -0.18029769347E+02  0.49936278418E+02  0.00000000000E+00 0.  1.
</event>
<event>
 6    1  0.1715574E-005  0.1195449E+03  0.7818608E-02  0.1297062E+00
          2   -1    0    0  502    0  0.00000000000E+00  0.00000000000E+00  0.36102662298E+03  0.36102662298E+03  0.00000000000E+00 0.  1.
          1   -1    0    0  501    0 -0.00000000000E+00 -0.00000000000E+00 -0.14953801044E+03  0.14953801044E+03  0.00000000000E+00 0. -1.
          2    1    1    2  501    0 -0.10541068351E+03 -0.26806227537E+02  0.27428036376E+03  0.29505881443E+03  0.00000000000E+00 0.  1.
          1    1    1    2  502    0  0.79292501106E+02  0.18829119998E+02 -0.22337153262E+02  0.84503165074E+02  0.00000000000E+00 0. -1.
         22    1    1    2    0    0  0.42728686903E+02  0.38027492652E+00 -0.78175890936E+02  0.89091835861E+02  0.00000000000E+00 0. -1.
         22    1    1    2    0    0 -0.16610504504E+02  0.75968326124E+01  0.37721292985E+02  0.41910818055E+02  0.00000000000E+00 0. -1.
</event>
<event>
 6    1  0.1715574E-005  0.5040260E+02  0.7818608E-02  0.1504155E+00
          2   -1    0    0  502    0  0.00000000000E+00  0.00000000000E+00  0.14416810740E+03  0.14416810740E+03  0.00000000000E+00 0.  1.
          1   -1    0    0  501    0 -0.00000000000E+00 -0.00000000000E+00 -0.21608735721E+03  0.21608735721E+03  0.00000000000E+00 0.  1.
          2    1    1    2  501    0 -0.19983500165E+02  0.69211113020E+01  0.43552529583E+02  0.48415543925E+02  0.00000000000E+00 0.  1.
          1    1    1    2  502    0  0.36739957514E+02  0.79372251048E+01 -0.17172012207E+03  0.17578573419E+03  0.00000000000E+00 0.  1.
         22    1    1    2    0    0 -0.28511117445E+02  0.26994503600E+01  0.90990702175E+02  0.95391187918E+02  0.00000000000E+00 0.  1.
         22    1    1    2    0    0  0.11754660096E+02 -0.17557786767E+02 -0.34742359499E+02  0.40662998582E+02  0.00000000000E+00 0. -1.
</event>
<event>
 6    1  0.1715574E-005  0.7962366E+02  0.7818608E-02  0.1335097E+00
          2   -1    0    0  502    0  0.00000000000E+00  0.00000000000E+00  0.27475074390E+02  0.27475074390E+02  0.00000000000E+00 0.  1.
          1   -1    0    0  501    0 -0.00000000000E+00 -0.00000000000E+00 -0.30184697887E+03  0.30184697887E+03  0.00000000000E+00 0. -1.
          2    1    1    2  501    0  0.32319725537E+02  0.10680002883E+02 -0.46036585936E+02  0.57253771623E+02  0.00000000000E+00 0.  1.
          1    1    1    2  502    0 -0.14109847058E+02 -0.19878477844E+02 -0.55141699767E+02  0.60289706573E+02  0.00000000000E+00 0. -1.
         22    1    1    2    0    0 -0.43547039801E+02 -0.18031073410E+02 -0.16767947657E+03  0.17417769991E+03  0.00000000000E+00 0.  1.
         22    1    1    2    0    0  0.25337161321E+02  0.27229548371E+02 -0.55141422128E+01  0.37600875158E+02  0.00000000000E+00 0. -1.
</event>
<event>
 6    1  0.2148794E-005  0.4421288E+02  0.7818608E-02  0.1479704E+00
          2   -1    0    0  502    0  0.00000000000E+00  0.00000000000E+00  0.10227372336E+04  0.10227372336E+04  0.00000000000E+00 0. -1.
          1   -1    0    0  501    0 -0.00000000000E+00 -0.00000000000E+00 -0.10904096883E+03  0.10904096883E+03  0.00000000000E+00 0. -1.
          2    1    1    2  501    0  0.37745494374E+02  0.90771356119E+02  0.90550606316E+03  0.91082676282E+03  0.00000000000E+00 0. -1.
          1    1    1    2  502    0 -0.21692002874E+02 -0.95219823248E+02 -0.49020310498E+01  0.97782348287E+02  0.00000000000E+00 0. -1.
         22    1    1    2    0    0 -0.41798923413E+01  0.17307533368E+02  0.65520401284E+02  0.67896577201E+02  0.00000000000E+00 0.  1.
         22    1    1    2    0    0 -0.11873599159E+02 -0.12859066239E+02 -0.52428168674E+02  0.55272514074E+02  0.00000000000E+00 0. -1.
</event>
<event>
 6    1  0.1715574E-005  0.2444022E+03  0.7818608E-02  0.1245009E+00
          2   -1    0    0  502    0  0.00000000000E+00  0.00000000000E+00  0.14156485584E+03  0.14156485584E+03  0.00000000000E+00 0. -1.
          1   -1    0    0  501    0 -0.00000000000E+00 -0.00000000000E+00 -0.10684213237E+04  0.10684213237E+04  0.00000000000E+00 0. -1.
          2    1    1    2  501    0 -0.54032666911E+02  0.25405629018E+03 -0.21271589157E+03  0.33572634421E+03  0.00000000000E+00 0. -1.
          1    1    1    2  502    0  0.20129868455E+03 -0.38649220182E+02 -0.21076919676E+03  0.29400438249E+03  0.00000000000E+00 0. -1.
         22    1    1    2    0    0  0.10490056093E+02  0.87596555460E+01 -0.34921502289E+02  0.37500455521E+02  0.00000000000E+00 0. -1.
         22    1    1    2    0    0 -0.15775607373E+03 -0.22416672554E+03 -0.46844987728E+03  0.54275499737E+03  0.00000000000E+00 0. -1.
</event>
<event>
 6    1  0.1715574E-005  0.5588585E+02  0.7818608E-02  0.1419193E+00
          2   -1    0    0  502    0  0.00000000000E+00  0.00000000000E+00  0.20382243991E+03  0.20382243991E+03  0.00000000000E+00 0.  1.
          1   -1    0    0  501    0 -0.00000000000E+00 -0.00000000000E+00 -0.15448382470E+03  0.15448382470E+03  0.00000000000E+00 0.  1.
          2    1    1    2  501    0 -0.26873016853E+02 -0.20261680929E+01  0.13370348032E+03  0.13639239363E+03  0.00000000000E+00 0.  1.
          1    1    1    2  502    0  0.33208399798E+02  0.21468406428E+01 -0.90225953172E+02  0.96167194862E+02  0.00000000000E+00 0.  1.
         22    1    1    2    0    0  0.17594698531E+02  0.92502700850E+01 -0.55644142712E+02  0.59088167438E+02  0.00000000000E+00 0.  1.
         22    1    1    2    0    0 -0.23930081476E+02 -0.93709426349E+01  0.61505230784E+02  0.66658508677E+02  0.00000000000E+00 0.  1.
</event>
<event>
 6    1  0.1715574E-005  0.5739635E+02  0.7818608E-02  0.1473902E+00
          2   -1    0    0  502    0  0.00000000000E+00  0.00000000000E+00  0.33514763336E+03  0.33514763336E+03  0.00000000000E+00 0.  1.
          1   -1    0    0  501    0 -0.00000000000E+00 -0.00000000000E+00 -0.96039886943E+02  0.96039886943E+02  0.00000000000E+00 0. -1.
          2    1    1    2  501    0  0.75094621250E+01  0.24485513815E+02  0.14062681556E+03  0.14293996524E+03  0.00000000000E+00 0.  1.
          1    1    1    2  502    0  0.20546422381E+02 -0.28119912075E+02 -0.69675325012E+02  0.77894389036E+02  0.00000000000E+00 0. -1.
         22    1    1    2    0    0 -0.21230455501E+02  0.24362549302E+02  0.18177784955E+03  0.18462787610E+03  0.00000000000E+00 0.  1.
         22    1    1    2    0    0 -0.68254290057E+01 -0.20728151042E+02 -0.13621593684E+02  0.25725289916E+02  0.00000000000E+00 0.  1.
</event>
<event>
 6    1  0.1715574E-005  0.9494408E+02  0.7818608E-02  0.1291585E+00
          2   -1    0    0  502    0  0.00000000000E+00  0.00000000000E+00  0.60357861467E+02  0.60357861467E+02  0.00000000000E+00 0. -1.
          1   -1    0    0  501    0 -0.00000000000E+00 -0.00000000000E+00 -0.40163091072E+03  0.40163091072E+03  0.00000000000E+00 0. -1.
          2    1    1    2  501    0 -0.28889166329E+00 -0.23894826036E+02 -0.11141681552E+01  0.23922532064E+02  0.00000000000E+00 0. -1.
          1    1    1    2  502    0  0.34886352323E+02  0.60776719130E+02 -0.28186860634E+03  0.29044926994E+03  0.00000000000E+00 0. -1.
         22    1    1    2    0    0 -0.36191211427E+02 -0.60543157728E+02  0.13671435886E+02  0.71848353435E+02  0.00000000000E+00 0. -1.
         22    1    1    2    0    0  0.15937507664E+01  0.23661264634E+02 -0.71961710645E+02  0.75768616752E+02  0.00000000000E+00 0. -1.
</event>
<event>
 6    1  0.1715574E-005  0.8637416E+02  0.7818608E-02  0.1312673E+00
          2   -1    0    0  502    0  0.00000000000E+00  0.00000000000E+00  0.25044514127E+03  0.25044514127E+03  0.00000000000E+00 0.  1.
          1   -1    0    0  501    0 -0.00000000000E+00 -0.00000000000E+00 -0.23369295218E+03  0.23369295218E+03  0.00000000000E+00 0. -1.
          2    1    1    2  501    0  0.34574235169E+02 -0.30529812032E+02  0.95646195625E+02  0.10618682544E+03  0.00000000000E+00 0.  1.
          1    1    1    2  502    0 -0.54094221628E+02  0.47135554494E+02 -0.19359664173E+03  0.20646453691E+03  0.00000000000E+00 0. -1.
         22    1    1    2    0    0 -0.36230882618E+01  0.12308898380E+02 -0.24383851600E+02  0.27553728727E+02  0.00000000000E+00 0.  1.
         22    1    1    2    0    0  0.23143074720E+02 -0.28914640841E+02  0.13908648680E+03  0.14393300237E+03  0.00000000000E+00 0.  1.
</event>
<event>
 6    1  0.1715574E-005  0.7378931E+02  0.7818608E-02  0.1349705E+00
          2   -1    0    0  502    0  0.00000000000E+00  0.00000000000E+00  0.45146197510E+03  0.45146197510E+03  0.00000000000E+00 0. -1.
          1   -1    0    0  501    0 -0.00000000000E+00 -0.00000000000E+00 -0.19903129667E+03  0.19903129667E+03  0.00000000000E+00 0.  1.
          2    1    1    2  501    0  0.52995653486E+02 -0.69560809957E+01  0.42082571819E+03  0.42420656695E+03  0.00000000000E+00 0. -1.
          1    1    1    2  502    0 -0.23145132367E+02 -0.76997316250E+01 -0.40686487041E+02  0.47438099110E+02  0.00000000000E+00 0.  1.
         22    1    1    2    0    0 -0.36461111623E+02  0.23560957186E+02 -0.14880859302E+03  0.15501138256E+03  0.00000000000E+00 0.  1.
         22    1    1    2    0    0  0.66105905041E+01 -0.89051445655E+01  0.21100040309E+02  0.23837223152E+02  0.00000000000E+00 0. -1.
</event>
<event>
 6    1  0.1715574E-005  0.3550161E+03  0.7818608E-02  0.1060724E+00
          2   -1    0    0  502    0  0.00000000000E+00  0.00000000000E+00  0.50799340390E+03  0.50799340390E+03  0.00000000000E+00 0. -1.
          1   -1    0    0  501    0 -0.00000000000E+00 -0.00000000000E+00 -0.66622795918E+03  0.66622795918E+03  0.00000000000E+00 0. -1.
          2    1    1    2  501    0  0.11914936141E+03  0.20472914708E+02 -0.27146077169E+03  0.29716436719E+03  0.00000000000E+00 0. -1.
          1    1    1    2  502    0 -0.32851985763E+03 -0.39219347580E+02  0.38845551114E+03  0.51025595364E+03  0.00000000000E+00 0. -1.
         22    1    1    2    0    0  0.22284281466E+03  0.17585970837E+02 -0.27340702281E+03  0.35315660342E+03  0.00000000000E+00 0. -1.
         22    1    1    2    0    0 -0.13472318438E+02  0.11604620354E+01 -0.18222719282E+01  0.13644438838E+02  0.00000000000E+00 0. -1.
</event>
<event>
 6    1  0.1715574E-005  0.5947774E+02  0.7818608E-02  0.1400085E+00
          2   -1    0    0  502    0  0.00000000000E+00  0.00000000000E+00  0.17409983496E+03  0.17409983496E+03  0.00000000000E+00 0.  1.
          1   -1    0    0  501    0 -0.00000000000E+00 -0.00000000000E+00 -0.10561861732E+03  0.10561861732E+03  0.00000000000E+00 0.  1.
          2    1    1    2  501    0 -0.29772559283E+02 -0.18609655676E+01  0.70586134031E+02  0.76630743156E+02  0.00000000000E+00 0.  1.
          1    1    1    2  502    0  0.38561544397E+02 -0.50614293245E+00 -0.55390645423E+02  0.67493499593E+02  0.00000000000E+00 0.  1.
         22    1    1    2    0    0 -0.24767520948E+02  0.15505121690E+02  0.89356399721E+02  0.94012792021E+02  0.00000000000E+00 0. -1.
         22    1    1    2    0    0  0.15978535834E+02 -0.13138013190E+02 -0.36070670687E+02  0.41581417506E+02  0.00000000000E+00 0. -1.
</event>
<event>
 6    1  0.1715574E-005  0.6940573E+02  0.7818608E-02  0.1363297E+00
          2   -1    0    0  502    0  0.00000000000E+00  0.00000000000E+00  0.20970491013E+03  0.20970491013E+03  0.00000000000E+00 0.  1.
          1   -1    0    0  501    0 -0.00000000000E+00 -0.00000000000E+00 -0.16429642445E+03  0.16429642445E+03  0.00000000000E+00 0. -1.
          2    1    1    2  501    0  0.44207051216E+02  0.29854861165E+02  0.16773241667E+03  0.17601062387E+03  0.00000000000E+00 0.  1.
          1    1    1    2  502    0 -0.23799361476E+02 -0.15088001246E+02 -0.43345760479E+02  0.51700216051E+02  0.00000000000E+00 0. -1.
         22    1    1    2    0    0 -0.30324350951E+02 -0.24463230628E+02 -0.10762638040E+03  0.11446158164E+03  0.00000000000E+00 0. -1.
         22    1    1    2    0    0  0.99166612104E+01  0.96963707093E+01  0.28648209888E+02  0.31828913024E+02  0.00000000000E+00 0.  1.
</event>
<event>
 6    1  0.1715574E-005  0.4241658E+02  0.7818608E-02  0.1545584E+00
          2   -1    0    0  502    0  0.00000000000E+00  0.00000000000E+00  0.17113878503E+03  0.17113878503E+03  0.00000000000E+00 0.  1.
          1   -1    0    0  501    0 -0.00000000000E+00 -0.00000000000E+00 -0.30630668209E+03  0.30630668209E+03  0.00000000000E+00 0.  1.
          2    1    1    2  501    0  0.48298288662E+02 -0.46741355746E+01  0.94894410196E+02  0.10658105515E+03  0.00000000000E+00 0.  1.
          1    1    1    2  502    0 -0.50006947410E+02 -0.14266069669E+02 -0.24107989453E+03  0.24662467654E+03  0.00000000000E+00 0.  1.
         22    1    1    2    0    0 -0.61791249415E+00 -0.16839503170E+02  0.60685768841E+02  0.62981848359E+02  0.00000000000E+00 0. -1.
         22    1    1    2    0    0  0.23265712414E+01  0.35779708414E+02 -0.49668181567E+02  0.61257887068E+02  0.00000000000E+00 0. -1.
</event>
<event>
 6    1  0.1715574E-005  0.1226620E+03  0.7818608E-02  0.1241203E+00
          2   -1    0    0  502    0  0.00000000000E+00  0.00000000000E+00  0.11840148855E+04  0.11840148855E+04  0.00000000000E+00 0. -1.
          1   -1    0    0  501    0 -0.00000000000E+00 -0.00000000000E+00 -0.84383420536E+02  0.84383420536E+02  0.00000000000E+00 0. -1.
          2    1    1    2  501    0  0.97785504595E+02  0.12986037665E+02  0.10470773710E+04  0.10517136792E+04  0.00000000000E+00 0. -1.
          1    1    1    2  502    0 -0.65889327011E+02 -0.28340193073E+02 -0.67997986478E+01  0.72047256846E+02  0.00000000000E+00 0. -1.
         22    1    1    2    0    0 -0.46592252064E+02  0.10528132922E+02 -0.28372387647E+02  0.55557824975E+02  0.00000000000E+00 0. -1.
         22    1    1    2    0    0  0.14696074479E+02  0.48260224861E+01  0.87726280307E+02  0.89079545096E+02  0.00000000000E+00 0. -1.
</event>
<event>
 6    1  0.1715574E-005  0.4302899E+02  0.7818608E-02  0.1513741E+00
          2   -1    0    0  502    0  0.00000000000E+00  0.00000000000E+00  0.11919953268E+03  0.11919953268E+03  0.00000000000E+00 0.  1.
          1   -1    0    0  501    0 -0.00000000000E+00 -0.00000000000E+00 -0.21041986088E+03  0.21041986088E+03  0.00000000000E+00 0.  1.
          2    1    1    2  501    0 -0.15709105711E+02 -0.21554940723E+02  0.69643697088E+02  0.74576377064E+02  0.00000000000E+00 0.  1.
          1    1    1    2  502    0  0.44650897107E+02  0.51544996856E+02 -0.61398136154E+02  0.91762304006E+02  0.00000000000E+00 0.  1.
         22    1    1    2    0    0 -0.25296060165E+02 -0.15782360827E+02 -0.12787686411E+03  0.13130676277E+03  0.00000000000E+00 0.  1.
         22    1    1    2    0    0 -0.36457312320E+01 -0.14207695306E+02  0.28410974978E+02  0.31973949729E+02  0.00000000000E+00 0. -1.
</event>
<event>
 6    1  0.1715574E-005  0.7248210E+02  0.7818608E-02  0.1352947E+00
          2   -1    0    0  502    0  0.00000000000E+00  0.00000000000E+00  0.28125669528E+03  0.28125669528E+03  0.00000000000E+00 0. -1.
          1   -1    0    0  501    0 -0.00000000000E+00 -0.00000000000E+00 -0.20726746363E+03  0.20726746363E+03  0.00000000000E+00 0.  1.
          2    1    1    2  501    0 -0.19712237105E+02 -0.52085590724E+02  0.22375005047E+03  0.23057659495E+03  0.00000000000E+00 0. -1.
          1    1    1    2  502    0  0.25653318415E+02  0.43313574119E+02 -0.11752252104E+03  0.12785030856E+03  0.00000000000E+00 0.  1.
         22    1    1    2    0    0 -0.98828693988E+01 -0.11371080196E+02  0.46420809567E+02  0.48804345433E+02  0.00000000000E+00 0. -1.
         22    1    1    2    0    0  0.39417880887E+01  0.20143096800E+02 -0.78659107349E+02  0.81292909967E+02  0.00000000000E+00 0.  1.
</event>
<event>
 6    1  0.1715574E-005  0.6063338E+02  0.7818608E-02  0.1396224E+00
          2   -1    0    0  502    0  0.00000000000E+00  0.00000000000E+00  0.28797519730E+03  0.28797519730E+03  0.00000000000E+00 0.  1.
          1   -1    0    0  501    0 -0.00000000000E+00 -0.00000000000E+00 -0.20276269891E+03  0.20276269891E+03  0.00000000000E+00 0. -1.
          2    1    1    2  501    0  0.26290618020E+02 -0.35031922729E+02  0.22356455668E+03  0.22781471245E+03  0.00000000000E+00 0.  1.
          1    1    1    2  502    0 -0.24882978541E+02  0.32544553815E+02 -0.13526417058E+03  0.14133190173E+03  0.00000000000E+00 0. -1.
         22    1    1    2    0    0 -0.22380892890E+01  0.18537815023E+02 -0.59799151815E+02  0.62646613534E+02  0.00000000000E+00 0. -1.
         22    1    1    2    0    0  0.83044980994E+00 -0.16050446109E+02  0.56711264108E+02  0.58944668494E+02  0.00000000000E+00 0.  1.
</event>
<event>
 6    1  0.1715574E-005  0.5880086E+02  0.7818608E-02  0.1500577E+00
          2   -1    0    0  502    0  0.00000000000E+00  0.00000000000E+00  0.12741068872E+03  0.12741068872E+03  0.00000000000E+00 0.  1.
          1   -1    0    0  501    0 -0.00000000000E+00 -0.00000000000E+00 -0.28892071728E+03  0.28892071728E+03  0.00000000000E+00 0. -1.
          2    1    1    2  501    0 -0.98825460047E+01 -0.52619791641E+02  0.93731739966E+02  0.10794510765E+03  0.00000000000E+00 0.  1.
          1    1    1    2  502    0 -0.13756808101E+01  0.28388995538E+02 -0.10726679317E+03  0.11096843012E+03  0.00000000000E+00 0. -1.
         22    1    1    2    0    0 -0.17927937286E+01  0.29230316432E+02 -0.16935871954E+03  0.17187204948E+03  0.00000000000E+00 0.  1.
         22    1    1    2    0    0  0.13051020543E+02 -0.49995203292E+01  0.21383744182E+02  0.25545818757E+02  0.00000000000E+00 0. -1.
</event>
<event>
 6    1  0.1715574E-005  0.6645360E+02  0.7818608E-02  0.1453848E+00
          2   -1    0    0  502    0  0.00000000000E+00  0.00000000000E+00  0.56779287527E+03  0.56779287527E+03  0.00000000000E+00 0.  1.
          1   -1    0    0  501    0 -0.00000000000E+00 -0.00000000000E+00 -0.22945757311E+03  0.22945757311E+03  0.00000000000E+00 0.  1.
          2    1    1    2  501    0 -0.40091705469E+02  0.11394720884E+03  0.47021420738E+03  0.48548193795E+03  0.00000000000E+00 0.  1.
          1    1    1    2  502    0  0.16160452611E+02 -0.12478015821E+03 -0.13784069335E+03  0.18663146802E+03  0.00000000000E+00 0.  1.
         22    1    1    2    0    0  0.33997640473E+02  0.10926732699E+02 -0.53778180353E+02  0.64554827296E+02  0.00000000000E+00 0.  1.
         22    1    1    2    0    0 -0.10066387615E+02 -0.93783324499E-01  0.59739968483E+02  0.60582215124E+02  0.00000000000E+00 0. -1.
</event>
<event>
 6    1  0.1715574E-005  0.1388348E+03  0.7818608E-02  0.1246538E+00
          2   -1    0    0  502    0  0.00000000000E+00  0.00000000000E+00  0.11327336016E+03  0.11327336016E+03  0.00000000000E+00 0.  1.
          1   -1    0    0  501    0 -0.00000000000E+00 -0.00000000000E+00 -0.14573872449E+03  0.14573872449E+03  0.00000000000E+00 0. -1.
          2    1    1    2  501    0  0.31744520365E+02 -0.33376689081E+02 -0.13151874707E+01  0.46080881777E+02  0.00000000000E+00 0.  1.
          1    1    1    2  502    0 -0.24632862355E+02 -0.41420778331E+02 -0.49475865236E+02  0.69067503402E+02  0.00000000000E+00 0. -1.
         22    1    1    2    0    0  0.13420238585E+02  0.86196861958E+02  0.52934388044E+02  0.10203945929E+03  0.00000000000E+00 0.  1.
         22    1    1    2    0    0 -0.20531896596E+02 -0.11399394546E+02 -0.34608699669E+02  0.41824240180E+02  0.00000000000E+00 0. -1.
</event>
<event>
 6    1  0.1715574E-005  0.6944441E+02  0.7818608E-02  0.1362791E+00
          2   -1    0    0  502    0  0.00000000000E+00  0.00000000000E+00  0.70926586712E+02  0.70926586712E+02  0.00000000000E+00 0. -1.
          1   -1    0    0  501    0 -0.00000000000E+00 -0.00000000000E+00 -0.15718514638E+03  0.15718514638E+03  0.00000000000E+00 0.  1.
          2    1    1    2  501    0 -0.11155406761E+02 -0.23743916870E+02  0.26820710196E+02  0.37517558339E+02  0.00000000000E+00 0. -1.
          1    1    1    2  502    0  0.61453389186E+01  0.27641905910E+02 -0.34465752579E+02  0.44606370101E+02  0.00000000000E+00 0.  1.
         22    1    1    2    0    0  0.58234133063E+01 -0.40693146146E+02  0.16274603035E+02  0.44212068372E+02  0.00000000000E+00 0. -1.
         22    1    1    2    0    0 -0.81334546403E+00  0.36795157106E+02 -0.94888120316E+02  0.10177573628E+03  0.00000000000E+00 0. -1.
</event>
<event>
 6    1  0.1715574E-005  0.1439527E+03  0.7818608E-02  0.1209016E+00
          2   -1    0    0  502    0  0.00000000000E+00  0.00000000000E+00  0.31481180402E+03  0.31481180402E+03  0.00000000000E+00 0. -1.
          1   -1    0    0  501    0 -0.00000000000E+00 -0.00000000000E+00 -0.64901050516E+02  0.64901050516E+02  0.00000000000E+00 0.  1.
          2    1    1    2  501    0  0.79327447602E+02 -0.68491859684E+02  0.84283955505E+02  0.13449075783E+03  0.00000000000E+00 0. -1.
          1    1    1    2  502    0 -0.20372979549E+02  0.41812464645E+01  0.45659695580E+01  0.21292937695E+02  0.00000000000E+00 0.  1.
         22    1    1    2    0    0  0.25036496367E+02 -0.21411606229E+02  0.53177870759E+02  0.62555327272E+02  0.00000000000E+00 0. -1.
         22    1    1    2    0    0 -0.83990964420E+02  0.85722219449E+02  0.10788295768E+03  0.16137383174E+03  0.00000000000E+00 0.  1.
</event>
<event>
 6    1  0.1715574E-005  0.1129141E+03  0.7818608E-02  0.1256169E+00
          2   -1    0    0  502    0  0.00000000000E+00  0.00000000000E+00  0.44272070660E+03  0.44272070660E+03  0.00000000000E+00 0.  1.
          1   -1    0    0  501    0 -0.00000000000E+00 -0.00000000000E+00 -0.12276301325E+03  0.12276301325E+03  0.00000000000E+00 0. -1.
          2    1    1    2  501    0 -0.29572103017E+02  0.61091274463E+02  0.30577877280E+03  0.31322086615E+03  0.00000000000E+00 0.  1.
          1    1    1    2  502    0  0.41183997881E+02 -0.63624950275E+02 -0.65025517460E+02  0.99862775346E+02  0.00000000000E+00 0. -1.
         22    1    1    2    0    0 -0.18026330807E+02  0.36795559137E+02  0.10255987179E+03  0.11044179044E+03  0.00000000000E+00 0.  1.
         22    1    1    2    0    0  0.64144359431E+01 -0.34261883325E+02 -0.23355433789E+02  0.41958287917E+02  0.00000000000E+00 0. -1.
</event>
<event>
 6    1  0.1715574E-005  0.2031346E+03  0.7818608E-02  0.1187976E+00
          2   -1    0    0  502    0  0.00000000000E+00  0.00000000000E+00  0.14042375153E+04  0.14042375153E+04  0.00000000000E+00 0. -1.
          1   -1    0    0  501    0 -0.00000000000E+00 -0.00000000000E+00 -0.69032362529E+02  0.69032362529E+02  0.00000000000E+00 0. -1.
          2    1    1    2  501    0  0.17931515393E+03  0.13086615154E+03  0.61680978423E+03  0.65554113827E+03  0.00000000000E+00 0. -1.
          1    1    1    2  502    0 -0.11679861273E+03 -0.13230449398E+03  0.62634744304E+03  0.65073613274E+03  0.00000000000E+00 0. -1.
         22    1    1    2    0    0  0.16922266538E+02  0.24322858987E+01  0.85595334975E+02  0.87285969600E+02  0.00000000000E+00 0. -1.
         22    1    1    2    0    0 -0.79438807733E+02 -0.99394345875E+00  0.64525905741E+01  0.79706637257E+02  0.00000000000E+00 0. -1.
</event>
<event>
 6    1  0.1715574E-005  0.5591191E+02  0.7818608E-02  0.1443488E+00
          2   -1    0    0  502    0  0.00000000000E+00  0.00000000000E+00  0.42780296419E+03  0.42780296419E+03  0.00000000000E+00 0.  1.
          1   -1    0    0  501    0 -0.00000000000E+00 -0.00000000000E+00 -0.40247173987E+02  0.40247173987E+02  0.00000000000E+00 0.  1.
          2    1    1    2  501    0 -0.20102452913E+02  0.10060114135E+02  0.17942272214E+03  0.18082540676E+03  0.00000000000E+00 0.  1.
          1    1    1    2  502    0  0.54389998548E+01 -0.46747276342E+02  0.11054621029E+02  0.48343512604E+02  0.00000000000E+00 0.  1.
         22    1    1    2    0    0  0.35615421745E+02  0.90843008515E+01 -0.19990710468E+01  0.36810040384E+02  0.00000000000E+00 0. -1.
         22    1    1    2    0    0 -0.20951968686E+02  0.27602861355E+02  0.19907751809E+03  0.20207117844E+03  0.00000000000E+00 0.  1.
</event>
<event>
 6    1  0.1715574E-005  0.1484097E+03  0.7818608E-02  0.1222263E+00
          2   -1    0    0  502    0  0.00000000000E+00  0.00000000000E+00  0.64639828150E+03  0.64639828150E+03  0.00000000000E+00 0. -1.
          1   -1    0    0  501    0 -0.00000000000E+00 -0.00000000000E+00 -0.26465633127E+02  0.26465633127E+02  0.00000000000E+00 0. -1.
          2    1    1    2  501    0 -0.53697544669E+02  0.27030629730E+02  0.19450371288E+03  0.20358235575E+03  0.00000000000E+00 0. -1.
          1    1    1    2  502    0  0.46440117241E+01 -0.57641376317E+02  0.10316587642E+03  0.11826788730E+03  0.00000000000E+00 0. -1.
         22    1    1    2    0    0 -0.89059751177E+01 -0.35994442052E+02  0.36932393002E+02  0.52334672104E+02  0.00000000000E+00 0. -1.
         22    1    1    2    0    0  0.57959508063E+02  0.66605188639E+02  0.28533066607E+03  0.29867899948E+03  0.00000000000E+00 0. -1.
</event>
<event>
 6    1  0.1715574E-005  0.7003523E+02  0.7818608E-02  0.1365315E+00
          2   -1    0    0  502    0  0.00000000000E+00  0.00000000000E+00  0.30382256842E+03  0.30382256842E+03  0.00000000000E+00 0.  1.
          1   -1    0    0  501    0 -0.00000000000E+00 -0.00000000000E+00 -0.33542477064E+02  0.33542477064E+02  0.00000000000E+00 0.  1.
          2    1    1    2  501    0  0.81787691914E+01  0.21286721509E+02  0.56156936434E+02  0.60610381023E+02  0.00000000000E+00 0.  1.
          1    1    1    2  502    0 -0.27547927511E+02 -0.30144034072E+02  0.24845457681E+02  0.47800082298E+02  0.00000000000E+00 0.  1.
         22    1    1    2    0    0 -0.17641156929E+02  0.74780513177E+01 -0.13103299636E+02  0.23212671769E+02  0.00000000000E+00 0.  1.
         22    1    1    2    0    0  0.37010315248E+02  0.13792612453E+01  0.20238099688E+03  0.20574191040E+03  0.00000000000E+00 0.  1.
</event>
<event>
 6    1  0.1715574E-005  0.8605360E+02  0.7818608E-02  0.1338437E+00
          2   -1    0    0  502    0  0.00000000000E+00  0.00000000000E+00  0.43971086822E+03  0.43971086822E+03  0.00000000000E+00 0.  1.
          1   -1    0    0  501    0 -0.00000000000E+00 -0.00000000000E+00 -0.18357388920E+02  0.18357388920E+02  0.00000000000E+00 0.  1.
          2    1    1    2  501    0  0.15765889096E+02 -0.12939564704E+02  0.91750515455E+02  0.93990173316E+02  0.00000000000E+00 0.  1.
          1    1    1    2  502    0  0.23320482084E+02 -0.12050751338E+01  0.37174537466E+02  0.43900379571E+02  0.00000000000E+00 0.  1.
         22    1    1    2    0    0  0.23560130283E+02 -0.54962550122E+01  0.41851887007E+01  0.24552074506E+02  0.00000000000E+00 0.  1.
         22    1    1    2    0    0 -0.62646501463E+02  0.19640894850E+02  0.28824323768E+03  0.29562562975E+03  0.00000000000E+00 0.  1.
</event>
<event>
 6    1  0.1715574E-005  0.1296368E+03  0.7818608E-02  0.1229836E+00
          2   -1    0    0  502    0  0.00000000000E+00  0.00000000000E+00  0.97204495602E+02  0.97204495602E+02  0.00000000000E+00 0. -1.
          1   -1    0    0  501    0 -0.00000000000E+00 -0.00000000000E+00 -0.19276918333E+03  0.19276918333E+03  0.00000000000E+00 0. -1.
          2    1    1    2  501    0  0.76813787995E+02  0.21875534100E+01  0.10327851472E+02  0.77535849335E+02  0.00000000000E+00 0. -1.
          1    1    1    2  502    0 -0.42888133505E+02 -0.26832257932E+02 -0.72546638115E+01  0.51107653129E+02  0.00000000000E+00 0. -1.
         22    1    1    2    0    0  0.17267546558E+02  0.48962649709E+02 -0.53735039848E+01  0.52195629853E+02  0.00000000000E+00 0. -1.
         22    1    1    2    0    0 -0.51193201048E+02 -0.24317945187E+02 -0.93264371407E+02  0.10913454662E+03  0.00000000000E+00 0. -1.
</event>
<event>
 6    1  0.1715574E-005  0.1810677E+03  0.7818608E-02  0.1188308E+00
          2   -1    0    0  502    0  0.00000000000E+00  0.00000000000E+00  0.82969447806E+03  0.82969447806E+03  0.00000000000E+00 0. -1.
          1   -1    0    0  501    0 -0.00000000000E+00 -0.00000000000E+00 -0.36205072990E+02  0.36205072990E+02  0.00000000000E+00 0. -1.
          2    1    1    2  501    0 -0.55461393733E+02  0.44526298471E+02  0.45589779362E+03  0.46141234886E+03  0.00000000000E+00 0. -1.
          1    1    1    2  502    0 -0.96224496312E+01 -0.56527161750E+02  0.19964812608E+03  0.20771924754E+03  0.00000000000E+00 0. -1.
         22    1    1    2    0    0 -0.15032882083E+02  0.30315317996E+02  0.10126913538E+03  0.10677286092E+03  0.00000000000E+00 0.  1.
         22    1    1    2    0    0  0.80116725447E+02 -0.18314454717E+02  0.36674349991E+02  0.89995093728E+02  0.00000000000E+00 0. -1.
</event>
<event>
 6    1  0.1715574E-005  0.6626356E+02  0.7818608E-02  0.1377259E+00
          2   -1    0    0  502    0  0.00000000000E+00  0.00000000000E+00  0.92359918652E+02  0.92359918652E+02  0.00000000000E+00 0.  1.
          1   -1    0    0  501    0 -0.00000000000E+00 -0.00000000000E+00 -0.29705815796E+03  0.29705815796E+03  0.00000000000E+00 0.  1.
          2    1    1    2  501    0  0.46319583216E+00 -0.21007887503E+02  0.16255789974E+02  0.26566832619E+02  0.00000000000E+00 0.  1.
          1    1    1    2  502    0  0.28216428429E+02  0.33664341713E+02 -0.22595046519E+03  0.23018051059E+03  0.00000000000E+00 0.  1.
         22    1    1    2    0    0  0.44801337772E+01  0.16349324769E+02 -0.55387517615E+02  0.57923649114E+02  0.00000000000E+00 0.  1.
         22    1    1    2    0    0 -0.33159758039E+02 -0.29005778979E+02  0.60383953520E+02  0.74747084291E+02  0.00000000000E+00 0.  1.
</event>
<event>
 6    1  0.1715574E-005  0.1208419E+03  0.7818608E-02  0.1304615E+00
          2   -1    0    0  502    0  0.00000000000E+00  0.00000000000E+00  0.56608085915E+03  0.56608085915E+03  0.00000000000E+00 0.  1.
          1   -1    0    0  501    0 -0.00000000000E+00 -0.00000000000E+00 -0.39373271827E+02  0.39373271827E+02  0.00000000000E+00 0.  1.
          2    1    1    2  501    0  0.50105435948E+02 -0.78536789350E+02  0.23310884873E+03  0.25103449435E+03  0.00000000000E+00 0.  1.
          1    1    1    2  502    0 -0.26959250041E+02  0.58338967791E+02  0.77468645211E+02  0.10065598500E+03  0.00000000000E+00 0.  1.
         22    1    1    2    0    0 -0.59135695676E+02  0.20992794212E+02  0.40967865496E+02  0.74940602581E+02  0.00000000000E+00 0.  1.
         22    1    1    2    0    0  0.35989509769E+02 -0.79497265297E+00  0.17516222788E+03  0.17882304905E+03  0.00000000000E+00 0.  1.
</event>
<event>
 6    1  0.1715574E-005  0.4466696E+02  0.7818608E-02  0.1505652E+00
          2   -1    0    0  502    0  0.00000000000E+00  0.00000000000E+00  0.12862334764E+03  0.12862334764E+03  0.00000000000E+00 0. -1.
          1   -1    0    0  501    0 -0.00000000000E+00 -0.00000000000E+00 -0.30132015281E+03  0.30132015281E+03  0.00000000000E+00 0. -1.
          2    1    1    2  501    0  0.11893711863E+02 -0.58078704303E+02  0.75612060310E+02  0.96082152035E+02  0.00000000000E+00 0. -1.
          1    1    1    2  502    0 -0.11081378305E+02  0.38501328667E+02 -0.18922817054E+03  0.19342298152E+03  0.00000000000E+00 0. -1.
         22    1    1    2    0    0 -0.20293947725E+02 -0.64026351936E+01  0.34972053070E+02  0.40937544475E+02  0.00000000000E+00 0.  1.
         22    1    1    2    0    0  0.19481614166E+02  0.25980010829E+02 -0.94052748012E+02  0.99500822418E+02  0.00000000000E+00 0. -1.
</event>
<event>
 6    1  0.1715574E-005  0.1023455E+03  0.7818608E-02  0.1278615E+00
          2   -1    0    0  502    0  0.00000000000E+00  0.00000000000E+00  0.19412833969E+03  0.19412833969E+03  0.00000000000E+00 0.  1.
          1   -1    0    0  501    0 -0.00000000000E+00 -0.00000000000E+00 -0.34455266070E+03  0.34455266070E+03  0.00000000000E+00 0.  1.
          2    1    1    2  501    0 -0.62763957432E+02 -0.36905685340E+02  0.12988194996E+03  0.14889816952E+03  0.00000000000E+00 0.  1.
          1    1    1    2  502    0  0.78415975414E+02  0.20337806214E+02 -0.24236555503E+03  0.25554599161E+03  0.00000000000E+00 0.  1.
         22    1    1    2    0    0  0.76814437439E+01  0.19278300589E+02 -0.81849582312E+02  0.84439395878E+02  0.00000000000E+00 0. -1.
         22    1    1    2    0    0 -0.23333461726E+02 -0.27104214630E+01  0.43908866383E+02  0.49797443385E+02  0.00000000000E+00 0.  1.
</event>
<event>
 6    1  0.1715574E-005  0.3782960E+02  0.7818608E-02  0.1585148E+00
          2   -1    0    0  502    0  0.00000000000E+00  0.00000000000E+00  0.13668292362E+03  0.13668292362E+03  0.00000000000E+00 0.  1.
          1   -1    0    0  501    0 -0.00000000000E+00 -0.00000000000E+00 -0.67258229636E+02  0.67258229636E+02  0.00000000000E+00 0.  1.
          2    1    1    2  501    0  0.11738909948E+02 -0.19431228750E+02  0.33880935641E+02  0.40783482654E+02  0.00000000000E+00 0.  1.
          1    1    1    2  502    0  0.31758609683E+01  0.20083453962E+02 -0.19214035795E+02  0.27975174485E+02  0.00000000000E+00 0.  1.
         22    1    1    2    0    0 -0.71003601740E+01 -0.16008627822E+02  0.92262142072E+02  0.93909499727E+02  0.00000000000E+00 0.  1.
         22    1    1    2    0    0 -0.78144107427E+01  0.15356402610E+02 -0.37504347937E+02  0.41272996385E+02  0.00000000000E+00 0.  1.
</event>
<event>
 6    1  0.1715574E-005  0.1496314E+03  0.7818608E-02  0.1214702E+00
          2   -1    0    0  502    0  0.00000000000E+00  0.00000000000E+00  0.27914871439E+03  0.27914871439E+03  0.00000000000E+00 0. -1.
          1   -1    0    0  501    0 -0.00000000000E+00 -0.00000000000E+00 -0.68014407418E+02  0.68014407418E+02  0.00000000000E+00 0. -1.
          2    1    1    2  501    0 -0.20884653449E+02  0.42420578369E+02  0.62143104873E+01  0.47689536312E+02  0.00000000000E+00 0. -1.
          1    1    1    2  502    0 -0.33179452029E+02 -0.59895252203E+02  0.25083941813E+02  0.72921337140E+02  0.00000000000E+00 0. -1.
         22    1    1    2    0    0  0.39272563457E+02  0.57625558843E+02  0.16839039943E+03  0.18225906258E+03  0.00000000000E+00 0. -1.
         22    1    1    2    0    0  0.14791542021E+02 -0.40150885009E+02  0.11445655243E+02  0.44293185778E+02  0.00000000000E+00 0. -1.
</event>
<event>
 6    1  0.1715574E-005  0.1237690E+03  0.7818608E-02  0.1237785E+00
          2   -1    0    0  502    0  0.00000000000E+00  0.00000000000E+00  0.28693988264E+03  0.28693988264E+03  0.00000000000E+00 0.  1.
          1   -1    0    0  501    0 -0.00000000000E+00 -0.00000000000E+00 -0.10494370619E+03  0.10494370619E+03  0.00000000000E+00 0. -1.
          2    1    1    2  501    0  0.12321420201E+01 -0.85418884892E+02  0.15137067253E+03  0.17381307365E+03  0.00000000000E+00 0.  1.
          1    1    1    2  502    0  0.15579287781E+02  0.61368276664E+02 -0.40792876034E+02  0.75318246950E+02  0.00000000000E+00 0. -1.
         22    1    1    2    0    0 -0.22504519799E+02 -0.30754766490E+02  0.78438957449E+02  0.87206531401E+02  0.00000000000E+00 0. -1.
         22    1    1    2    0    0  0.56930899979E+01  0.54805374718E+02 -0.70205774841E+01  0.55545736829E+02  0.00000000000E+00 0. -1.
</event>
<event>
 6    1  0.1715574E-005  0.1060103E+03  0.7818608E-02  0.1319111E+00
          2   -1    0    0  502    0  0.00000000000E+00  0.00000000000E+00  0.78514849060E+02  0.78514849060E+02  0.00000000000E+00 0.  1.
          1   -1    0    0  501    0 -0.00000000000E+00 -0.00000000000E+00 -0.25408183165E+03  0.25408183165E+03  0.00000000000E+00 0.  1.
          2    1    1    2  501    0  0.14962363451E+02 -0.28029054339E+02 -0.14885267265E+02  0.35086626922E+02  0.00000000000E+00 0.  1.
          1    1    1    2  502    0  0.20396502962E+02  0.52501830338E+01 -0.16773466155E+03  0.16905176261E+03  0.00000000000E+00 0.  1.
         22    1    1    2    0    0 -0.51164854796E+02  0.22222706461E+02  0.54777719701E+02  0.78181133430E+02  0.00000000000E+00 0.  1.
         22    1    1    2    0    0  0.15805988383E+02  0.55616484430E+00 -0.47724773473E+02  0.50277157748E+02  0.00000000000E+00 0.  1.
</event>
<event>
 6    1  0.1715574E-005  0.1279554E+03  0.7818608E-02  0.1230881E+00
          2   -1    0    0  502    0  0.00000000000E+00  0.00000000000E+00  0.76472180805E+03  0.76472180805E+03  0.00000000000E+00 0.  1.
          1   -1    0    0  501    0 -0.00000000000E+00 -0.00000000000E+00 -0.41071099234E+02  0.41071099234E+02  0.00000000000E+00 0.  1.
          2    1    1    2  501    0  0.94563616946E+02 -0.31923192947E+01  0.49972971325E+03  0.50860815453E+03  0.00000000000E+00 0.  1.
          1    1    1    2  502    0 -0.40998590568E+02 -0.54597421899E+00  0.10043735545E+02  0.42214442317E+02  0.00000000000E+00 0.  1.
         22    1    1    2    0    0  0.26204871140E+02 -0.18400494340E+02  0.14127824094E+03  0.14486136416E+03  0.00000000000E+00 0.  1.
         22    1    1    2    0    0 -0.79769897518E+02  0.22138787854E+02  0.72599019078E+02  0.11010894627E+03  0.00000000000E+00 0.  1.
</event>
<event>
 6    1  0.1715574E-005  0.8035620E+02  0.7818608E-02  0.1342252E+00
          2   -1    0    0  502    0  0.00000000000E+00  0.00000000000E+00  0.51201899330E+03  0.51201899330E+03  0.00000000000E+00 0.  1.
          1   -1    0    0  501    0 -0.00000000000E+00 -0.00000000000E+00 -0.78891238409E+02  0.78891238409E+02  0.00000000000E+00 0. -1.
          2    1    1    2  501    0 -0.62323992821E+02  0.11748433029E+01  0.34847375857E+03  0.35400511402E+03  0.00000000000E+00 0.  1.
          1    1    1    2  502    0  0.58807824692E+02 -0.51464488761E+02  0.57584791318E+00  0.78149123151E+02  0.00000000000E+00 0. -1.
         22    1    1    2    0    0 -0.18034546701E+02 -0.85977315567E+01  0.93263884410E+02  0.95379861595E+02  0.00000000000E+00 0.  1.
         22    1    1    2    0    0  0.21550714830E+02  0.58887377014E+02 -0.91857360023E+01  0.63376132946E+02  0.00000000000E+00 0. -1.
</event>
<event>
 6    1  0.2068183E-005  0.3059258E+03  0.7818608E-02  0.1181514E+00
          2   -1    0    0  502    0  0.00000000000E+00  0.00000000000E+00  0.42967042244E+03  0.42967042244E+03  0.00000000000E+00 0. -1.
          1   -1    0    0  501    0 -0.00000000000E+00 -0.00000000000E+00 -0.41702038474E+03  0.41702038474E+03  0.00000000000E+00 0.  1.
          2    1    1    2  501    0  0.20067903566E+03 -0.19446371118E+03  0.21110746395E+03  0.35022074704E+03  0.00000000000E+00 0. -1.
          1    1    1    2  502    0 -0.19269039169E+03  0.20551689957E+03 -0.23484112520E+03  0.36676577968E+03  0.00000000000E+00 0.  1.
         22    1    1    2    0    0  0.17632315417E+02 -0.20264809134E+02  0.76580280874E+02  0.81154793173E+02  0.00000000000E+00 0. -1.
         22    1    1    2    0    0 -0.25620959391E+02  0.92116207470E+01 -0.40196581930E+02  0.48549487287E+02  0.00000000000E+00 0. -1.
</event>
<event>
 6    1  0.1715574E-005  0.2367036E+03  0.7818608E-02  0.1213104E+00
          2   -1    0    0  502    0  0.00000000000E+00  0.00000000000E+00  0.41242140385E+03  0.41242140385E+03  0.00000000000E+00 0. -1.
          1   -1    0    0  501    0 -0.00000000000E+00 -0.00000000000E+00 -0.24785842095E+03  0.24785842095E+03  0.00000000000E+00 0. -1.
          2    1    1    2  501    0 -0.15090199484E+03  0.15075296261E+03  0.28048778466E+03  0.35237943346E+03  0.00000000000E+00 0. -1.
          1    1    1    2  502    0  0.11263163386E+03 -0.57894670557E+02 -0.41739274387E+02  0.13334108463E+03  0.00000000000E+00 0. -1.
         22    1    1    2    0    0  0.66020105646E+02 -0.84078972197E+02 -0.91482827108E+02  0.14070193876E+03  0.00000000000E+00 0. -1.
         22    1    1    2    0    0 -0.27749744668E+02 -0.87793198568E+01  0.17297299737E+02  0.33857367949E+02  0.00000000000E+00 0.  1.
</event>
<event>
 6    1  0.1715574E-005  0.3465025E+02  0.7818608E-02  0.1577768E+00
          2   -1    0    0  502    0  0.00000000000E+00  0.00000000000E+00  0.79181791754E+02  0.79181791754E+02  0.00000000000E+00 0. -1.
          1   -1    0    0  501    0 -0.00000000000E+00 -0.00000000000E+00 -0.14571060627E+04  0.14571060627E+04  0.00000000000E+00 0.  1.
          2    1    1    2  501    0  0.30764186955E+02  0.76567676611E+02 -0.12078390392E+02  0.83396233819E+02  0.00000000000E+00 0. -1.
          1    1    1    2  502    0 -0.56350804244E+01 -0.67045859330E+02 -0.13102161869E+04  0.13119425893E+04  0.00000000000E+00 0.  1.
         22    1    1    2    0    0 -0.86752113890E+01 -0.83054691589E+01  0.41101826389E+02  0.42820558650E+02  0.00000000000E+00 0. -1.
         22    1    1    2    0    0 -0.16453895142E+02 -0.12163481221E+01 -0.96731520025E+02  0.98128472598E+02  0.00000000000E+00 0. -1.
</event>
<event>
 6    1  0.1715574E-005  0.6899171E+02  0.7818608E-02  0.1369967E+00
          2   -1    0    0  502    0  0.00000000000E+00  0.00000000000E+00  0.87330333721E+02  0.87330333721E+02  0.00000000000E+00 0.  1.
          1   -1    0    0  501    0 -0.00000000000E+00 -0.00000000000E+00 -0.21381554209E+03  0.21381554209E+03  0.00000000000E+00 0. -1.
          2    1    1    2  501    0  0.27378657816E+02  0.31905973561E+02  0.40667298370E+02  0.58492830410E+02  0.00000000000E+00 0.  1.
          1    1    1    2  502    0 -0.14809312308E+02 -0.34065545487E+02 -0.85185895108E+02  0.92932307868E+02  0.00000000000E+00 0. -1.
         22    1    1    2    0    0  0.16741618524E+02  0.93939946644E+01  0.28967865120E+02  0.34751491136E+02  0.00000000000E+00 0.  1.
         22    1    1    2    0    0 -0.29310964032E+02 -0.72344227388E+01 -0.11093447676E+03  0.11496924640E+03  0.00000000000E+00 0. -1.
</event>
<event>
 6    1  0.1715574E-005  0.1261031E+03  0.7818608E-02  0.1233961E+00
          2   -1    0    0  502    0  0.00000000000E+00  0.00000000000E+00  0.58805526976E+03  0.58805526976E+03  0.00000000000E+00 0. -1.
          1   -1    0    0  501    0 -0.00000000000E+00 -0.00000000000E+00 -0.72508721081E+02  0.72508721081E+02  0.00000000000E+00 0. -1.
          2    1    1    2  501    0  0.12807048408E+02  0.10821663740E+03  0.45754236015E+03  0.47034016672E+03  0.00000000000E+00 0. -1.
          1    1    1    2  502    0  0.36539652631E+00 -0.31490098156E+02  0.10083469470E+02  0.33067146128E+02  0.00000000000E+00 0. -1.
         22    1    1    2    0    0 -0.86306806286E+01 -0.91606460030E+02 -0.14214284760E+02  0.93103587785E+02  0.00000000000E+00 0. -1.
         22    1    1    2    0    0 -0.45417643055E+01  0.14879920789E+02  0.62135003815E+02  0.64053090205E+02  0.00000000000E+00 0.  1.
</event>
<event>
 6    1  0.1715574E-005  0.1207422E+03  0.7818608E-02  0.1249059E+00
          2   -1    0    0  502    0  0.00000000000E+00  0.00000000000E+00  0.14316299386E+03  0.14316299386E+03  0.00000000000E+00 0.  1.
          1   -1    0    0  501    0 -0.00000000000E+00 -0.00000000000E+00 -0.10061016106E+03  0.10061016106E+03  0.00000000000E+00 0.  1.
          2    1    1    2  501    0  0.60491213139E+01 -0.19894376214E+02  0.11062741095E+02  0.23553392838E+02  0.00000000000E+00 0.  1.
          1    1    1    2  502    0 -0.60661267410E+02 -0.40989291715E+01 -0.26319455047E+02  0.66251824866E+02  0.00000000000E+00 0.  1.
         22    1    1    2    0    0 -0.35966245552E+02 -0.18258705108E+02  0.42100334456E+01  0.40554599159E+02  0.00000000000E+00 0.  1.
         22    1    1    2    0    0  0.90578391648E+02  0.42252010494E+02  0.53599513301E+02  0.11341333806E+03  0.00000000000E+00 0.  1.
</event>
<event>
 6    1  0.1715574E-005  0.8181955E+02  0.7818608E-02  0.1349411E+00
          2   -1    0    0  502    0  0.00000000000E+00  0.00000000000E+00  0.40428920474E+02  0.40428920474E+02  0.00000000000E+00 0. -1.
          1   -1    0    0  501    0 -0.00000000000E+00 -0.00000000000E+00 -0.82211933050E+03  0.82211933050E+03  0.00000000000E+00 0. -1.
          2    1    1    2  501    0  0.63934552372E+02 -0.49550491165E+02 -0.35611248456E+03  0.36518348788E+03  0.00000000000E+00 0. -1.
          1    1    1    2  502    0 -0.73513715149E+02 -0.32834187892E+02 -0.27882087829E+03  0.29021273642E+03  0.00000000000E+00 0. -1.
         22    1    1    2    0    0  0.60802822912E+02  0.70740609206E+02 -0.86526510075E+02  0.12723228368E+03  0.00000000000E+00 0. -1.
         22    1    1    2    0    0 -0.51223660135E+02  0.11644069852E+02 -0.60230537101E+02  0.79919742991E+02  0.00000000000E+00 0. -1.
</event>
<event>
 6    1  0.1715574E-005  0.4407863E+02  0.7818608E-02  0.1546274E+00
          2   -1    0    0  502    0  0.00000000000E+00  0.00000000000E+00  0.10274173325E+03  0.10274173325E+03  0.00000000000E+00 0. -1.
          1   -1    0    0  501    0 -0.00000000000E+00 -0.00000000000E+00 -0.38293933179E+03  0.38293933179E+03  0.00000000000E+00 0.  1.
          2    1    1    2  501    0 -0.29690137389E+02  0.90512362661E+00  0.58750058581E+02  0.65832308863E+02  0.00000000000E+00 0. -1.
          1    1    1    2  502    0  0.28845927238E+02  0.17818427219E+02 -0.27400159048E+03  0.27609138967E+03  0.00000000000E+00 0.  1.
         22    1    1    2    0    0  0.13441360601E+02 -0.12055626426E+02 -0.10224547899E+03  0.10382748325E+03  0.00000000000E+00 0. -1.
         22    1    1    2    0    0 -0.12597150450E+02 -0.66679244200E+01  0.37299412345E+02  0.39929883256E+02  0.00000000000E+00 0. -1.
</event>
<event>
 6    1  0.1715574E-005  0.1887046E+03  0.7818608E-02  0.1163451E+00
          2   -1    0    0  502    0  0.00000000000E+00  0.00000000000E+00  0.40126314906E+03  0.40126314906E+03  0.00000000000E+00 0.  1.
          1   -1    0    0  501    0 -0.00000000000E+00 -0.00000000000E+00 -0.16171715346E+03  0.16171715346E+03  0.00000000000E+00 0. -1.
          2    1    1    2  501    0  0.28117096505E+02  0.15332004894E+03  0.26859322493E+03  0.31054778859E+03  0.00000000000E+00 0.  1.
          1    1    1    2  502    0  0.21991000821E+02 -0.87154664307E+02 -0.48917848131E+02  0.10233521140E+03  0.00000000000E+00 0. -1.
         22    1    1    2    0    0  0.63828504433E+01  0.13165441121E+02  0.46816374605E+02  0.49049388894E+02  0.00000000000E+00 0.  1.
         22    1    1    2    0    0 -0.56490947769E+02 -0.79330825749E+02 -0.26945755803E+02  0.10104791363E+03  0.00000000000E+00 0. -1.
</event>
<event>
 6    1  0.1715574E-005  0.2094598E+03  0.7818608E-02  0.1247473E+00
          2   -1    0    0  502    0  0.00000000000E+00  0.00000000000E+00  0.19614716795E+03  0.19614716795E+03  0.00000000000E+00 0. -1.
          1   -1    0    0  501    0 -0.00000000000E+00 -0.00000000000E+00 -0.31974408563E+03  0.31974408563E+03  0.00000000000E+00 0. -1.
          2    1    1    2  501    0  0.12576599870E+03 -0.42522105552E+02 -0.78369736264E+02  0.15416559750E+03  0.00000000000E+00 0. -1.
          1    1    1    2  502    0 -0.19110060663E+03  0.25898436005E+02  0.37297189651E+02  0.19642110680E+03  0.00000000000E+00 0. -1.
         22    1    1    2    0    0  0.75842997820E+02 -0.11660785916E+01  0.43794834217E+01  0.75978285928E+02  0.00000000000E+00 0.  1.
         22    1    1    2    0    0 -0.10508389893E+02  0.17789748139E+02 -0.86903854497E+02  0.89326263347E+02  0.00000000000E+00 0. -1.
</event>
<event>
 6    1  0.1715574E-005  0.6690184E+02  0.7818608E-02  0.1379647E+00
          2   -1    0    0  502    0  0.00000000000E+00  0.00000000000E+00  0.55898977863E+02  0.55898977863E+02  0.00000000000E+00 0.  1.
          1   -1    0    0  501    0 -0.00000000000E+00 -0.00000000000E+00 -0.18088276785E+03  0.18088276785E+03  0.00000000000E+00 0.  1.
          2    1    1    2  501    0 -0.80350993447E+01 -0.26117202246E+02 -0.18490458417E+01  0.27387771818E+02  0.00000000000E+00 0.  1.
          1    1    1    2  502    0  0.17997897869E+02  0.12809552353E+02 -0.71526690079E+02  0.74860379059E+02  0.00000000000E+00 0.  1.
         22    1    1    2    0    0  0.19716197232E+02  0.29224415742E+02 -0.81945278185E+02  0.89206633865E+02  0.00000000000E+00 0. -1.
         22    1    1    2    0    0 -0.29678995756E+02 -0.15916765849E+02  0.30337224115E+02  0.45326960975E+02  0.00000000000E+00 0.  1.
</event>
<event>
 6    1  0.1715574E-005  0.7374704E+02  0.7818608E-02  0.1377260E+00
          2   -1    0    0  502    0  0.00000000000E+00  0.00000000000E+00  0.34457626834E+03  0.34457626834E+03  0.00000000000E+00 0.  1.
          1   -1    0    0  501    0 -0.00000000000E+00 -0.00000000000E+00 -0.65495575929E+02  0.65495575929E+02  0.00000000000E+00 0.  1.
          2    1    1    2  501    0 -0.24073936261E+02  0.25812318568E+01  0.23268361991E+03  0.23393991566E+03  0.00000000000E+00 0.  1.
          1    1    1    2  502    0  0.24653766776E+01  0.29559291229E+02 -0.71402910338E+01  0.30509236899E+02  0.00000000000E+00 0.  1.
         22    1    1    2    0    0 -0.14432082632E+02 -0.11400007987E+02  0.89056268925E+02  0.90935494864E+02  0.00000000000E+00 0.  1.
         22    1    1    2    0    0  0.36040642216E+02 -0.20740515099E+02 -0.35518905394E+02  0.54687196841E+02  0.00000000000E+00 0.  1.
</event>
<event>
 6    1  0.1715574E-005  0.1040202E+03  0.7818608E-02  0.1323241E+00
          2   -1    0    0  502    0  0.00000000000E+00  0.00000000000E+00  0.36671739594E+02  0.36671739594E+02  0.00000000000E+00 0. -1.
          1   -1    0    0  501    0 -0.00000000000E+00 -0.00000000000E+00 -0.12879141558E+04  0.12879141558E+04  0.00000000000E+00 0. -1.
          2    1    1    2  501    0  0.86285141637E+02  0.97757381299E+02 -0.71876073086E+03  0.73049203931E+03  0.00000000000E+00 0. -1.
          1    1    1    2  502    0 -0.13209715694E+01 -0.71487300119E+02 -0.51763499027E+02  0.88270260426E+02  0.00000000000E+00 0. -1.
         22    1    1    2    0    0  0.22623937724E+02 -0.33391205633E+02 -0.22037444410E+03  0.22403506597E+03  0.00000000000E+00 0.  1.
         22    1    1    2    0    0 -0.10758810779E+03  0.71211244532E+01 -0.26034374221E+03  0.28178852968E+03  0.00000000000E+00 0. -1.
</event>
<event>
 6    1  0.1715574E-005  0.1376820E+03  0.7818608E-02  0.1221219E+00
          2   -1    0    0  502    0  0.00000000000E+00  0.00000000000E+00  0.40492889505E+02  0.40492889505E+02  0.00000000000E+00 0. -1.
          1   -1    0    0  501    0 -0.00000000000E+00 -0.00000000000E+00 -0.46219697396E+03  0.46219697396E+03  0.00000000000E+00 0. -1.
          2    1    1    2  501    0 -0.63975800014E+02  0.24471259844E+02 -0.69126726682E+02  0.97315208922E+02  0.00000000000E+00 0. -1.
          1    1    1    2  502    0  0.55731908511E+02  0.30611679709E+02 -0.98864508554E+02  0.11754706127E+03  0.00000000000E+00 0. -1.
         22    1    1    2    0    0 -0.52180080380E+02 -0.20576176670E+02 -0.60663558041E+02  0.82620863642E+02  0.00000000000E+00 0.  1.
         22    1    1    2    0    0  0.60423971883E+02 -0.34506762883E+02 -0.19304929118E+03  0.20520672964E+03  0.00000000000E+00 0. -1.
</event>
<event>
 6    1  0.1715574E-005  0.1223762E+03  0.7818608E-02  0.1240917E+00
          2   -1    0    0  502    0  0.00000000000E+00  0.00000000000E+00  0.86531417943E+03  0.86531417943E+03  0.00000000000E+00 0. -1.
          1   -1    0    0  501    0 -0.00000000000E+00 -0.00000000000E+00 -0.16728845182E+02  0.16728845182E+02  0.00000000000E+00 0. -1.
          2    1    1    2  501    0 -0.20659212565E+02  0.40739281305E+02  0.89138415636E+02  0.10016061725E+03  0.00000000000E+00 0. -1.
          1    1    1    2  502    0  0.17641760315E+02 -0.56626365611E+02  0.28992509918E+03  0.29592962022E+03  0.00000000000E+00 0. -1.
         22    1    1    2    0    0  0.48251714912E+02  0.42136427387E+02  0.34495249206E+03  0.35085029327E+03  0.00000000000E+00 0. -1.
         22    1    1    2    0    0 -0.45234262662E+02 -0.26249343080E+02  0.12456932737E+03  0.13510249387E+03  0.00000000000E+00 0.  1.
</event>
<event>
 6    1  0.1715574E-005  0.2526281E+03  0.7818608E-02  0.1136839E+00
          2   -1    0    0  502    0  0.00000000000E+00  0.00000000000E+00  0.11864115854E+03  0.11864115854E+03  0.00000000000E+00 0.  1.
          1   -1    0    0  501    0 -0.00000000000E+00 -0.00000000000E+00 -0.35437334134E+03  0.35437334134E+03  0.00000000000E+00 0.  1.
          2    1    1    2  501    0  0.13553513166E+02  0.16831024693E+02 -0.21446079333E+03  0.21554677680E+03  0.00000000000E+00 0.  1.
          1    1    1    2  502    0  0.90249421151E+02 -0.89026666357E+01  0.91704208293E+01  0.91149943004E+02  0.00000000000E+00 0.  1.
         22    1    1    2    0    0 -0.11226304783E+03 -0.46107829005E+02 -0.89421434019E+01  0.12169176526E+03  0.00000000000E+00 0.  1.
         22    1    1    2    0    0  0.84601135105E+01  0.38179470948E+02 -0.21499666892E+02  0.44626014822E+02  0.00000000000E+00 0.  1.
</event>
<event>
 6    1  0.1715574E-005  0.5079000E+02  0.7818608E-02  0.1443502E+00
          2   -1    0    0  502    0  0.00000000000E+00  0.00000000000E+00  0.29673704279E+03  0.29673704279E+03  0.00000000000E+00 0. -1.
          1   -1    0    0  501    0 -0.00000000000E+00 -0.00000000000E+00 -0.15772480360E+03  0.15772480360E+03  0.00000000000E+00 0.  1.
          2    1    1    2  501    0 -0.28978748170E+02  0.23182333963E+02  0.22596960260E+03  0.22899661515E+03  0.00000000000E+00 0. -1.
          1    1    1    2  502    0  0.31545751192E+02 -0.18034983595E+02 -0.97141938881E+02  0.10371572369E+03  0.00000000000E+00 0.  1.
         22    1    1    2    0    0  0.10740707121E+02 -0.34189970992E+01 -0.54517452497E+02  0.55670503477E+02  0.00000000000E+00 0.  1.
         22    1    1    2    0    0 -0.13307710142E+02 -0.17283532689E+01  0.64702027970E+02  0.66079004061E+02  0.00000000000E+00 0. -1.
</event>
<event>
 6    1  0.1715574E-005  0.6933513E+02  0.7818608E-02  0.1387718E+00
          2   -1    0    0  502    0  0.00000000000E+00  0.00000000000E+00  0.22593417933E+03  0.22593417933E+03  0.00000000000E+00 0.  1.
          1   -1    0    0  501    0 -0.00000000000E+00 -0.00000000000E+00 -0.64497507095E+02  0.64497507095E+02  0.00000000000E+00 0.  1.
          2    1    1    2  501    0  0.14441717235E+02 -0.23273455160E+02  0.44041134598E+02  0.51863652479E+02  0.00000000000E+00 0.  1.
          1    1    1    2  502    0 -0.48625279487E+02  0.13579448800E+02  0.89713549035E+02  0.10294338306E+03  0.00000000000E+00 0.  1.
         22    1    1    2    0    0 -0.27629547175E+02  0.36419175053E+02 -0.23158789646E+02  0.51245270284E+02  0.00000000000E+00 0.  1.
         22    1    1    2    0    0  0.61813109427E+02 -0.26725168693E+02  0.50840778252E+02  0.84379380609E+02  0.00000000000E+00 0.  1.
</event>
<event>
 6    1  0.1715574E-005  0.4005680E+02  0.7818608E-02  0.1580220E+00
          2   -1    0    0  502    0  0.00000000000E+00  0.00000000000E+00  0.78845426795E+02  0.78845426795E+02  0.00000000000E+00 0.  1.
          1   -1    0    0  501    0 -0.00000000000E+00 -0.00000000000E+00 -0.28488150709E+03  0.28488150709E+03  0.00000000000E+00 0. -1.
          2    1    1    2  501    0  0.37132803236E+02 -0.10259918003E+02 -0.58440675363E+02  0.69995882240E+02  0.00000000000E+00 0.  1.
          1    1    1    2  502    0 -0.20854042695E+02  0.17896397949E+02 -0.16765710781E+03  0.16989431408E+03  0.00000000000E+00 0. -1.
         22    1    1    2    0    0 -0.10646099144E+02  0.69895477165E+01 -0.50229755787E+02  0.51819123600E+02  0.00000000000E+00 0. -1.
         22    1    1    2    0    0 -0.56326613975E+01 -0.14626027663E+02  0.70291458668E+02  0.72017613966E+02  0.00000000000E+00 0.  1.
</event>
<event>
 6    1  0.1715574E-005  0.1089315E+03  0.7818608E-02  0.1373585E+00
          2   -1    0    0  502    0  0.00000000000E+00  0.00000000000E+00  0.24795022468E+03  0.24795022468E+03  0.00000000000E+00 0. -1.
          1   -1    0    0  501    0 -0.00000000000E+00 -0.00000000000E+00 -0.93095397486E+02  0.93095397486E+02  0.00000000000E+00 0. -1.
          2    1    1    2  501    0  0.81659825790E+02  0.47109488245E+02  0.11264131078E+03  0.14688667716E+03  0.00000000000E+00 0. -1.
          1    1    1    2  502    0 -0.43459784301E+02 -0.31053448412E+02 -0.18489414428E+01  0.53446123285E+02  0.00000000000E+00 0. -1.
         22    1    1    2    0    0  0.10351942866E+02  0.10634380712E+02  0.75544502688E+02  0.76988470959E+02  0.00000000000E+00 0. -1.
         22    1    1    2    0    0 -0.48551984355E+02 -0.26690420544E+02 -0.31482044834E+02  0.63724350767E+02  0.00000000000E+00 0. -1.
</event>
<event>
 6    1  0.1715574E-005  0.1121518E+03  0.7818608E-02  0.1269858E+00
          2   -1    0    0  502    0  0.00000000000E+00  0.00000000000E+00  0.74527683497E+03  0.74527683497E+03  0.00000000000E+00 0. -1.
          1   -1    0    0  501    0 -0.00000000000E+00 -0.00000000000E+00 -0.40746771897E+02  0.40746771897E+02  0.00000000000E+00 0. -1.
          2    1    1    2  501    0 -0.38103240571E+02  0.40665171228E+02  0.51729806943E+03  0.52029107789E+03  0.00000000000E+00 0. -1.
          1    1    1    2  502    0  0.46750499607E+02  0.23167948867E+01  0.23292344741E+02  0.52282980745E+02  0.00000000000E+00 0. -1.
         22    1    1    2    0    0  0.88525118638E+01 -0.64428411754E+02  0.21725499919E+02  0.68566643159E+02  0.00000000000E+00 0. -1.
         22    1    1    2    0    0 -0.17499770900E+02  0.21446445639E+02  0.14221414898E+03  0.14488290507E+03  0.00000000000E+00 0.  1.
</event>
<event>
 6    1  0.1715574E-005  0.1829331E+03  0.7818608E-02  0.1170068E+00
          2   -1    0    0  502    0  0.00000000000E+00  0.00000000000E+00  0.47961002373E+03  0.47961002373E+03  0.00000000000E+00 0. -1.
          1   -1    0    0  501    0 -0.00000000000E+00 -0.00000000000E+00 -0.85635282040E+02  0.85635282040E+02  0.00000000000E+00 0. -1.
          2    1    1    2  501    0 -0.65566122595E+02  0.36458832537E+02 -0.24027176162E+02  0.78774793535E+02  0.00000000000E+00 0. -1.
          1    1    1    2  502    0  0.38065633858E+02  0.14806612077E+02  0.31560659708E+03  0.31823851490E+03  0.00000000000E+00 0. -1.
         22    1    1    2    0    0 -0.41928342965E+02 -0.43898408486E+02  0.65348003165E+02  0.89193148442E+02  0.00000000000E+00 0. -1.
         22    1    1    2    0    0  0.69428831702E+02 -0.73670361282E+01  0.37047317605E+02  0.79038848894E+02  0.00000000000E+00 0.  1.
</event>
<event>
 6    1  0.1715574E-005  0.4718993E+02  0.7818608E-02  0.1514064E+00
          2   -1    0    0  502    0  0.00000000000E+00  0.00000000000E+00  0.41269997866E+03  0.41269997866E+03  0.00000000000E+00 0. -1.
          1   -1    0    0  501    0 -0.00000000000E+00 -0.00000000000E+00 -0.33215599148E+03  0.33215599148E+03  0.00000000000E+00 0.  1.
          2    1    1    2  501    0  0.70712729053E+01 -0.10436697175E+03  0.31903107637E+03  0.33574290072E+03  0.00000000000E+00 0. -1.
          1    1    1    2  502    0  0.17877975893E+01  0.88105906728E+02 -0.26624306922E+03  0.28044824643E+03  0.00000000000E+00 0.  1.
         22    1    1    2    0    0  0.11270282873E+02  0.26213872736E+01 -0.47858256339E+02  0.49237218109E+02  0.00000000000E+00 0.  1.
         22    1    1    2    0    0 -0.20129353368E+02  0.13639677746E+02  0.75614236364E+02  0.79427604880E+02  0.00000000000E+00 0. -1.
</event>
<event>
 6    1  0.1715574E-005  0.2417720E+02  0.7818608E-02  0.1675792E+00
          2   -1    0    0  502    0  0.00000000000E+00  0.00000000000E+00  0.73060543010E+02  0.73060543010E+02  0.00000000000E+00 0. -1.
          1   -1    0    0  501    0 -0.00000000000E+00 -0.00000000000E+00 -0.13794537751E+03  0.13794537751E+03  0.00000000000E+00 0. -1.
          2    1    1    2  501    0 -0.17739391203E+02 -0.21355059707E+02  0.23683833118E+02  0.36491759707E+02  0.00000000000E+00 0. -1.
          1    1    1    2  502    0  0.19785903040E+02  0.13963897868E+02 -0.31973140268E+02  0.40109276998E+02  0.00000000000E+00 0. -1.
         22    1    1    2    0    0  0.14432466790E+02  0.99376914550E+01 -0.92855612571E+02  0.94494542673E+02  0.00000000000E+00 0. -1.
         22    1    1    2    0    0 -0.16478978627E+02 -0.25465296155E+01  0.36260085222E+02  0.39910341141E+02  0.00000000000E+00 0. -1.
</event>
<event>
 6    1  0.1715574E-005  0.1059237E+03  0.7818608E-02  0.1283511E+00
          2   -1    0    0  502    0  0.00000000000E+00  0.00000000000E+00  0.39877394836E+02  0.39877394836E+02  0.00000000000E+00 0. -1.
          1   -1    0    0  501    0 -0.00000000000E+00 -0.00000000000E+00 -0.28407110234E+03  0.28407110234E+03  0.00000000000E+00 0. -1.
          2    1    1    2  501    0 -0.42949584976E+02 -0.30681556293E+02 -0.76379097100E+02  0.92842830741E+02  0.00000000000E+00 0. -1.
          1    1    1    2  502    0  0.25103936182E+02  0.11261656870E+02 -0.33351482030E+02  0.43236025267E+02  0.00000000000E+00 0. -1.
         22    1    1    2    0    0  0.32741350252E+02  0.29178960503E+02 -0.15476811489E+03  0.16086198165E+03  0.00000000000E+00 0. -1.
         22    1    1    2    0    0 -0.14895701459E+02 -0.97590610801E+01  0.20304986519E+02  0.27007659518E+02  0.00000000000E+00 0. -1.
</event>
<event>
 6    1  0.1715574E-005  0.6556054E+02  0.7818608E-02  0.1404111E+00
          2   -1    0    0  502    0  0.00000000000E+00  0.00000000000E+00  0.30457605719E+03  0.30457605719E+03  0.00000000000E+00 0. -1.
          1   -1    0    0  501    0 -0.00000000000E+00 -0.00000000000E+00 -0.10050454069E+03  0.10050454069E+03  0.00000000000E+00 0.  1.
          2    1    1    2  501    0  0.49014178906E+02 -0.16293153187E+02  0.82666726171E+02  0.97476377602E+02  0.00000000000E+00 0. -1.
          1    1    1    2  502    0 -0.31472930746E+02  0.40751768069E+02 -0.64016740449E+02  0.82154701802E+02  0.00000000000E+00 0.  1.
         22    1    1    2    0    0 -0.61670430417E+01  0.15602137504E+02 -0.13923004613E+02  0.21801586457E+02  0.00000000000E+00 0.  1.
         22    1    1    2    0    0 -0.11374205118E+02 -0.40060752386E+02  0.19934453539E+03  0.20364793202E+03  0.00000000000E+00 0. -1.
</event>
<event>
 6    1  0.1715574E-005  0.1893967E+03  0.7818608E-02  0.1242492E+00
          2   -1    0    0  502    0  0.00000000000E+00  0.00000000000E+00  0.16297791405E+04  0.16297791405E+04  0.00000000000E+00 0. -1.
          1   -1    0    0  501    0 -0.00000000000E+00 -0.00000000000E+00 -0.37046813761E+02  0.37046813761E+02  0.00000000000E+00 0. -1.
          2    1    1    2  501    0 -0.78044076013E+02 -0.16636379378E+03  0.11590260342E+04  0.11735029346E+04  0.00000000000E+00 0. -1.
          1    1    1    2  502    0  0.26039835622E+02  0.33572335881E+02  0.88064410078E+02  0.97777886550E+02  0.00000000000E+00 0. -1.
         22    1    1    2    0    0  0.28925612104E+02 -0.10860574644E+02  0.14166693777E+03  0.14499711850E+03  0.00000000000E+00 0.  1.
         22    1    1    2    0    0  0.23078628286E+02  0.14365203254E+03  0.20397494468E+03  0.25054801455E+03  0.00000000000E+00 0. -1.
</event>
<event>
 6    1  0.1715574E-005  0.1180341E+03  0.7818608E-02  0.1257712E+00
          2   -1    0    0  502    0  0.00000000000E+00  0.00000000000E+00  0.76236654587E+03  0.76236654587E+03  0.00000000000E+00 0.  1.
          1   -1    0    0  501    0 -0.00000000000E+00 -0.00000000000E+00 -0.42319711675E+02  0.42319711675E+02  0.00000000000E+00 0.  1.
          2    1    1    2  501    0  0.24889406298E+02 -0.42190426740E+02  0.65141966894E+02  0.81504542850E+02  0.00000000000E+00 0.  1.
          1    1    1    2  502    0  0.88410059767E+02  0.83579178730E+02  0.17261583136E+03  0.21118248748E+03  0.00000000000E+00 0.  1.
         22    1    1    2    0    0  0.18615348317E+02 -0.35141063634E+02  0.11655093247E+03  0.12314846896E+03  0.00000000000E+00 0.  1.
         22    1    1    2    0    0 -0.13191481438E+03 -0.62476883565E+01  0.36573810347E+03  0.38885075825E+03  0.00000000000E+00 0.  1.
</event>
<event>
 6    1  0.1715574E-005  0.2847500E+03  0.7818608E-02  0.1190573E+00
          2   -1    0    0  502    0  0.00000000000E+00  0.00000000000E+00  0.81845521356E+03  0.81845521356E+03  0.00000000000E+00 0. -1.
          1   -1    0    0  501    0 -0.00000000000E+00 -0.00000000000E+00 -0.12295149371E+03  0.12295149371E+03  0.00000000000E+00 0. -1.
          2    1    1    2  501    0 -0.26863579779E+03  0.22724361916E+02  0.43639171783E+03  0.51295157653E+03  0.00000000000E+00 0. -1.
          1    1    1    2  502    0  0.17787897390E+03 -0.28911260733E+02  0.10342334329E+03  0.20778156389E+03  0.00000000000E+00 0. -1.
         22    1    1    2    0    0  0.10542182935E+03  0.29132790335E+02  0.67847387275E+02  0.12870800106E+03  0.00000000000E+00 0. -1.
         22    1    1    2    0    0 -0.14665005462E+02 -0.22945891518E+02  0.87841271444E+02  0.91965565793E+02  0.00000000000E+00 0. -1.
</event>
<event>
 6    1  0.1715574E-005  0.9415628E+02  0.7818608E-02  0.1295392E+00
          2   -1    0    0  502    0  0.00000000000E+00  0.00000000000E+00  0.27709376560E+03  0.27709376560E+03  0.00000000000E+00 0.  1.
          1   -1    0    0  501    0 -0.00000000000E+00 -0.00000000000E+00 -0.14451174064E+03  0.14451174064E+03  0.00000000000E+00 0. -1.
          2    1    1    2  501    0 -0.27850078962E+02 -0.17708737001E+02  0.15469970551E+03  0.15818098858E+03  0.00000000000E+00 0.  1.
          1    1    1    2  502    0  0.37358641059E+02  0.65555443741E+02 -0.87199509014E+02  0.11531235250E+03  0.00000000000E+00 0. -1.
         22    1    1    2    0    0  0.24186769785E+00 -0.53279693778E+02  0.98987871456E+02  0.11241611523E+03  0.00000000000E+00 0.  1.
         22    1    1    2    0    0 -0.97504297941E+01  0.54329870375E+01 -0.33906042990E+02  0.35696049929E+02  0.00000000000E+00 0. -1.
</event>
<event>
 6    1  0.1715574E-005  0.5431208E+02  0.7818608E-02  0.1445249E+00
          2   -1    0    0  502    0  0.00000000000E+00  0.00000000000E+00  0.11212116839E+03  0.11212116839E+03  0.00000000000E+00 0. -1.
          1   -1    0    0  501    0 -0.00000000000E+00 -0.00000000000E+00 -0.38594320004E+03  0.38594320004E+03  0.00000000000E+00 0.  1.
          2    1    1    2  501    0  0.31185496645E+02 -0.22353646295E+02  0.74016479450E+02  0.83370617929E+02  0.00000000000E+00 0. -1.
          1    1    1    2  502    0 -0.42759639949E+02  0.73933499913E+02 -0.17238616771E+03  0.19238383517E+03  0.00000000000E+00 0.  1.
         22    1    1    2    0    0  0.97528135458E-01 -0.14238839940E+02  0.19128464743E+02  0.23846430299E+02  0.00000000000E+00 0. -1.
         22    1    1    2    0    0  0.11476615169E+02 -0.37341013678E+02 -0.19458080814E+03  0.19846348504E+03  0.00000000000E+00 0. -1.
</event>
<event>
 6    1  0.1715574E-005  0.1385921E+03  0.7818608E-02  0.1215287E+00
          2   -1    0    0  502    0  0.00000000000E+00  0.00000000000E+00  0.11747408183E+04  0.11747408183E+04  0.00000000000E+00 0. -1.
          1   -1    0    0  501    0 -0.00000000000E+00 -0.00000000000E+00 -0.89337418461E+02  0.89337418461E+02  0.00000000000E+00 0. -1.
          2    1    1    2  501    0 -0.88928746528E+02  0.88945535585E+02  0.10588846920E+04  0.10663284772E+04  0.00000000000E+00 0. -1.
          1    1    1    2  502    0  0.18917827139E+02 -0.22186446634E+02 -0.17144949875E+02  0.33824131979E+02  0.00000000000E+00 0. -1.
         22    1    1    2    0    0 -0.10534126815E+02  0.37950719390E+01  0.55112791060E+02  0.56238688971E+02  0.00000000000E+00 0. -1.
         22    1    1    2    0    0  0.80545046203E+02 -0.70554160890E+02 -0.11449133405E+02  0.10768693859E+03  0.00000000000E+00 0. -1.
</event>
<event>
 6    1  0.1715574E-005  0.1179515E+03  0.7818608E-02  0.1248054E+00
          2   -1    0    0  502    0  0.00000000000E+00  0.00000000000E+00  0.34812360808E+03  0.34812360808E+03  0.00000000000E+00 0. -1.
          1   -1    0    0  501    0 -0.00000000000E+00 -0.00000000000E+00 -0.13070616163E+03  0.13070616163E+03  0.00000000000E+00 0. -1.
          2    1    1    2  501    0  0.20607083498E+02  0.35818473019E+02  0.72692829627E+02  0.83617356923E+02  0.00000000000E+00 0. -1.
          1    1    1    2  502    0 -0.33479910873E+02 -0.93813240221E+02 -0.81702642607E+02  0.12882992774E+03  0.00000000000E+00 0. -1.
         22    1    1    2    0    0 -0.10430728529E+02 -0.10401002231E+02 -0.10883692341E+02  0.18314903877E+02  0.00000000000E+00 0. -1.
         22    1    1    2    0    0  0.23303555904E+02  0.68395769433E+02  0.23731095177E+03  0.24806758117E+03  0.00000000000E+00 0. -1.
</event>
<event>
 6    1  0.1715574E-005  0.2705529E+03  0.7818608E-02  0.1185555E+00
          2   -1    0    0  502    0  0.00000000000E+00  0.00000000000E+00  0.13568138867E+03  0.13568138867E+03  0.00000000000E+00 0. -1.
          1   -1    0    0  501    0 -0.00000000000E+00 -0.00000000000E+00 -0.11967814960E+04  0.11967814960E+04  0.00000000000E+00 0.  1.
          2    1    1    2  501    0 -0.18737662988E+03 -0.23455151300E+03 -0.36283125150E+03  0.47092561062E+03  0.00000000000E+00 0. -1.
          1    1    1    2  502    0  0.16870667380E+03 -0.65355897475E+02 -0.25218182233E+03  0.31036914575E+03  0.00000000000E+00 0.  1.
         22    1    1    2    0    0 -0.84806929610E+01  0.27706276251E+03 -0.33643339511E+03  0.43591642074E+03  0.00000000000E+00 0.  1.
         22    1    1    2    0    0  0.27150649047E+02  0.22844647962E+02 -0.10965363838E+03  0.11525170755E+03  0.00000000000E+00 0. -1.
</event>
<event>
 6    1  0.1715574E-005  0.1253589E+03  0.7818608E-02  0.1237229E+00
          2   -1    0    0  502    0  0.00000000000E+00  0.00000000000E+00  0.40209296049E+03  0.40209296049E+03  0.00000000000E+00 0.  1.
          1   -1    0    0  501    0 -0.00000000000E+00 -0.00000000000E+00 -0.47298557673E+02  0.47298557673E+02  0.00000000000E+00 0.  1.
          2    1    1    2  501    0 -0.62537677629E+02 -0.60864288591E+02  0.18597603634E+03  0.20543249218E+03  0.00000000000E+00 0.  1.
          1    1    1    2  502    0  0.23665938127E+02  0.28076587112E+02  0.50210162450E+02  0.62204756928E+02  0.00000000000E+00 0.  1.
         22    1    1    2    0    0 -0.26385135398E+02 -0.14262311370E+02  0.92395602099E+02  0.97141835390E+02  0.00000000000E+00 0.  1.
         22    1    1    2    0    0  0.65256874900E+02  0.47050012849E+02  0.26212601920E+02  0.84612433662E+02  0.00000000000E+00 0.  1.
</event>
<event>
 6    1  0.1715574E-005  0.5713450E+02  0.7818608E-02  0.1431680E+00
          2   -1    0    0  502    0  0.00000000000E+00  0.00000000000E+00  0.16499115103E+03  0.16499115103E+03  0.00000000000E+00 0. -1.
          1   -1    0    0  501    0 -0.00000000000E+00 -0.00000000000E+00 -0.63412626824E+02  0.63412626824E+02  0.00000000000E+00 0.  1.
          2    1    1    2  501    0  0.10254986620E+02 -0.19748481523E+02  0.69505130220E+02  0.72980342559E+02  0.00000000000E+00 0. -1.
          1    1    1    2  502    0  0.28337767956E+01  0.24097300189E+02 -0.91112232337E+01  0.25917649511E+02  0.00000000000E+00 0.  1.
         22    1    1    2    0    0 -0.29185321866E+02  0.45243877532E+01 -0.38050166454E+02  0.48167086939E+02  0.00000000000E+00 0.  1.
         22    1    1    2    0    0  0.16096558450E+02 -0.88732064194E+01  0.79234783671E+02  0.81338698843E+02  0.00000000000E+00 0. -1.
</event>
<event>
 6    1  0.1715574E-005  0.7644219E+02  0.7818608E-02  0.1369466E+00
          2   -1    0    0  502    0  0.00000000000E+00  0.00000000000E+00  0.16461743867E+03  0.16461743867E+03  0.00000000000E+00 0.  1.
          1   -1    0    0  501    0 -0.00000000000E+00 -0.00000000000E+00 -0.89046029129E+02  0.89046029129E+02  0.00000000000E+00 0. -1.
          2    1    1    2  501    0 -0.40655494221E+02 -0.25743517012E+02  0.43345684928E+02  0.64764544933E+02  0.00000000000E+00 0.  1.
          1    1    1    2  502    0  0.74007880385E+01  0.48888321593E+02 -0.16263706329E+02  0.52051395710E+02  0.00000000000E+00 0. -1.
         22    1    1    2    0    0  0.28309948274E+02  0.22558078379E+02 -0.29246278507E+02  0.46536704631E+02  0.00000000000E+00 0. -1.
         22    1    1    2    0    0  0.49447579076E+01 -0.45702882959E+02  0.77735709447E+02  0.90310822523E+02  0.00000000000E+00 0.  1.
</event>
<event>
 6    1  0.1715574E-005  0.4298232E+02  0.7818608E-02  0.1508920E+00
          2   -1    0    0  502    0  0.00000000000E+00  0.00000000000E+00  0.55401865409E+02  0.55401865409E+02  0.00000000000E+00 0. -1.
          1   -1    0    0  501    0 -0.00000000000E+00 -0.00000000000E+00 -0.63246648705E+03  0.63246648705E+03  0.00000000000E+00 0.  1.
          2    1    1    2  501    0  0.32253686380E+01  0.28144731406E+02  0.26706400682E+02  0.38932772135E+02  0.00000000000E+00 0. -1.
          1    1    1    2  502    0  0.21116333439E+02 -0.35685405684E+02 -0.44884886698E+03  0.45076008375E+03  0.00000000000E+00 0.  1.
         22    1    1    2    0    0  0.71305754575E+01  0.12924994714E+02  0.17458526034E+02  0.22862649146E+02  0.00000000000E+00 0. -1.
         22    1    1    2    0    0 -0.31472277535E+02 -0.53843204360E+01 -0.17238068138E+03  0.17531284743E+03  0.00000000000E+00 0. -1.
</event>
<event>
 6    1  0.1715574E-005  0.7432584E+02  0.7818608E-02  0.1349976E+00
          2   -1    0    0  502    0  0.00000000000E+00  0.00000000000E+00  0.43060924044E+02  0.43060924044E+02  0.00000000000E+00 0.  1.
          1   -1    0    0  501    0 -0.00000000000E+00 -0.00000000000E+00 -0.44352863643E+03  0.44352863643E+03  0.00000000000E+00 0.  1.
          2    1    1    2  501    0  0.36385251502E+02 -0.21614165101E+02 -0.60634933862E+01  0.42753065526E+02  0.00000000000E+00 0.  1.
          1    1    1    2  502    0 -0.19045506295E+02  0.19866994117E+02 -0.26088504963E+03  0.26233268551E+03  0.00000000000E+00 0.  1.
         22    1    1    2    0    0  0.22476199607E+02  0.14312617822E+00  0.15464723667E+02  0.27282919785E+02  0.00000000000E+00 0.  1.
         22    1    1    2    0    0 -0.39815944814E+02  0.16040448053E+01 -0.14898389303E+03  0.15422088965E+03  0.00000000000E+00 0. -1.
</event>
<event>
 6    1  0.1715574E-005  0.4912408E+02  0.7818608E-02  0.1529868E+00
          2   -1    0    0  502    0  0.00000000000E+00  0.00000000000E+00  0.51826303939E+03  0.51826303939E+03  0.00000000000E+00 0. -1.
          1   -1    0    0  501    0 -0.00000000000E+00 -0.00000000000E+00 -0.16879897660E+03  0.16879897660E+03  0.00000000000E+00 0. -1.
          2    1    1    2  501    0  0.33140714943E+01  0.52988551212E+02  0.45392800912E+03  0.45702232669E+03  0.00000000000E+00 0. -1.
          1    1    1    2  502    0 -0.34001688390E+02 -0.52225895219E+02 -0.67540398086E+02  0.91898663312E+02  0.00000000000E+00 0. -1.
         22    1    1    2    0    0 -0.55222028964E+01  0.11238894867E+02  0.45567448244E+02  0.47256743668E+02  0.00000000000E+00 0.  1.
         22    1    1    2    0    0  0.36209819792E+02 -0.12001550859E+02 -0.82490996489E+02  0.90884282327E+02  0.00000000000E+00 0. -1.
</event>
<event>
 6    1  0.1715574E-005  0.8246601E+02  0.7818608E-02  0.1434605E+00
          2   -1    0    0  502    0  0.00000000000E+00  0.00000000000E+00  0.16162974389E+03  0.16162974389E+03  0.00000000000E+00 0. -1.
          1   -1    0    0  501    0 -0.00000000000E+00 -0.00000000000E+00 -0.21556985096E+03  0.21556985096E+03  0.00000000000E+00 0.  1.
          2    1    1    2  501    0 -0.31299902075E+02 -0.51819662955E+02  0.82314526928E+02  0.10217946311E+03  0.00000000000E+00 0. -1.
          1    1    1    2  502    0  0.39323061029E+02  0.56855546124E+02 -0.12978477428E+03  0.14704742055E+03  0.00000000000E+00 0.  1.
         22    1    1    2    0    0 -0.29951470412E+01  0.12736752457E+02 -0.65151808707E+02  0.66452644392E+02  0.00000000000E+00 0.  1.
         22    1    1    2    0    0 -0.50280119128E+01 -0.17772635626E+02  0.58681948998E+02  0.61520066801E+02  0.00000000000E+00 0.  1.
</event>
<event>
 6    1  0.1715574E-005  0.2333575E+03  0.7818608E-02  0.1125195E+00
          2   -1    0    0  502    0  0.00000000000E+00  0.00000000000E+00  0.20130986492E+03  0.20130986492E+03  0.00000000000E+00 0.  1.
          1   -1    0    0  501    0 -0.00000000000E+00 -0.00000000000E+00 -0.60617080168E+03  0.60617080168E+03  0.00000000000E+00 0.  1.
          2    1    1    2  501    0 -0.17266115862E+03 -0.11985200073E+03  0.10042016919E+03  0.23293902239E+03  0.00000000000E+00 0.  1.
          1    1    1    2  502    0  0.98235741565E+02  0.27817705235E+02 -0.19368523018E+03  0.21894760568E+03  0.00000000000E+00 0.  1.
         22    1    1    2    0    0  0.91266890231E+02  0.92475217890E+02 -0.31279276460E+03  0.33870433236E+03  0.00000000000E+00 0.  1.
         22    1    1    2    0    0 -0.16841473178E+02 -0.44092239650E+00  0.11968888188E+01  0.16889706161E+02  0.00000000000E+00 0. -1.
</event>
<event>
 6    1  0.1715574E-005  0.5913219E+02  0.7818608E-02  0.1407874E+00
          2   -1    0    0  502    0  0.00000000000E+00  0.00000000000E+00  0.86165239189E+03  0.86165239189E+03  0.00000000000E+00 0. -1.
          1   -1    0    0  501    0 -0.00000000000E+00 -0.00000000000E+00 -0.85605770380E+02  0.85605770380E+02  0.00000000000E+00 0. -1.
          2    1    1    2  501    0 -0.13854345688E+02 -0.27722829919E+02  0.79908388740E+03  0.79968466116E+03  0.00000000000E+00 0. -1.
          1    1    1    2  502    0  0.42163717490E+01  0.22139818074E+02 -0.13089317324E+02  0.26062992213E+02  0.00000000000E+00 0. -1.
         22    1    1    2    0    0 -0.12468171409E+02  0.64163446562E+00  0.53083794549E+02  0.54532157823E+02  0.00000000000E+00 0. -1.
         22    1    1    2    0    0  0.22106145348E+02  0.49413773794E+01 -0.63031743114E+02  0.66978351074E+02  0.00000000000E+00 0. -1.
</event>
<event>
 6    1  0.1715574E-005  0.7999970E+02  0.7818608E-02  0.1434066E+00
          2   -1    0    0  502    0  0.00000000000E+00  0.00000000000E+00  0.25963744575E+03  0.25963744575E+03  0.00000000000E+00 0.  1.
          1   -1    0    0  501    0 -0.00000000000E+00 -0.00000000000E+00 -0.73780664784E+02  0.73780664784E+02  0.00000000000E+00 0.  1.
          2    1    1    2  501    0 -0.31369419628E+02  0.52427501299E+02  0.40828300190E+02  0.73482198366E+02  0.00000000000E+00 0.  1.
          1    1    1    2  502    0 -0.33816229478E+02  0.17584657766E+02 -0.11274369890E+02  0.39747565728E+02  0.00000000000E+00 0.  1.
         22    1    1    2    0    0 -0.10481369540E+02 -0.99452258700E+01 -0.16672468770E+02  0.22062135888E+02  0.00000000000E+00 0. -1.
         22    1    1    2    0    0  0.75667018646E+02 -0.60066933195E+02  0.17297531944E+03  0.19812621056E+03  0.00000000000E+00 0.  1.
</event>
<event>
 6    1  0.1715574E-005  0.1471642E+03  0.7818608E-02  0.1207023E+00
          2   -1    0    0  502    0  0.00000000000E+00  0.00000000000E+00  0.47952099155E+03  0.47952099155E+03  0.00000000000E+00 0. -1.
          1   -1    0    0  501    0 -0.00000000000E+00 -0.00000000000E+00 -0.80358600589E+02  0.80358600589E+02  0.00000000000E+00 0. -1.
          2    1    1    2  501    0 -0.70497662512E+02  0.88612849097E+02  0.29184119427E+03  0.31303903928E+03  0.00000000000E+00 0. -1.
          1    1    1    2  502    0  0.74623237949E+02 -0.52524544907E+02  0.19064113506E+02  0.93224974569E+02  0.00000000000E+00 0. -1.
         22    1    1    2    0    0 -0.15153810062E+02  0.16416073988E+02  0.96751298102E+02  0.99297226190E+02  0.00000000000E+00 0.  1.
         22    1    1    2    0    0  0.11028234625E+02 -0.52504378178E+02 -0.84942149181E+01  0.54318352091E+02  0.00000000000E+00 0. -1.
</event>
<event>
 6    1  0.1715574E-005  0.8037598E+02  0.7818608E-02  0.1331411E+00
          2   -1    0    0  502    0  0.00000000000E+00  0.00000000000E+00  0.19270631384E+03  0.19270631384E+03  0.00000000000E+00 0. -1.
          1   -1    0    0  501    0 -0.00000000000E+00 -0.00000000000E+00 -0.20608616073E+03  0.20608616073E+03  0.00000000000E+00 0. -1.
          2    1    1    2  501    0  0.45029937973E+02  0.36092053917E+02  0.10484700921E+03  0.11967968503E+03  0.00000000000E+00 0. -1.
          1    1    1    2  502    0 -0.52493323731E+02 -0.28335957647E+02 -0.13774053868E+03  0.15010306968E+03  0.00000000000E+00 0. -1.
         22    1    1    2    0    0  0.19388141481E+02  0.15762265227E+01  0.71896866901E+02  0.74481836647E+02  0.00000000000E+00 0. -1.
         22    1    1    2    0    0 -0.11924755722E+02 -0.93323227922E+01 -0.52383184321E+02  0.54527883210E+02  0.00000000000E+00 0. -1.
</event>
<event>
 6    1  0.1715574E-005  0.3141410E+03  0.7818608E-02  0.1171985E+00
          2   -1    0    0  502    0  0.00000000000E+00  0.00000000000E+00  0.88220170830E+03  0.88220170830E+03  0.00000000000E+00 0.  1.
          1   -1    0    0  501    0 -0.00000000000E+00 -0.00000000000E+00 -0.13569736644E+03  0.13569736644E+03  0.00000000000E+00 0. -1.
          2    1    1    2  501    0 -0.17449100626E+03  0.18209876701E+03  0.41783629909E+03  0.48805147787E+03  0.00000000000E+00 0.  1.
          1    1    1    2  502    0  0.16360871060E+03 -0.22730263865E+03  0.21325486414E+03  0.35201127368E+03  0.00000000000E+00 0. -1.
         22    1    1    2    0    0 -0.18461453447E+01  0.73220911169E+02  0.12562118602E+03  0.14541455381E+03  0.00000000000E+00 0.  1.
         22    1    1    2    0    0  0.12728441011E+02 -0.28017039533E+02 -0.10208007374E+02  0.32421769373E+02  0.00000000000E+00 0. -1.
</event>
<event>
 6    1  0.1715574E-005  0.1903322E+03  0.7818608E-02  0.1167447E+00
          2   -1    0    0  502    0  0.00000000000E+00  0.00000000000E+00  0.32326762908E+03  0.32326762908E+03  0.00000000000E+00 0. -1.
          1   -1    0    0  501    0 -0.00000000000E+00 -0.00000000000E+00 -0.10743017982E+03  0.10743017982E+03  0.00000000000E+00 0. -1.
          2    1    1    2  501    0 -0.38182506035E+02  0.59417172422E+02  0.99717060778E+02  0.12219572970E+03  0.00000000000E+00 0. -1.
          1    1    1    2  502    0 -0.87155201118E+02 -0.62847417820E+02  0.37952187999E+02  0.11395699006E+03  0.00000000000E+00 0. -1.
         22    1    1    2    0    0  0.11174433224E+03  0.33924064550E+02  0.10075382428E+03  0.15423673703E+03  0.00000000000E+00 0. -1.
         22    1    1    2    0    0  0.13593374918E+02 -0.30493819152E+02 -0.22585623797E+02  0.40308352118E+02  0.00000000000E+00 0. -1.
</event>
<event>
 6    1  0.1715574E-005  0.7881714E+02  0.7818608E-02  0.1360467E+00
          2   -1    0    0  502    0  0.00000000000E+00  0.00000000000E+00  0.58450278036E+03  0.58450278036E+03  0.00000000000E+00 0. -1.
          1   -1    0    0  501    0 -0.00000000000E+00 -0.00000000000E+00 -0.28471120871E+02  0.28471120871E+02  0.00000000000E+00 0.  1.
          2    1    1    2  501    0  0.73953141224E+01  0.65842290662E+02  0.21436055244E+03  0.22436654018E+03  0.00000000000E+00 0. -1.
          1    1    1    2  502    0 -0.32654223143E+02 -0.31658638964E+02  0.56284815410E+02  0.72363997650E+02  0.00000000000E+00 0.  1.
         22    1    1    2    0    0 -0.22148773700E+02 -0.22906157559E+02  0.57314113040E+01  0.32374516306E+02  0.00000000000E+00 0.  1.
         22    1    1    2    0    0  0.47407682720E+02 -0.11277494139E+02  0.27965488033E+03  0.28386884709E+03  0.00000000000E+00 0. -1.
</event>
<event>
 6    1  0.1715574E-005  0.5429137E+02  0.7818608E-02  0.1424195E+00
          2   -1    0    0  502    0  0.00000000000E+00  0.00000000000E+00  0.15975174206E+03  0.15975174206E+03  0.00000000000E+00 0. -1.
          1   -1    0    0  501    0 -0.00000000000E+00 -0.00000000000E+00 -0.33300016550E+03  0.33300016550E+03  0.00000000000E+00 0. -1.
          2    1    1    2  501    0 -0.19471261990E+02  0.39202921633E+02  0.12051180501E+03  0.12821503132E+03  0.00000000000E+00 0. -1.
          1    1    1    2  502    0  0.21612213386E+02 -0.22831119476E+02 -0.21307953900E+03  0.21538625241E+03  0.00000000000E+00 0. -1.
         22    1    1    2    0    0  0.74842339210E+01 -0.20487832960E+02 -0.11304775498E+03  0.11513279274E+03  0.00000000000E+00 0. -1.
         22    1    1    2    0    0 -0.96251853172E+01  0.41160308034E+01  0.32367065528E+02  0.34017831102E+02  0.00000000000E+00 0.  1.
</event>
<event>
 6    1  0.1715574E-005  0.7797098E+02  0.7818608E-02  0.1339695E+00
          2   -1    0    0  502    0  0.00000000000E+00  0.00000000000E+00  0.34057501323E+03  0.34057501323E+03  0.00000000000E+00 0. -1.
          1   -1    0    0  501    0 -0.00000000000E+00 -0.00000000000E+00 -0.33693407920E+02  0.33693407920E+02  0.00000000000E+00 0.  1.
          2    1    1    2  501    0 -0.19933035379E+02 -0.79452593434E+01  0.11993539438E+03  0.12183986159E+03  0.00000000000E+00 0. -1.
          1    1    1    2  502    0  0.20993777904E+02  0.31543554473E+02  0.20135350444E+02  0.42908820503E+02  0.00000000000E+00 0.  1.
         22    1    1    2    0    0 -0.38908434875E+02 -0.28955421979E+02  0.16419173680E+03  0.17120516698E+03  0.00000000000E+00 0. -1.
         22    1    1    2    0    0  0.37847692350E+02  0.53571268497E+01  0.26191236717E+01  0.38314572072E+02  0.00000000000E+00 0.  1.
</event>
<event>
 6    1  0.1715574E-005  0.5027164E+02  0.7818608E-02  0.1499900E+00
          2   -1    0    0  502    0  0.00000000000E+00  0.00000000000E+00  0.19922441194E+03  0.19922441194E+03  0.00000000000E+00 0. -1.
          1   -1    0    0  501    0 -0.00000000000E+00 -0.00000000000E+00 -0.14266924459E+03  0.14266924459E+03  0.00000000000E+00 0.  1.
          2    1    1    2  501    0  0.21244242917E+02  0.31653444639E+02  0.15422271274E+03  0.15886441873E+03  0.00000000000E+00 0. -1.
          1    1    1    2  502    0 -0.24285632093E+02 -0.20316699257E+02 -0.24469393760E+02  0.40016389465E+02  0.00000000000E+00 0.  1.
         22    1    1    2    0    0  0.74160421463E+01  0.10809020771E+02  0.32440718560E+02  0.34989038738E+02  0.00000000000E+00 0.  1.
         22    1    1    2    0    0 -0.43746529702E+01 -0.22145766153E+02 -0.10563887018E+03  0.10802380960E+03  0.00000000000E+00 0.  1.
</event>
<event>
 6    1  0.1715574E-005  0.7708105E+02  0.7818608E-02  0.1355264E+00
          2   -1    0    0  502    0  0.00000000000E+00  0.00000000000E+00  0.13468784899E+03  0.13468784899E+03  0.00000000000E+00 0. -1.
          1   -1    0    0  501    0 -0.00000000000E+00 -0.00000000000E+00 -0.32757349940E+03  0.32757349940E+03  0.00000000000E+00 0.  1.
          2    1    1    2  501    0 -0.19780464227E+02  0.24602503928E+02  0.75897230224E+02  0.82200605352E+02  0.00000000000E+00 0. -1.
          1    1    1    2  502    0  0.97232096609E-01 -0.29780057888E+02 -0.25429474005E+03  0.25603256847E+03  0.00000000000E+00 0.  1.
         22    1    1    2    0    0 -0.52606934929E+01  0.24453325569E+02  0.47950872852E+02  0.54082587167E+02  0.00000000000E+00 0. -1.
         22    1    1    2    0    0  0.24943925623E+02 -0.19275771609E+02 -0.62439013441E+02  0.69945587395E+02  0.00000000000E+00 0.  1.
</event>
<event>
 6    1  0.1715574E-005  0.1645019E+03  0.7818608E-02  0.1190574E+00
          2   -1    0    0  502    0  0.00000000000E+00  0.00000000000E+00  0.15032347835E+03  0.15032347835E+03  0.00000000000E+00 0. -1.
          1   -1    0    0  501    0 -0.00000000000E+00 -0.00000000000E+00 -0.32105308986E+03  0.32105308986E+03  0.00000000000E+00 0. -1.
          2    1    1    2  501    0 -0.57815620742E+02 -0.11082712807E+03  0.75112764898E+02  0.14583286930E+03  0.00000000000E+00 0. -1.
          1    1    1    2  502    0  0.33688194304E+02  0.41334059231E+02 -0.17888990605E+02  0.56244243019E+02  0.00000000000E+00 0. -1.
         22    1    1    2    0    0  0.36101875618E+02  0.58645322524E+02 -0.23965264705E+03  0.24935117909E+03  0.00000000000E+00 0. -1.
         22    1    1    2    0    0 -0.11974449180E+02  0.10847746316E+02  0.11699261246E+02  0.19948276793E+02  0.00000000000E+00 0.  1.
</event>
<event>
 6    1  0.1715574E-005  0.1330507E+03  0.7818608E-02  0.1237018E+00
          2   -1    0    0  502    0  0.00000000000E+00  0.00000000000E+00  0.55360116708E+02  0.55360116708E+02  0.00000000000E+00 0. -1.
          1   -1    0    0  501    0 -0.00000000000E+00 -0.00000000000E+00 -0.72905502403E+03  0.72905502403E+03  0.00000000000E+00 0. -1.
          2    1    1    2  501    0  0.55586191382E+02 -0.25415881083E+02 -0.38868961270E+02  0.72433333720E+02  0.00000000000E+00 0. -1.
          1    1    1    2  502    0 -0.64732208914E+02 -0.11547039197E+03 -0.30373877383E+03  0.33133202836E+03  0.00000000000E+00 0. -1.
         22    1    1    2    0    0 -0.24116133225E+02  0.15073332563E+03 -0.27981425229E+03  0.31874462995E+03  0.00000000000E+00 0. -1.
         22    1    1    2    0    0  0.33262150757E+02 -0.98470525809E+01 -0.51272919938E+02  0.61905148707E+02  0.00000000000E+00 0. -1.
</event>
<event>
 6    1  0.1715574E-005  0.1164112E+03  0.7818608E-02  0.1278170E+00
          2   -1    0    0  502    0  0.00000000000E+00  0.00000000000E+00  0.21119153203E+03  0.21119153203E+03  0.00000000000E+00 0. -1.
          1   -1    0    0  501    0 -0.00000000000E+00 -0.00000000000E+00 -0.27845352021E+03  0.27845352021E+03  0.00000000000E+00 0. -1.
          2    1    1    2  501    0 -0.58496126549E+02  0.82179180892E+02  0.12899550866E+03  0.16375303310E+03  0.00000000000E+00 0. -1.
          1    1    1    2  502    0  0.96951253788E+01 -0.79071177238E+02 -0.17416934971E+03  0.19152338996E+03  0.00000000000E+00 0. -1.
         22    1    1    2    0    0  0.64688622666E+02 -0.13139935388E+02 -0.61807421051E+02  0.90429160681E+02  0.00000000000E+00 0.  1.
         22    1    1    2    0    0 -0.15887621496E+02  0.10031931734E+02  0.39719273912E+02  0.43939468491E+02  0.00000000000E+00 0. -1.
</event>
<event>
 6    1  0.1715574E-005  0.1531895E+03  0.7818608E-02  0.1282664E+00
          2   -1    0    0  502    0  0.00000000000E+00  0.00000000000E+00  0.59556981323E+02  0.59556981323E+02  0.00000000000E+00 0.  1.
          1   -1    0    0  501    0 -0.00000000000E+00 -0.00000000000E+00 -0.84973539303E+03  0.84973539303E+03  0.00000000000E+00 0.  1.
          2    1    1    2  501    0  0.61087515880E+02  0.67909693308E+02 -0.46052083752E+02  0.10229469908E+03  0.00000000000E+00 0.  1.
          1    1    1    2  502    0 -0.82323366876E+02 -0.10630700614E+03 -0.57999736808E+03  0.59537825226E+03  0.00000000000E+00 0.  1.
         22    1    1    2    0    0  0.95697385539E+01 -0.24812504421E+02 -0.14072192849E+03  0.14321278375E+03  0.00000000000E+00 0.  1.
         22    1    1    2    0    0  0.11666112443E+02  0.63209817254E+02 -0.23407031387E+02  0.68406639262E+02  0.00000000000E+00 0.  1.
</event>
<event>
 6    1  0.1715574E-005  0.8680281E+02  0.7818608E-02  0.1311956E+00
          2   -1    0    0  502    0  0.00000000000E+00  0.00000000000E+00  0.70548629649E+02  0.70548629649E+02  0.00000000000E+00 0.  1.
          1   -1    0    0  501    0 -0.00000000000E+00 -0.00000000000E+00 -0.26085501255E+03  0.26085501255E+03  0.00000000000E+00 0.  1.
          2    1    1    2  501    0  0.19273836296E+02 -0.45455420633E+02  0.26698655704E+02  0.56129263730E+02  0.00000000000E+00 0.  1.
          1    1    1    2  502    0 -0.21230734986E+02  0.17369048559E+02 -0.91581394760E+02  0.95601149690E+02  0.00000000000E+00 0.  1.
         22    1    1    2    0    0 -0.27109125544E+02  0.49551776796E+02 -0.13142212914E+03  0.14304565459E+03  0.00000000000E+00 0.  1.
         22    1    1    2    0    0  0.29066024234E+02 -0.21465404722E+02  0.59984852949E+01  0.36627574182E+02  0.00000000000E+00 0.  1.
</event>
<event>
 6    1  0.1715574E-005  0.2247727E+03  0.7818608E-02  0.1161519E+00
          2   -1    0    0  502    0  0.00000000000E+00  0.00000000000E+00  0.63743773148E+03  0.63743773148E+03  0.00000000000E+00 0. -1.
          1   -1    0    0  501    0 -0.00000000000E+00 -0.00000000000E+00 -0.51369499659E+02  0.51369499659E+02  0.00000000000E+00 0. -1.
          2    1    1    2  501    0 -0.98172658450E+02 -0.16649846286E+02  0.13299619331E+03  0.16614173372E+03  0.00000000000E+00 0. -1.
          1    1    1    2  502    0  0.33529752264E+02  0.70038239076E+02  0.53018637007E+02  0.94024332435E+02  0.00000000000E+00 0. -1.
         22    1    1    2    0    0  0.98177164737E+00  0.29164780051E+02  0.22187023072E+02  0.36658045008E+02  0.00000000000E+00 0. -1.
         22    1    1    2    0    0  0.63661134539E+02 -0.82553172841E+02  0.37786637843E+03  0.39198311998E+03  0.00000000000E+00 0. -1.
</event>
<event>
 6    1  0.1715574E-005  0.1759639E+03  0.7818608E-02  0.1172372E+00
          2   -1    0    0  502    0  0.00000000000E+00  0.00000000000E+00  0.62547365372E+02  0.62547365372E+02  0.00000000000E+00 0. -1.
          1   -1    0    0  501    0 -0.00000000000E+00 -0.00000000000E+00 -0.12908530014E+04  0.12908530014E+04  0.00000000000E+00 0. -1.
          2    1    1    2  501    0  0.60659104495E+02  0.18478384492E+02 -0.24647707058E+02  0.68032985491E+02  0.00000000000E+00 0. -1.
          1    1    1    2  502    0 -0.15347146523E+03  0.36334607001E+01 -0.10588804273E+04  0.10699506773E+04  0.00000000000E+00 0. -1.
         22    1    1    2    0    0  0.11095455081E+03 -0.17300934673E+02 -0.57532049182E+02  0.12617516146E+03  0.00000000000E+00 0. -1.
         22    1    1    2    0    0 -0.18142190071E+02 -0.48109105193E+01 -0.87245452519E+02  0.89241542489E+02  0.00000000000E+00 0. -1.
</event>
<event>
 6    1  0.1715574E-005  0.8852307E+02  0.7818608E-02  0.1306552E+00
          2   -1    0    0  502    0  0.00000000000E+00  0.00000000000E+00  0.94594770467E+02  0.94594770467E+02  0.00000000000E+00 0. -1.
          1   -1    0    0  501    0 -0.00000000000E+00 -0.00000000000E+00 -0.86838202489E+03  0.86838202489E+03  0.00000000000E+00 0. -1.
          2    1    1    2  501    0  0.52682959973E+02 -0.21589702548E+02  0.35809481052E+02  0.67260155076E+02  0.00000000000E+00 0. -1.
          1    1    1    2  502    0 -0.63763309885E+02  0.12513560086E+02 -0.75611433800E+03  0.75890133812E+03  0.00000000000E+00 0. -1.
         22    1    1    2    0    0 -0.17987566974E+02  0.18630127665E+01 -0.88734571871E+02  0.90558531500E+02  0.00000000000E+00 0. -1.
         22    1    1    2    0    0  0.29067916886E+02  0.72131296957E+01  0.35252174397E+02  0.46256770659E+02  0.00000000000E+00 0. -1.
</event>
<event>
 6    1  0.1715574E-005  0.5837299E+02  0.7818608E-02  0.1513839E+00
          2   -1    0    0  502    0  0.00000000000E+00  0.00000000000E+00  0.25481096765E+03  0.25481096765E+03  0.00000000000E+00 0. -1.
          1   -1    0    0  501    0 -0.00000000000E+00 -0.00000000000E+00 -0.27413627075E+03  0.27413627075E+03  0.00000000000E+00 0. -1.
          2    1    1    2  501    0  0.48080724479E+02  0.15885628021E+02  0.22722621610E+03  0.23280004838E+03  0.00000000000E+00 0. -1.
          1    1    1    2  502    0 -0.20025438245E+02  0.51340465585E+01 -0.94973780046E+02  0.97197713487E+02  0.00000000000E+00 0. -1.
         22    1    1    2    0    0  0.77806328901E+01 -0.90392729204E+01  0.19985929113E+02  0.23274107193E+02  0.00000000000E+00 0. -1.
         22    1    1    2    0    0 -0.35835919124E+02 -0.11980401659E+02 -0.17156366827E+03  0.17567536934E+03  0.00000000000E+00 0. -1.
</event>
<event>
 6    1  0.1715574E-005  0.7250959E+02  0.7818608E-02  0.1360857E+00
          2   -1    0    0  502    0  0.00000000000E+00  0.00000000000E+00  0.37564278986E+03  0.37564278986E+03  0.00000000000E+00 0.  1.
          1   -1    0    0  501    0 -0.00000000000E+00 -0.00000000000E+00 -0.26388379022E+03  0.26388379022E+03  0.00000000000E+00 0. -1.
          2    1    1    2  501    0  0.42720810691E+02 -0.33562692191E+02  0.29253079502E+03  0.29753283518E+03  0.00000000000E+00 0.  1.
          1    1    1    2  502    0 -0.10236269829E+02  0.78189942552E+02 -0.18852905625E+03  0.20435668178E+03  0.00000000000E+00 0. -1.
         22    1    1    2    0    0 -0.48522388092E+02 -0.38879079591E+02 -0.48500488185E+02  0.78856213009E+02  0.00000000000E+00 0. -1.
         22    1    1    2    0    0  0.16037847230E+02 -0.57481707701E+01  0.56257749059E+02  0.58780850114E+02  0.00000000000E+00 0. -1.
</event>
<event>
 6    1  0.1715574E-005  0.1018078E+03  0.7818608E-02  0.1278177E+00
          2   -1    0    0  502    0  0.00000000000E+00  0.00000000000E+00  0.36078272775E+03  0.36078272775E+03  0.00000000000E+00 0. -1.
          1   -1    0    0  501    0 -0.00000000000E+00 -0.00000000000E+00 -0.51724924618E+02  0.51724924618E+02  0.00000000000E+00 0.  1.
          2    1    1    2  501    0  0.64214952478E+02 -0.15407970080E+02  0.21507010703E+03  0.22498025825E+03  0.00000000000E+00 0. -1.
          1    1    1    2  502    0 -0.29879384239E+02  0.15011261903E+02  0.20503118961E+02  0.39223634120E+02  0.00000000000E+00 0.  1.
         22    1    1    2    0    0 -0.61094111927E+02  0.17711783959E+02 -0.47891970034E+01  0.63789765724E+02  0.00000000000E+00 0.  1.
         22    1    1    2    0    0  0.26758543688E+02 -0.17315075783E+02  0.78273774141E+02  0.84513994272E+02  0.00000000000E+00 0.  1.
</event>
<event>
 6    1  0.1715574E-005  0.1255226E+03  0.7818608E-02  0.1234967E+00
          2   -1    0    0  502    0  0.00000000000E+00  0.00000000000E+00  0.64638789410E+03  0.64638789410E+03  0.00000000000E+00 0.  1.
          1   -1    0    0  501    0 -0.00000000000E+00 -0.00000000000E+00 -0.12688497239E+03  0.12688497239E+03  0.00000000000E+00 0.  1.
          2    1    1    2  501    0 -0.66733946845E+02  0.66457276342E+02  0.50764465618E+03  0.51630716263E+03  0.00000000000E+00 0.  1.
          1    1    1    2  502    0  0.71683152139E+02 -0.69260583427E+02 -0.56921081338E+02  0.11478463407E+03  0.00000000000E+00 0.  1.
         22    1    1    2    0    0  0.11628579386E+02 -0.19544615009E+02 -0.31083031014E+02  0.38514551164E+02  0.00000000000E+00 0. -1.
         22    1    1    2    0    0 -0.16577784680E+02  0.22347922093E+02  0.99862377891E+02  0.10366651863E+03  0.00000000000E+00 0.  1.
</event>
<event>
 6    1  0.1715574E-005  0.6366071E+02  0.7818608E-02  0.1424138E+00
          2   -1    0    0  502    0  0.00000000000E+00  0.00000000000E+00  0.18295641641E+03  0.18295641641E+03  0.00000000000E+00 0.  1.
          1   -1    0    0  501    0 -0.00000000000E+00 -0.00000000000E+00 -0.64928963050E+02  0.64928963050E+02  0.00000000000E+00 0. -1.
          2    1    1    2  501    0 -0.31040326333E+02 -0.42180288782E+01  0.50127229153E+02  0.59110343672E+02  0.00000000000E+00 0.  1.
          1    1    1    2  502    0  0.43334726889E+02 -0.19308873625E+02  0.22357138824E+01  0.47494521493E+02  0.00000000000E+00 0. -1.
         22    1    1    2    0    0  0.25350563441E+02  0.21651095271E+02 -0.25929407810E+02  0.42234525954E+02  0.00000000000E+00 0. -1.
         22    1    1    2    0    0 -0.37644963998E+02  0.18758072323E+01  0.91593918133E+02  0.99045988339E+02  0.00000000000E+00 0.  1.
</event>
<event>
 6    1  0.1715574E-005  0.6692744E+02  0.7818608E-02  0.1381724E+00
          2   -1    0    0  502    0  0.00000000000E+00  0.00000000000E+00  0.38728647346E+03  0.38728647346E+03  0.00000000000E+00 0. -1.
          1   -1    0    0  501    0 -0.00000000000E+00 -0.00000000000E+00 -0.56645812956E+02  0.56645812956E+02  0.00000000000E+00 0.  1.
          2    1    1    2  501    0 -0.54007442003E+02  0.23334724758E+02  0.49890268882E+02  0.77138525397E+02  0.00000000000E+00 0. -1.
          1    1    1    2  502    0 -0.12473694190E+02 -0.42053032378E+02 -0.91454591738E+01  0.44807253904E+02  0.00000000000E+00 0.  1.
         22    1    1    2    0    0 -0.21870603970E+01 -0.10643897664E+02 -0.88706613422E+01  0.14027274265E+02  0.00000000000E+00 0.  1.
         22    1    1    2    0    0  0.68668196591E+02  0.29362205284E+02  0.29876651214E+03  0.30795923285E+03  0.00000000000E+00 0. -1.
</event>
<event>
 6    1  0.1715574E-005  0.5843486E+02  0.7818608E-02  0.1476303E+00
          2   -1    0    0  502    0  0.00000000000E+00  0.00000000000E+00  0.52021827965E+02  0.52021827965E+02  0.00000000000E+00 0.  1.
          1   -1    0    0  501    0 -0.00000000000E+00 -0.00000000000E+00 -0.36623590567E+03  0.36623590567E+03  0.00000000000E+00 0.  1.
          2    1    1    2  501    0  0.36831569263E+02 -0.14114713256E+02 -0.14531426569E+02  0.42035127962E+02  0.00000000000E+00 0.  1.
          1    1    1    2  502    0 -0.43287746795E+02  0.81990377787E+01 -0.23479776108E+03  0.23889546218E+03  0.00000000000E+00 0.  1.
         22    1    1    2    0    0  0.18839247665E+02 -0.66717641146E+01  0.32609490142E+02  0.38246680069E+02  0.00000000000E+00 0.  1.
         22    1    1    2    0    0 -0.12383070133E+02  0.12587439592E+02 -0.97494380201E+02  0.99080463424E+02  0.00000000000E+00 0.  1.
</event>
<event>
 6    1  0.1715574E-005  0.1350667E+03  0.7818608E-02  0.1328678E+00
          2   -1    0    0  502    0  0.00000000000E+00  0.00000000000E+00  0.19479865578E+03  0.19479865578E+03  0.00000000000E+00 0. -1.
          1   -1    0    0  501    0 -0.00000000000E+00 -0.00000000000E+00 -0.11595332204E+04  0.11595332204E+04  0.00000000000E+00 0. -1.
          2    1    1    2  501    0 -0.26149001589E+02  0.23538770474E+02  0.52818250010E+02  0.63463466133E+02  0.00000000000E+00 0. -1.
          1    1    1    2  502    0  0.56147487117E+02 -0.11216569948E+03 -0.11052755673E+04  0.11123703358E+04  0.00000000000E+00 0. -1.
         22    1    1    2    0    0 -0.16116842137E+02  0.97969704264E+02  0.11157965734E+03  0.14935807807E+03  0.00000000000E+00 0. -1.
         22    1    1    2    0    0 -0.13881643391E+02 -0.93427752539E+01 -0.23856904690E+02  0.29139996123E+02  0.00000000000E+00 0. -1.
</event>
<event>
 6    1  0.1715574E-005  0.3996349E+02  0.7818608E-02  0.1565643E+00
          2   -1    0    0  502    0  0.00000000000E+00  0.00000000000E+00  0.10193254982E+03  0.10193254982E+03  0.00000000000E+00 0.  1.
          1   -1    0    0  501    0 -0.00000000000E+00 -0.00000000000E+00 -0.18701339968E+03  0.18701339968E+03  0.00000000000E+00 0. -1.
          2    1    1    2  501    0  0.22367427527E+02 -0.14478582744E+02  0.54711614334E+02  0.60854678665E+02  0.00000000000E+00 0.  1.
          1    1    1    2  502    0 -0.27041820409E+02  0.15797175471E+01 -0.88840064636E+02  0.92877944869E+02  0.00000000000E+00 0. -1.
         22    1    1    2    0    0  0.12753159374E+02 -0.42179714841E+01  0.40060793984E+02  0.42252829161E+02  0.00000000000E+00 0.  1.
         22    1    1    2    0    0 -0.80787664915E+01  0.17116836681E+02 -0.91013193551E+02  0.92960496805E+02  0.00000000000E+00 0. -1.
</event>
<event>
 6    1  0.1715574E-005  0.9421664E+02  0.7818608E-02  0.1293011E+00
          2   -1    0    0  502    0  0.00000000000E+00  0.00000000000E+00  0.10591178449E+03  0.10591178449E+03  0.00000000000E+00 0. -1.
          1   -1    0    0  501    0 -0.00000000000E+00 -0.00000000000E+00 -0.19027125447E+03  0.19027125447E+03  0.00000000000E+00 0.  1.
          2    1    1    2  501    0 -0.41593134759E+02 -0.57459888313E+02  0.42521507149E+02  0.82702516250E+02  0.00000000000E+00 0. -1.
          1    1    1    2  502    0  0.17992465729E+02  0.19974103226E+02 -0.59620311115E+02  0.65400880118E+02  0.00000000000E+00 0.  1.
         22    1    1    2    0    0  0.36845292053E+02  0.54497775566E+02 -0.93371379150E+02  0.11421820141E+03  0.00000000000E+00 0.  1.
         22    1    1    2    0    0 -0.13244623023E+02 -0.17011990480E+02  0.26110713133E+02  0.33861441190E+02  0.00000000000E+00 0. -1.
</event>
<event>
 6    1  0.1715574E-005  0.1251114E+03  0.7818608E-02  0.1264772E+00
          2   -1    0    0  502    0  0.00000000000E+00  0.00000000000E+00  0.16832623238E+03  0.16832623238E+03  0.00000000000E+00 0.  1.
          1   -1    0    0  501    0 -0.00000000000E+00 -0.00000000000E+00 -0.18964729412E+03  0.18964729412E+03  0.00000000000E+00 0.  1.
          2    1    1    2  501    0  0.86093567266E+02 -0.39653473763E+02  0.26578306045E+01  0.94823859706E+02  0.00000000000E+00 0.  1.
          1    1    1    2  502    0 -0.67751219066E+02  0.81643291358E+02  0.40303272946E+02  0.11349100633E+03  0.00000000000E+00 0.  1.
         22    1    1    2    0    0  0.50518007600E+02 -0.42005151860E+02 -0.24413028498E+02  0.70089213400E+02  0.00000000000E+00 0. -1.
         22    1    1    2    0    0 -0.68860355799E+02  0.15334265384E-01 -0.39869136791E+02  0.79569447053E+02  0.00000000000E+00 0. -1.
</event>
<event>
 6    1  0.1715574E-005  0.3890542E+03  0.7818608E-02  0.1190839E+00
          2   -1    0    0  502    0  0.00000000000E+00  0.00000000000E+00  0.93895669710E+03  0.93895669710E+03  0.00000000000E+00 0. -1.
          1   -1    0    0  501    0 -0.00000000000E+00 -0.00000000000E+00 -0.17680737956E+03  0.17680737956E+03  0.00000000000E+00 0. -1.
          2    1    1    2  501    0 -0.74819726990E+02  0.13293775076E+02  0.15740644636E+03  0.17478988918E+03  0.00000000000E+00 0. -1.
          1    1    1    2  502    0  0.37732720721E+03  0.98492857005E+01  0.22659468840E+03  0.44024763775E+03  0.00000000000E+00 0. -1.
         22    1    1    2    0    0 -0.30909921747E+03 -0.14823942439E+02  0.37988194093E+03  0.48997179975E+03  0.00000000000E+00 0. -1.
         22    1    1    2    0    0  0.65917372476E+01 -0.83191183379E+01 -0.17337581458E+01  0.10754749982E+02  0.00000000000E+00 0. -1.
</event>
<event>
 6    1  0.1715574E-005  0.1086542E+03  0.7818608E-02  0.1355009E+00
          2   -1    0    0  502    0  0.00000000000E+00  0.00000000000E+00  0.75119093724E+02  0.75119093724E+02  0.00000000000E+00 0. -1.
          1   -1    0    0  501    0 -0.00000000000E+00 -0.00000000000E+00 -0.32450328531E+03  0.32450328531E+03  0.00000000000E+00 0.  1.
          2    1    1    2  501    0 -0.66417003048E+02 -0.58562461514E+02 -0.24856820182E+02  0.91970874205E+02  0.00000000000E+00 0. -1.
          1    1    1    2  502    0  0.61836599091E+02  0.42078892068E+02 -0.12377816580E+03  0.14462168743E+03  0.00000000000E+00 0.  1.
         22    1    1    2    0    0  0.24892862687E+02  0.14664495054E+02 -0.12674102550E+03  0.12999226735E+03  0.00000000000E+00 0. -1.
         22    1    1    2    0    0 -0.20312458730E+02  0.18190743929E+01  0.25991819899E+02  0.33037550045E+02  0.00000000000E+00 0. -1.
</event>
<event>
 6    1  0.1715574E-005  0.6642377E+02  0.7818608E-02  0.1453406E+00
          2   -1    0    0  502    0  0.00000000000E+00  0.00000000000E+00  0.39775404247E+03  0.39775404247E+03  0.00000000000E+00 0. -1.
          1   -1    0    0  501    0 -0.00000000000E+00 -0.00000000000E+00 -0.51275851377E+02  0.51275851377E+02  0.00000000000E+00 0. -1.
          2    1    1    2  501    0  0.24757161715E+02 -0.19054694843E+02  0.20916178026E+03  0.21148202943E+03  0.00000000000E+00 0. -1.
          1    1    1    2  502    0 -0.34984487394E+02  0.36944747617E+02  0.19147820785E+01  0.50916550601E+02  0.00000000000E+00 0. -1.
         22    1    1    2    0    0  0.28959370723E+02 -0.20652250382E+02  0.15520731122E+03  0.15923087030E+03  0.00000000000E+00 0. -1.
         22    1    1    2    0    0 -0.18732045044E+02  0.27621976081E+01 -0.19805682465E+02  0.27400443519E+02  0.00000000000E+00 0.  1.
</event>
<event>
 6    1  0.1715574E-005  0.1970787E+03  0.7818608E-02  0.1163884E+00
          2   -1    0    0  502    0  0.00000000000E+00  0.00000000000E+00  0.21406967932E+03  0.21406967932E+03  0.00000000000E+00 0.  1.
          1   -1    0    0  501    0 -0.00000000000E+00 -0.00000000000E+00 -0.14206936934E+03  0.14206936934E+03  0.00000000000E+00 0.  1.
          2    1    1    2  501    0  0.15264913825E+02 -0.48854360024E+02 -0.28138580251E+02  0.58408439338E+02  0.00000000000E+00 0.  1.
          1    1    1    2  502    0 -0.93681104637E+02 -0.47155509610E+02  0.53187359692E+02  0.11759543649E+03  0.00000000000E+00 0.  1.
         22    1    1    2    0    0  0.86464950254E+02  0.14345929598E+02  0.45423342462E+01  0.87764606300E+02  0.00000000000E+00 0.  1.
         22    1    1    2    0    0 -0.80487594417E+01  0.81663940036E+02  0.42409196295E+02  0.92370566531E+02  0.00000000000E+00 0.  1.
</event>
<event>
 6    1  0.1715574E-005  0.4153816E+02  0.7818608E-02  0.1578207E+00
          2   -1    0    0  502    0  0.00000000000E+00  0.00000000000E+00  0.22054826455E+03  0.22054826455E+03  0.00000000000E+00 0.  1.
          1   -1    0    0  501    0 -0.00000000000E+00 -0.00000000000E+00 -0.13886856278E+03  0.13886856278E+03  0.00000000000E+00 0.  1.
          2    1    1    2  501    0 -0.10447606996E+02 -0.35100440635E+02  0.14045647310E+03  0.14515238289E+03  0.00000000000E+00 0.  1.
          1    1    1    2  502    0 -0.57322727512E+01  0.29133411675E+02 -0.82485778241E+02  0.87667087545E+02  0.00000000000E+00 0.  1.
         22    1    1    2    0    0  0.25921338957E+01  0.10763620510E+02 -0.50144035879E+02  0.51351718753E+02  0.00000000000E+00 0. -1.
         22    1    1    2    0    0  0.13587745852E+02 -0.47965915497E+01  0.73853042800E+02  0.75245638137E+02  0.00000000000E+00 0. -1.
</event>
<event>
 6    1  0.1715574E-005  0.8648842E+02  0.7818608E-02  0.1381450E+00
          2   -1    0    0  502    0  0.00000000000E+00  0.00000000000E+00  0.50551875222E+02  0.50551875222E+02  0.00000000000E+00 0.  1.
          1   -1    0    0  501    0 -0.00000000000E+00 -0.00000000000E+00 -0.10489601936E+04  0.10489601936E+04  0.00000000000E+00 0.  1.
          2    1    1    2  501    0  0.19892292072E+02  0.33495821369E+02 -0.22875074687E+02  0.45176790225E+02  0.00000000000E+00 0.  1.
          1    1    1    2  502    0  0.84478917063E+02 -0.30590670633E+02 -0.83937263675E+03  0.84416757808E+03  0.00000000000E+00 0.  1.
         22    1    1    2    0    0 -0.26068565744E+02  0.20203068401E+00  0.21704918831E+02  0.33922182091E+02  0.00000000000E+00 0.  1.
         22    1    1    2    0    0 -0.78302643392E+02 -0.31071814205E+01 -0.15786552579E+03  0.17624551844E+03  0.00000000000E+00 0.  1.
</event>
<event>
 6    1  0.1715574E-005  0.1547239E+03  0.7818608E-02  0.1202258E+00
          2   -1    0    0  502    0  0.00000000000E+00  0.00000000000E+00  0.30459624854E+03  0.30459624854E+03  0.00000000000E+00 0.  1.
          1   -1    0    0  501    0 -0.00000000000E+00 -0.00000000000E+00 -0.32208817222E+03  0.32208817222E+03  0.00000000000E+00 0. -1.
          2    1    1    2  501    0 -0.37032658292E+02 -0.77118618215E+02  0.27053897083E+03  0.28374290087E+03  0.00000000000E+00 0.  1.
          1    1    1    2  502    0  0.12165954163E+02  0.60094818081E+02 -0.78794900858E+02  0.99840042078E+02  0.00000000000E+00 0. -1.
         22    1    1    2    0    0  0.50070768639E+02  0.27034591137E+02 -0.20833594427E+03  0.21596716571E+03  0.00000000000E+00 0. -1.
         22    1    1    2    0    0 -0.25204064510E+02 -0.10010791004E+02 -0.90004937766E+00  0.27134312102E+02  0.00000000000E+00 0.  1.
</event>
<event>
 6    1  0.1715574E-005  0.1155384E+03  0.7818608E-02  0.1294957E+00
          2   -1    0    0  502    0  0.00000000000E+00  0.00000000000E+00  0.45898502075E+02  0.45898502075E+02  0.00000000000E+00 0. -1.
          1   -1    0    0  501    0 -0.00000000000E+00 -0.00000000000E+00 -0.55493337297E+03  0.55493337297E+03  0.00000000000E+00 0.  1.
          2    1    1    2  501    0 -0.43641939898E+02  0.77696257047E+02 -0.83623409134E+02  0.12220557202E+03  0.00000000000E+00 0. -1.
          1    1    1    2  502    0  0.66461076162E+02 -0.64720013270E+02 -0.19326872885E+03  0.21437946803E+03  0.00000000000E+00 0.  1.
         22    1    1    2    0    0 -0.74712149685E+01  0.33785591117E+02 -0.90166910833E+01  0.35757320067E+02  0.00000000000E+00 0. -1.
         22    1    1    2    0    0 -0.15347921296E+02 -0.46761834894E+02 -0.22312604183E+03  0.22848951493E+03  0.00000000000E+00 0.  1.
</event>
<event>
 6    1  0.1715574E-005  0.3813791E+03  0.7818608E-02  0.1052985E+00
          2   -1    0    0  502    0  0.00000000000E+00  0.00000000000E+00  0.52850393208E+03  0.52850393208E+03  0.00000000000E+00 0.  1.
          1   -1    0    0  501    0 -0.00000000000E+00 -0.00000000000E+00 -0.34958790193E+03  0.34958790193E+03  0.00000000000E+00 0. -1.
          2    1    1    2  501    0  0.22661978976E+03  0.25372058052E+03  0.29193308751E+03  0.44828070410E+03  0.00000000000E+00 0.  1.
          1    1    1    2  502    0 -0.90001831008E+02  0.10794930002E+02 -0.20429636460E+02  0.92920558244E+02  0.00000000000E+00 0. -1.
         22    1    1    2    0    0  0.48765974200E+01 -0.11576389539E+02  0.21920169374E+02  0.25264358740E+02  0.00000000000E+00 0. -1.
         22    1    1    2    0    0 -0.14149455617E+03 -0.25293912098E+03 -0.11450759027E+03  0.31162621292E+03  0.00000000000E+00 0. -1.
</event>
<event>
 6    1  0.1715574E-005  0.1039545E+03  0.7818608E-02  0.1275153E+00
          2   -1    0    0  502    0  0.00000000000E+00  0.00000000000E+00  0.23820993600E+03  0.23820993600E+03  0.00000000000E+00 0.  1.
          1   -1    0    0  501    0 -0.00000000000E+00 -0.00000000000E+00 -0.44275715225E+02  0.44275715225E+02  0.00000000000E+00 0.  1.
          2    1    1    2  501    0 -0.22182856150E+02  0.29133843143E+02  0.18189708404E+02  0.40886738866E+02  0.00000000000E+00 0.  1.
          1    1    1    2  502    0 -0.13678730646E+02 -0.27971890996E+02  0.24947096409E+02  0.39898520990E+02  0.00000000000E+00 0.  1.
         22    1    1    2    0    0  0.85491462729E+00  0.60633096959E+02  0.51137063179E+02  0.79322774513E+02  0.00000000000E+00 0.  1.
         22    1    1    2    0    0  0.35006672168E+02 -0.61795049106E+02  0.99660352783E+02  0.12237761686E+03  0.00000000000E+00 0.  1.
</event>
<event>
 6    1  0.1715574E-005  0.9911878E+02  0.7818608E-02  0.1369365E+00
          2   -1    0    0  502    0  0.00000000000E+00  0.00000000000E+00  0.20912206104E+03  0.20912206104E+03  0.00000000000E+00 0.  1.
          1   -1    0    0  501    0 -0.00000000000E+00 -0.00000000000E+00 -0.13846231544E+03  0.13846231544E+03  0.00000000000E+00 0.  1.
          2    1    1    2  501    0  0.74797702435E+02  0.56496228020E+02 -0.23653522877E+02  0.96674759966E+02  0.00000000000E+00 0.  1.
          1    1    1    2  502    0  0.36936465837E+02 -0.30268816526E+02 -0.11003409349E+02  0.49005905559E+02  0.00000000000E+00 0.  1.
         22    1    1    2    0    0 -0.10431605925E+03 -0.64512986682E+01  0.13168419374E+03  0.16811955970E+03  0.00000000000E+00 0.  1.
         22    1    1    2    0    0 -0.74181090190E+01 -0.19776112826E+02 -0.26367515920E+02  0.33784151251E+02  0.00000000000E+00 0.  1.
</event>
<event>
 6    1  0.1715574E-005  0.7262740E+02  0.7818608E-02  0.1380071E+00
          2   -1    0    0  502    0  0.00000000000E+00  0.00000000000E+00  0.39321229402E+03  0.39321229402E+03  0.00000000000E+00 0. -1.
          1   -1    0    0  501    0 -0.00000000000E+00 -0.00000000000E+00 -0.66743578871E+02  0.66743578871E+02  0.00000000000E+00 0. -1.
          2    1    1    2  501    0  0.20688390738E+02 -0.27903072626E+02  0.33404651343E+01  0.34896270297E+02  0.00000000000E+00 0. -1.
          1    1    1    2  502    0 -0.26758969552E+02  0.60170959269E+02  0.28828809827E+03  0.29571373724E+03  0.00000000000E+00 0. -1.
         22    1    1    2    0    0  0.15352080700E+02 -0.76326571960E+02  0.11724244766E+02  0.78733029183E+02  0.00000000000E+00 0. -1.
         22    1    1    2    0    0 -0.92815018865E+01  0.44058685317E+02  0.23115906978E+02  0.50612836164E+02  0.00000000000E+00 0.  1.
</event>
<event>
 6    1  0.1715574E-005  0.1705409E+03  0.7818608E-02  0.1185298E+00
          2   -1    0    0  502    0  0.00000000000E+00  0.00000000000E+00  0.13002442128E+03  0.13002442128E+03  0.00000000000E+00 0. -1.
          1   -1    0    0  501    0 -0.00000000000E+00 -0.00000000000E+00 -0.33253322991E+03  0.33253322991E+03  0.00000000000E+00 0. -1.
          2    1    1    2  501    0 -0.10469115513E+02  0.28076387228E+02 -0.85980504076E+00  0.29977077310E+02  0.00000000000E+00 0. -1.
          1    1    1    2  502    0  0.12212240927E+03  0.42771863265E+02 -0.21247228775E+03  0.24877256318E+03  0.00000000000E+00 0. -1.
         22    1    1    2    0    0  0.10342949913E+02 -0.42292517284E+01 -0.35558742367E+02  0.37273145048E+02  0.00000000000E+00 0. -1.
         22    1    1    2    0    0 -0.12199624367E+03 -0.66618998764E+02  0.46382026530E+02  0.14653486565E+03  0.00000000000E+00 0. -1.
</event>
<event>
 6    1  0.1715574E-005  0.3327120E+02  0.7818608E-02  0.1644315E+00
          2   -1    0    0  502    0  0.00000000000E+00  0.00000000000E+00  0.10077467392E+03  0.10077467392E+03  0.00000000000E+00 0. -1.
          1   -1    0    0  501    0 -0.00000000000E+00 -0.00000000000E+00 -0.17236355435E+03  0.17236355435E+03  0.00000000000E+00 0. -1.
          2    1    1    2  501    0  0.10612550139E+02 -0.19965280150E+02  0.34420070328E+02  0.41182276203E+02  0.00000000000E+00 0. -1.
          1    1    1    2  502    0  0.27662282241E+02  0.21743927725E+02 -0.96961935024E+02  0.10314851960E+03  0.00000000000E+00 0. -1.
         22    1    1    2    0    0 -0.39048721616E+02  0.10995502894E+02 -0.62131229564E+02  0.74202381571E+02  0.00000000000E+00 0. -1.
         22    1    1    2    0    0  0.77388923555E+00 -0.12774150469E+02  0.53084213836E+02  0.54605050896E+02  0.00000000000E+00 0. -1.
</event>
<event>
 6    1  0.1715574E-005  0.3717937E+02  0.7818608E-02  0.1537891E+00
          2   -1    0    0  502    0  0.00000000000E+00  0.00000000000E+00  0.13996072054E+03  0.13996072054E+03  0.00000000000E+00 0.  1.
          1   -1    0    0  501    0 -0.00000000000E+00 -0.00000000000E+00 -0.92377540147E+03  0.92377540147E+03  0.00000000000E+00 0. -1.
          2    1    1    2  501    0  0.39925604858E+02 -0.10136536500E+02  0.28553083649E+02  0.50120673193E+02  0.00000000000E+00 0.  1.
          1    1    1    2  502    0 -0.62267090710E+02  0.20275866141E+02 -0.87337568548E+03  0.87582725998E+03  0.00000000000E+00 0. -1.
         22    1    1    2    0    0  0.17419688324E+02  0.14547841768E+02 -0.33232963880E+02  0.40243199794E+02  0.00000000000E+00 0. -1.
         22    1    1    2    0    0  0.49217975284E+01 -0.24687171410E+02  0.94240884782E+02  0.97544989044E+02  0.00000000000E+00 0.  1.
</event>
<event>
 6    1  0.1715574E-005  0.1108687E+03  0.7818608E-02  0.1312589E+00
          2   -1    0    0  502    0  0.00000000000E+00  0.00000000000E+00  0.19705441564E+03  0.19705441564E+03  0.00000000000E+00 0.  1.
          1   -1    0    0  501    0 -0.00000000000E+00 -0.00000000000E+00 -0.12759483367E+03  0.12759483367E+03  0.00000000000E+00 0.  1.
          2    1    1    2  501    0 -0.21540220137E+02 -0.13972344763E+02  0.13803870774E+03  0.14040616916E+03  0.00000000000E+00 0.  1.
          1    1    1    2  502    0  0.58913831007E+00 -0.26667787421E+02  0.80926378754E+01  0.27874876819E+02  0.00000000000E+00 0.  1.
         22    1    1    2    0    0  0.32986769350E+02  0.43993274459E+02 -0.10879480137E+03  0.12190095962E+03  0.00000000000E+00 0.  1.
         22    1    1    2    0    0 -0.12035687523E+02 -0.33531422749E+01  0.32123037723E+02  0.34467243722E+02  0.00000000000E+00 0.  1.
</event>
<event>
 6    1  0.1715574E-005  0.5961712E+02  0.7818608E-02  0.1476568E+00
          2   -1    0    0  502    0  0.00000000000E+00  0.00000000000E+00  0.24896731623E+03  0.24896731623E+03  0.00000000000E+00 0.  1.
          1   -1    0    0  501    0 -0.00000000000E+00 -0.00000000000E+00 -0.11487758852E+03  0.11487758852E+03  0.00000000000E+00 0.  1.
          2    1    1    2  501    0 -0.43689545066E+02 -0.27085089420E+02  0.10796107789E+03  0.11957413079E+03  0.00000000000E+00 0.  1.
          1    1    1    2  502    0  0.72693685105E+02 -0.16985106572E+02 -0.49267784951E+02  0.89443727189E+02  0.00000000000E+00 0.  1.
         22    1    1    2    0    0 -0.37221449187E+02  0.31153541073E+02  0.10822124024E+03  0.11860782537E+03  0.00000000000E+00 0.  1.
         22    1    1    2    0    0  0.82173091474E+01  0.12916654919E+02 -0.32824805466E+02  0.36219221385E+02  0.00000000000E+00 0. -1.
</event>
<event>
 6    1  0.1715574E-005  0.1023346E+03  0.7818608E-02  0.1278292E+00
          2   -1    0    0  502    0  0.00000000000E+00  0.00000000000E+00  0.12280441599E+03  0.12280441599E+03  0.00000000000E+00 0.  1.
          1   -1    0    0  501    0 -0.00000000000E+00 -0.00000000000E+00 -0.10651283552E+03  0.10651283552E+03  0.00000000000E+00 0. -1.
          2    1    1    2  501    0  0.89063631225E+01  0.31100381341E+02  0.15740646575E+02  0.35976728287E+02  0.00000000000E+00 0.  1.
          1    1    1    2  502    0  0.46715888705E+01 -0.51758502819E+02 -0.27133375665E+02  0.58625817109E+02  0.00000000000E+00 0. -1.
         22    1    1    2    0    0  0.21278144966E+02 -0.39591730686E+02 -0.21161765196E+02  0.49679823854E+02  0.00000000000E+00 0.  1.
         22    1    1    2    0    0 -0.34856096959E+02  0.60249852165E+02  0.48846074754E+02  0.85034882254E+02  0.00000000000E+00 0.  1.
</event>
<event>
 6    1  0.2138030E-005  0.1439994E+03  0.7818608E-02  0.1209093E+00
          2   -1    0    0  502    0  0.00000000000E+00  0.00000000000E+00  0.25390974330E+03  0.25390974330E+03  0.00000000000E+00 0.  1.
          1   -1    0    0  501    0 -0.00000000000E+00 -0.00000000000E+00 -0.40037934303E+03  0.40037934303E+03  0.00000000000E+00 0.  1.
          2    1    1    2  501    0 -0.84042845917E+02  0.91056312460E+02  0.19225966692E+03  0.22873178946E+03  0.00000000000E+00 0.  1.
          1    1    1    2  502    0  0.60697965379E+02 -0.86186629444E+02 -0.23521118192E+03  0.25775313421E+03  0.00000000000E+00 0.  1.
         22    1    1    2    0    0 -0.55610038217E+01  0.15943148800E+02  0.27368157947E+02  0.32157811284E+02  0.00000000000E+00 0. -1.
         22    1    1    2    0    0  0.28905884360E+02 -0.20812831816E+02 -0.13088624268E+03  0.13564635137E+03  0.00000000000E+00 0. -1.
</event>
<event>
 6    1  0.1715574E-005  0.1315105E+03  0.7818608E-02  0.1251140E+00
          2   -1    0    0  502    0  0.00000000000E+00  0.00000000000E+00  0.23858999402E+03  0.23858999402E+03  0.00000000000E+00 0.  1.
          1   -1    0    0  501    0 -0.00000000000E+00 -0.00000000000E+00 -0.49778783683E+02  0.49778783683E+02  0.00000000000E+00 0.  1.
          2    1    1    2  501    0 -0.23450762843E+02  0.49439237882E+01 -0.97152473853E+01  0.25860523818E+02  0.00000000000E+00 0.  1.
          1    1    1    2  502    0 -0.26208817739E+02 -0.14336695099E+02  0.67745509321E+02  0.74039833784E+02  0.00000000000E+00 0.  1.
         22    1    1    2    0    0 -0.35709826029E+02 -0.25059225587E+02  0.43706541718E+02  0.61752880507E+02  0.00000000000E+00 0.  1.
         22    1    1    2    0    0  0.85369406611E+02  0.34451996897E+02  0.87074406687E+02  0.12671553960E+03  0.00000000000E+00 0.  1.
</event>
<event>
 6    1  0.1715574E-005  0.1229334E+03  0.7818608E-02  0.1241586E+00
          2   -1    0    0  502    0  0.00000000000E+00  0.00000000000E+00  0.15026775985E+03  0.15026775985E+03  0.00000000000E+00 0.  1.
          1   -1    0    0  501    0 -0.00000000000E+00 -0.00000000000E+00 -0.20805171066E+03  0.20805171066E+03  0.00000000000E+00 0.  1.
          2    1    1    2  501    0  0.73573250135E+02 -0.26031533608E+01  0.71209204556E+02  0.10242338774E+03  0.00000000000E+00 0.  1.
          1    1    1    2  502    0 -0.87580483127E+02  0.57830206522E+01 -0.93613902169E+02  0.12832516134E+03  0.00000000000E+00 0.  1.
         22    1    1    2    0    0 -0.23682674903E+02 -0.19916835439E+02 -0.68182842775E+02  0.74876227692E+02  0.00000000000E+00 0.  1.
         22    1    1    2    0    0  0.37689907895E+02  0.16736968148E+02  0.32803589572E+02  0.52694693744E+02  0.00000000000E+00 0.  1.
</event>
<event>
 6    1  0.1715574E-005  0.4547850E+02  0.7818608E-02  0.1517642E+00
          2   -1    0    0  502    0  0.00000000000E+00  0.00000000000E+00  0.77447671918E+02  0.77447671918E+02  0.00000000000E+00 0.  1.
          1   -1    0    0  501    0 -0.00000000000E+00 -0.00000000000E+00 -0.30427697823E+03  0.30427697823E+03  0.00000000000E+00 0.  1.
          2    1    1    2  501    0  0.22166423274E+02  0.24150991928E+02  0.36070217873E+02  0.48740961719E+02  0.00000000000E+00 0.  1.
          1    1    1    2  502    0  0.22234115247E+01 -0.23926004693E+02 -0.18313347429E+03  0.18470318531E+03  0.00000000000E+00 0.  1.
         22    1    1    2    0    0 -0.94603580731E+01 -0.18967575885E+02 -0.10868020753E+03  0.11072784121E+03  0.00000000000E+00 0.  1.
         22    1    1    2    0    0 -0.14929476726E+02  0.18742588650E+02  0.28914157636E+02  0.37552661908E+02  0.00000000000E+00 0.  1.
</event>
<event>
 6    1  0.1715574E-005  0.7328046E+02  0.7818608E-02  0.1352678E+00
          2   -1    0    0  502    0  0.00000000000E+00  0.00000000000E+00  0.10909180701E+03  0.10909180701E+03  0.00000000000E+00 0. -1.
          1   -1    0    0  501    0 -0.00000000000E+00 -0.00000000000E+00 -0.21118315087E+03  0.21118315087E+03  0.00000000000E+00 0. -1.
          2    1    1    2  501    0  0.17610325053E+01 -0.26595866985E+02  0.60970009265E+02  0.66541591550E+02  0.00000000000E+00 0. -1.
          1    1    1    2  502    0 -0.36878617593E+00  0.37709387082E+02 -0.11976403418E+03  0.12556097228E+03  0.00000000000E+00 0. -1.
         22    1    1    2    0    0  0.22097548537E+02  0.21416165814E+02 -0.72358011677E+02  0.78629737780E+02  0.00000000000E+00 0. -1.
         22    1    1    2    0    0 -0.23489794867E+02 -0.32529685911E+02  0.29060692728E+02  0.49542656269E+02  0.00000000000E+00 0. -1.
</event>
<event>
 6    1  0.1715574E-005  0.1203675E+03  0.7818608E-02  0.1242527E+00
          2   -1    0    0  502    0  0.00000000000E+00  0.00000000000E+00  0.17792228738E+03  0.17792228738E+03  0.00000000000E+00 0. -1.
          1   -1    0    0  501    0 -0.00000000000E+00 -0.00000000000E+00 -0.14723552351E+03  0.14723552351E+03  0.00000000000E+00 0.  1.
          2    1    1    2  501    0 -0.16784781994E+02 -0.59743056502E+02  0.73604437071E+02  0.96273437995E+02  0.00000000000E+00 0. -1.
          1    1    1    2  502    0  0.12539351824E+02  0.85956864151E+02 -0.54487732272E+02  0.10254136145E+03  0.00000000000E+00 0.  1.
         22    1    1    2    0    0  0.51450649813E+01 -0.57302812702E+02  0.50473436305E+02  0.76535297803E+02  0.00000000000E+00 0.  1.
         22    1    1    2    0    0 -0.89963481104E+00  0.31089005053E+02 -0.38903377236E+02  0.49807713643E+02  0.00000000000E+00 0. -1.
</event>
<event>
 6    1  0.2143003E-005  0.7126139E+02  0.7818608E-02  0.1356546E+00
          2   -1    0    0  502    0  0.00000000000E+00  0.00000000000E+00  0.52464106661E+03  0.52464106661E+03  0.00000000000E+00 0.  1.
          1   -1    0    0  501    0 -0.00000000000E+00 -0.00000000000E+00 -0.17993736013E+03  0.17993736013E+03  0.00000000000E+00 0. -1.
          2    1    1    2  501    0 -0.45533417691E+02  0.32778888335E+02  0.42784481808E+03  0.43150774733E+03  0.00000000000E+00 0.  1.
          1    1    1    2  502    0  0.52548220389E+02 -0.23746173468E+02 -0.12753930520E+03  0.13996953451E+03  0.00000000000E+00 0. -1.
         22    1    1    2    0    0 -0.14778571799E+02 -0.37695580760E+00  0.87355722256E+02  0.88597801841E+02  0.00000000000E+00 0.  1.
         22    1    1    2    0    0  0.77637691010E+01 -0.86557590593E+01 -0.42957528652E+02  0.44503343059E+02  0.00000000000E+00 0. -1.
</event>
<event>
 6    1  0.1715574E-005  0.1963306E+03  0.7818608E-02  0.1163167E+00
          2   -1    0    0  502    0  0.00000000000E+00  0.00000000000E+00  0.96267814263E+02  0.96267814263E+02  0.00000000000E+00 0.  1.
          1   -1    0    0  501    0 -0.00000000000E+00 -0.00000000000E+00 -0.12759394090E+04  0.12759394090E+04  0.00000000000E+00 0.  1.
          2    1    1    2  501    0  0.28485999704E+03 -0.78886395459E+02 -0.54030284861E+03  0.61586966926E+03  0.00000000000E+00 0.  1.
          1    1    1    2  502    0 -0.15691144475E+03  0.42023710294E+02 -0.10987156283E+03  0.19610954602E+03  0.00000000000E+00 0.  1.
         22    1    1    2    0    0 -0.14630788801E+03  0.49215803068E+02 -0.50042661834E+03  0.52369360671E+03  0.00000000000E+00 0.  1.
         22    1    1    2    0    0  0.18359335715E+02 -0.12353117903E+02 -0.29070564980E+02  0.36534401297E+02  0.00000000000E+00 0. -1.
</event>
<event>
 6    1  0.1715574E-005  0.1748526E+03  0.7818608E-02  0.1206664E+00
          2   -1    0    0  502    0  0.00000000000E+00  0.00000000000E+00  0.62005563877E+03  0.62005563877E+03  0.00000000000E+00 0. -1.
          1   -1    0    0  501    0 -0.00000000000E+00 -0.00000000000E+00 -0.14189152441E+03  0.14189152441E+03  0.00000000000E+00 0.  1.
          2    1    1    2  501    0  0.68100426698E+02 -0.38244471321E+02  0.55866622808E+03  0.56409951436E+03  0.00000000000E+00 0. -1.
          1    1    1    2  502    0 -0.26468541956E+02  0.38400806733E+02 -0.31355655566E+02  0.56199491163E+02  0.00000000000E+00 0.  1.
         22    1    1    2    0    0 -0.38804949291E+02 -0.16981231737E+02  0.35520052410E+02  0.55279837590E+02  0.00000000000E+00 0. -1.
         22    1    1    2    0    0 -0.28269354510E+01  0.16824896325E+02 -0.84666510567E+02  0.86368320071E+02  0.00000000000E+00 0.  1.
</event>
<event>
 6    1  0.1715574E-005  0.1234624E+03  0.7818608E-02  0.1240860E+00
          2   -1    0    0  502    0  0.00000000000E+00  0.00000000000E+00  0.23187321459E+03  0.23187321459E+03  0.00000000000E+00 0. -1.
          1   -1    0    0  501    0 -0.00000000000E+00 -0.00000000000E+00 -0.61568446482E+02  0.61568446482E+02  0.00000000000E+00 0. -1.
          2    1    1    2  501    0 -0.10863941155E+02 -0.53224210402E+02  0.55722517399E+02  0.77819282544E+02  0.00000000000E+00 0. -1.
          1    1    1    2  502    0 -0.19105822399E+02  0.46445073995E+02  0.47734795680E+02  0.69287719450E+02  0.00000000000E+00 0. -1.
         22    1    1    2    0    0 -0.81382651919E+01  0.62196410653E+02  0.28293770965E+02  0.68812515823E+02  0.00000000000E+00 0.  1.
         22    1    1    2    0    0  0.38108028746E+02 -0.55417274246E+02  0.38553684059E+02  0.77522143252E+02  0.00000000000E+00 0. -1.
</event>
<event>
 6    1  0.1715574E-005  0.5751703E+02  0.7818608E-02  0.1514935E+00
          2   -1    0    0  502    0  0.00000000000E+00  0.00000000000E+00  0.23118963955E+03  0.23118963955E+03  0.00000000000E+00 0. -1.
          1   -1    0    0  501    0 -0.00000000000E+00 -0.00000000000E+00 -0.43211050140E+03  0.43211050140E+03  0.00000000000E+00 0.  1.
          2    1    1    2  501    0  0.16391065275E+02  0.25112508750E+02  0.14152950532E+03  0.14467171801E+03  0.00000000000E+00 0. -1.
          1    1    1    2  502    0 -0.43579553420E+02 -0.35391851522E+02 -0.38303134834E+03  0.38712371981E+03  0.00000000000E+00 0.  1.
         22    1    1    2    0    0  0.18470085594E+02  0.18933559060E+02  0.83120215430E+02  0.87227254535E+02  0.00000000000E+00 0. -1.
         22    1    1    2    0    0  0.87184025516E+01 -0.86542162883E+01 -0.42539234254E+02  0.44277448589E+02  0.00000000000E+00 0.  1.
</event>
<event>
 6    1  0.1715574E-005  0.1607379E+03  0.7818608E-02  0.1215101E+00
          2   -1    0    0  502    0  0.00000000000E+00  0.00000000000E+00  0.88033438586E+02  0.88033438586E+02  0.00000000000E+00 0. -1.
          1   -1    0    0  501    0 -0.00000000000E+00 -0.00000000000E+00 -0.27735645665E+03  0.27735645665E+03  0.00000000000E+00 0. -1.
          2    1    1    2  501    0  0.63842338360E+02  0.28215087763E+02  0.34356907704E+02  0.77796738053E+02  0.00000000000E+00 0. -1.
          1    1    1    2  502    0 -0.37562159795E+02  0.10140257749E+02 -0.10254856421E+03  0.10968112280E+03  0.00000000000E+00 0. -1.
         22    1    1    2    0    0  0.79873217930E+01 -0.72571196824E+02 -0.39530592922E+02  0.83024356032E+02  0.00000000000E+00 0. -1.
         22    1    1    2    0    0 -0.34267500358E+02  0.34215851311E+02 -0.81600768627E+02  0.94887678348E+02  0.00000000000E+00 0. -1.
</event>
<event>
 6    1  0.1715574E-005  0.8903890E+02  0.7818608E-02  0.1306095E+00
          2   -1    0    0  502    0  0.00000000000E+00  0.00000000000E+00  0.45521481551E+02  0.45521481551E+02  0.00000000000E+00 0. -1.
          1   -1    0    0  501    0 -0.00000000000E+00 -0.00000000000E+00 -0.25400033605E+03  0.25400033605E+03  0.00000000000E+00 0.  1.
          2    1    1    2  501    0 -0.76329338627E+01 -0.49170937051E+02 -0.13255579984E+02  0.51495175799E+02  0.00000000000E+00 0. -1.
          1    1    1    2  502    0  0.11514713603E+02  0.17623806006E+02 -0.27322644152E+02  0.34492231748E+02  0.00000000000E+00 0.  1.
         22    1    1    2    0    0 -0.27726807774E+02 -0.27642961493E+02 -0.61256349204E+01  0.39628683963E+02  0.00000000000E+00 0. -1.
         22    1    1    2    0    0  0.23845028033E+02  0.59190092537E+02 -0.16177499544E+03  0.17390572609E+03  0.00000000000E+00 0.  1.
</event>
<event>
 6    1  0.1715574E-005  0.7463282E+02  0.7818608E-02  0.1356647E+00
          2   -1    0    0  502    0  0.00000000000E+00  0.00000000000E+00  0.22267728474E+03  0.22267728474E+03  0.00000000000E+00 0.  1.
          1   -1    0    0  501    0 -0.00000000000E+00 -0.00000000000E+00 -0.96528041399E+02  0.96528041399E+02  0.00000000000E+00 0.  1.
          2    1    1    2  501    0 -0.26142761618E+02  0.34131798270E+02  0.11553685204E+03  0.12327687462E+03  0.00000000000E+00 0.  1.
          1    1    1    2  502    0  0.30901762548E+02 -0.35572176326E+01 -0.44563931409E+02  0.54346266739E+02  0.00000000000E+00 0.  1.
         22    1    1    2    0    0 -0.10504829522E+02  0.10785388727E+02  0.87493906121E+02  0.88779838148E+02  0.00000000000E+00 0.  1.
         22    1    1    2    0    0  0.57458285928E+01 -0.41359969364E+02 -0.32317583409E+02  0.52802346628E+02  0.00000000000E+00 0. -1.
</event>
<event>
 6    1  0.1715574E-005  0.3557014E+02  0.7818608E-02  0.1602051E+00
          2   -1    0    0  502    0  0.00000000000E+00  0.00000000000E+00  0.89057000589E+02  0.89057000589E+02  0.00000000000E+00 0. -1.
          1   -1    0    0  501    0 -0.00000000000E+00 -0.00000000000E+00 -0.58953560587E+03  0.58953560587E+03  0.00000000000E+00 0. -1.
          2    1    1    2  501    0  0.19525383617E+02 -0.67399924655E+01  0.41410543405E+02  0.46276356911E+02  0.00000000000E+00 0. -1.
          1    1    1    2  502    0 -0.20703488982E+02 -0.32048612901E+01 -0.49276381623E+03  0.49320896604E+03  0.00000000000E+00 0. -1.
         22    1    1    2    0    0  0.14422277612E+02 -0.96686136127E+00  0.43017020537E+02  0.45380623269E+02  0.00000000000E+00 0. -1.
         22    1    1    2    0    0 -0.13244172248E+02  0.10911715117E+02 -0.92142352987E+02  0.93726660238E+02  0.00000000000E+00 0.  1.
</event>
<event>
 6    1  0.1715574E-005  0.4166886E+02  0.7818608E-02  0.1558849E+00
          2   -1    0    0  502    0  0.00000000000E+00  0.00000000000E+00  0.28946064846E+03  0.28946064846E+03  0.00000000000E+00 0. -1.
          1   -1    0    0  501    0 -0.00000000000E+00 -0.00000000000E+00 -0.50412532534E+02  0.50412532534E+02  0.00000000000E+00 0. -1.
          2    1    1    2  501    0  0.67158079679E+02  0.34064491676E+02  0.87033630156E+02  0.11508887886E+03  0.00000000000E+00 0. -1.
          1    1    1    2  502    0 -0.21699768082E+02 -0.29109424041E+01  0.68864619640E+01  0.22951620397E+02  0.00000000000E+00 0. -1.
         22    1    1    2    0    0 -0.15633975675E+02 -0.93073111836E+01 -0.23205110253E+02  0.29487698769E+02  0.00000000000E+00 0. -1.
         22    1    1    2    0    0 -0.29824335923E+02 -0.21846238088E+02  0.16833313406E+03  0.17234498297E+03  0.00000000000E+00 0. -1.
</event>
<event>
 6    1  0.1715574E-005  0.6493110E+02  0.7818608E-02  0.1379095E+00
          2   -1    0    0  502    0  0.00000000000E+00  0.00000000000E+00  0.97939342091E+02  0.97939342091E+02  0.00000000000E+00 0.  1.
          1   -1    0    0  501    0 -0.00000000000E+00 -0.00000000000E+00 -0.27377013871E+03  0.27377013871E+03  0.00000000000E+00 0. -1.
          2    1    1    2  501    0  0.11122312155E+02  0.49541707539E+02  0.58569604602E+02  0.77514419283E+02  0.00000000000E+00 0.  1.
          1    1    1    2  502    0  0.73037160350E+00 -0.25377747191E+02 -0.11896976557E+03  0.12164854547E+03  0.00000000000E+00 0. -1.
         22    1    1    2    0    0 -0.15572699180E+02 -0.35779340450E+02 -0.13988164520E+03  0.14522239781E+03  0.00000000000E+00 0. -1.
         22    1    1    2    0    0  0.37200154207E+01  0.11615380102E+02  0.24451009545E+02  0.27324118237E+02  0.00000000000E+00 0. -1.
</event>
<event>
 6    1  0.1715574E-005  0.4204156E+03  0.7818608E-02  0.1039862E+00
          2   -1    0    0  502    0  0.00000000000E+00  0.00000000000E+00  0.54530640530E+03  0.54530640530E+03  0.00000000000E+00 0.  1.
          1   -1    0    0  501    0 -0.00000000000E+00 -0.00000000000E+00 -0.53031337477E+03  0.53031337477E+03  0.00000000000E+00 0.  1.
          2    1    1    2  501    0  0.34585438192E+03 -0.92321609621E+02  0.38439908319E+03  0.52526297058E+03  0.00000000000E+00 0.  1.
          1    1    1    2  502    0 -0.18551580950E+03  0.10531429008E+02 -0.14014493245E+03  0.23273940075E+03  0.00000000000E+00 0.  1.
         22    1    1    2    0    0  0.21589241355E+02  0.42241232477E+01 -0.21021799067E+02  0.30427858872E+02  0.00000000000E+00 0.  1.
         22    1    1    2    0    0 -0.18192781378E+03  0.77566057365E+02 -0.20823932115E+03  0.28718954987E+03  0.00000000000E+00 0.  1.
</event>
<event>
 6    1  0.1715574E-005  0.1512319E+03  0.7818608E-02  0.1201682E+00
          2   -1    0    0  502    0  0.00000000000E+00  0.00000000000E+00  0.33242616616E+02  0.33242616616E+02  0.00000000000E+00 0. -1.
          1   -1    0    0  501    0 -0.00000000000E+00 -0.00000000000E+00 -0.65777829529E+03  0.65777829529E+03  0.00000000000E+00 0. -1.
          2    1    1    2  501    0  0.10984168448E+03  0.24752094770E+02 -0.26997290781E+03  0.29251193616E+03  0.00000000000E+00 0. -1.
          1    1    1    2  502    0 -0.19774258315E+02 -0.17803270156E+02 -0.28894251976E+02  0.39279199551E+02  0.00000000000E+00 0. -1.
         22    1    1    2    0    0  0.17515755468E+02 -0.17358525740E+02 -0.11928657226E+02  0.27393666580E+02  0.00000000000E+00 0. -1.
         22    1    1    2    0    0 -0.10758318163E+03  0.10409701127E+02 -0.31373986167E+03  0.33183610962E+03  0.00000000000E+00 0. -1.
</event>
<event>
 6    1  0.1715574E-005  0.9789457E+02  0.7818608E-02  0.1296209E+00
          2   -1    0    0  502    0  0.00000000000E+00  0.00000000000E+00  0.13427256780E+03  0.13427256780E+03  0.00000000000E+00 0. -1.
          1   -1    0    0  501    0 -0.00000000000E+00 -0.00000000000E+00 -0.58317349823E+02  0.58317349823E+02  0.00000000000E+00 0. -1.
          2    1    1    2  501    0  0.20327232196E+02  0.32815388946E+01  0.15803390391E+01  0.20650964572E+02  0.00000000000E+00 0. -1.
          1    1    1    2  502    0 -0.70224162453E+01 -0.21661382393E+02  0.20705577327E+02  0.30777438970E+02  0.00000000000E+00 0. -1.
         22    1    1    2    0    0 -0.69891842055E+02  0.19168316743E+02  0.19487020364E+02  0.75046904768E+02  0.00000000000E+00 0. -1.
         22    1    1    2    0    0  0.56587026103E+02 -0.78847324445E+00  0.34182281247E+02  0.66114609312E+02  0.00000000000E+00 0. -1.
</event>
<event>
 6    1  0.1715574E-005  0.6519762E+02  0.7818608E-02  0.1451025E+00
          2   -1    0    0  502    0  0.00000000000E+00  0.00000000000E+00  0.51287823444E+03  0.51287823444E+03  0.00000000000E+00 0.  1.
          1   -1    0    0  501    0 -0.00000000000E+00 -0.00000000000E+00 -0.47258715671E+02  0.47258715671E+02  0.00000000000E+00 0. -1.
          2    1    1    2  501    0 -0.17540095582E+02  0.68668757795E+02  0.35292015122E+03  0.35996622951E+03  0.00000000000E+00 0.  1.
          1    1    1    2  502    0  0.19152716096E+02 -0.14436086546E+02  0.10154188461E+02  0.26044858839E+02  0.00000000000E+00 0. -1.
         22    1    1    2    0    0  0.20434770542E+02  0.35208781088E+01 -0.24945253721E+02  0.32438281597E+02  0.00000000000E+00 0.  1.
         22    1    1    2    0    0 -0.22047391055E+02 -0.57753549357E+02  0.12749043281E+03  0.14168758017E+03  0.00000000000E+00 0. -1.
</event>
<event>
 6    1  0.1715574E-005  0.1092373E+03  0.7818608E-02  0.1263296E+00
          2   -1    0    0  502    0  0.00000000000E+00  0.00000000000E+00  0.28049860871E+03  0.28049860871E+03  0.00000000000E+00 0. -1.
          1   -1    0    0  501    0 -0.00000000000E+00 -0.00000000000E+00 -0.17588482127E+03  0.17588482127E+03  0.00000000000E+00 0. -1.
          2    1    1    2  501    0 -0.39199299165E+02  0.11721823787E+02  0.13147922666E+03  0.13769812363E+03  0.00000000000E+00 0. -1.
          1    1    1    2  502    0  0.91061150314E+02 -0.11231293094E+02 -0.12078015418E+03  0.15167768684E+03  0.00000000000E+00 0. -1.
         22    1    1    2    0    0  0.12871645739E+02  0.59606361497E+01 -0.26548852525E+02  0.30100664739E+02  0.00000000000E+00 0. -1.
         22    1    1    2    0    0 -0.64733496888E+02 -0.64511668423E+01  0.12046356749E+03  0.13690695477E+03  0.00000000000E+00 0. -1.
</event>
<event>
 6    1  0.1715574E-005  0.7351359E+02  0.7818608E-02  0.1369182E+00
          2   -1    0    0  502    0  0.00000000000E+00  0.00000000000E+00  0.90739179808E+02  0.90739179808E+02  0.00000000000E+00 0.  1.
          1   -1    0    0  501    0 -0.00000000000E+00 -0.00000000000E+00 -0.13557633720E+03  0.13557633720E+03  0.00000000000E+00 0.  1.
          2    1    1    2  501    0 -0.32648240633E+02 -0.62549073872E+01  0.41811166541E+02  0.53415401622E+02  0.00000000000E+00 0.  1.
          1    1    1    2  502    0  0.19044208372E+02  0.65557256618E+01 -0.33210057789E+02  0.38840279992E+02  0.00000000000E+00 0.  1.
         22    1    1    2    0    0 -0.13455129829E+02  0.27600135688E+02 -0.80859521177E+02  0.86493179926E+02  0.00000000000E+00 0. -1.
         22    1    1    2    0    0  0.27059162090E+02 -0.27900953963E+02  0.27421255032E+02  0.47566655470E+02  0.00000000000E+00 0. -1.
</event>
<event>
 6    1  0.1715574E-005  0.7043670E+02  0.7818608E-02  0.1425231E+00
          2   -1    0    0  502    0  0.00000000000E+00  0.00000000000E+00  0.15721744439E+04  0.15721744439E+04  0.00000000000E+00 0. -1.
          1   -1    0    0  501    0 -0.00000000000E+00 -0.00000000000E+00 -0.11397140490E+03  0.11397140490E+03  0.00000000000E+00 0. -1.
          2    1    1    2  501    0  0.28869450017E+02  0.99555998577E+02  0.13986115248E+04  0.14024475175E+04  0.00000000000E+00 0. -1.
          1    1    1    2  502    0  0.30928659081E+01 -0.10879539480E+03 -0.40678936799E+02  0.11619285541E+03  0.00000000000E+00 0. -1.
         22    1    1    2    0    0 -0.47445143869E+02  0.47398276251E+01  0.12735322235E+03  0.13598658347E+03  0.00000000000E+00 0. -1.
         22    1    1    2    0    0  0.15482827944E+02  0.44995685980E+01 -0.27082771322E+02  0.31518892449E+02  0.00000000000E+00 0.  1.
</event>
<event>
 6    1  0.1715574E-005  0.3666040E+02  0.7818608E-02  0.1595395E+00
          2   -1    0    0  502    0  0.00000000000E+00  0.00000000000E+00  0.29311486768E+03  0.29311486768E+03  0.00000000000E+00 0.  1.
          1   -1    0    0  501    0 -0.00000000000E+00 -0.00000000000E+00 -0.10203086842E+03  0.10203086842E+03  0.00000000000E+00 0. -1.
          2    1    1    2  501    0  0.24495641095E+02 -0.55611928537E+01  0.21356685214E+03  0.21503898165E+03  0.00000000000E+00 0.  1.
          1    1    1    2  502    0 -0.20360593202E+02 -0.36545814524E+01 -0.43621009252E+02  0.48277346336E+02  0.00000000000E+00 0. -1.
         22    1    1    2    0    0 -0.14574282240E+02 -0.41805340612E+01 -0.53332942116E+02  0.55446273839E+02  0.00000000000E+00 0. -1.
         22    1    1    2    0    0  0.10439234347E+02  0.13396308367E+02  0.74471098483E+02  0.76383134270E+02  0.00000000000E+00 0.  1.
</event>
<event>
 6    1  0.1715574E-005  0.1328817E+03  0.7818608E-02  0.1234655E+00
          2   -1    0    0  502    0  0.00000000000E+00  0.00000000000E+00  0.10808352993E+04  0.10808352993E+04  0.00000000000E+00 0.  1.
          1   -1    0    0  501    0 -0.00000000000E+00 -0.00000000000E+00 -0.13137504677E+02  0.13137504677E+02  0.00000000000E+00 0.  1.
          2    1    1    2  501    0  0.31053416176E+02  0.35742044662E+02  0.25742283521E+03  0.26174094922E+03  0.00000000000E+00 0.  1.
          1    1    1    2  502    0  0.32689905111E+01 -0.56211255639E+02  0.29093950886E+03  0.29633796479E+03  0.00000000000E+00 0.  1.
         22    1    1    2    0    0 -0.74459898713E+02 -0.16412368273E+02  0.34066220564E+03  0.34909079149E+03  0.00000000000E+00 0.  1.
         22    1    1    2    0    0  0.40137492026E+02  0.36881579250E+02  0.17867324493E+03  0.18680309850E+03  0.00000000000E+00 0. -1.
</event>
<event>
 6    1  0.1715574E-005  0.8815525E+02  0.7818608E-02  0.1422007E+00
          2   -1    0    0  502    0  0.00000000000E+00  0.00000000000E+00  0.24465624117E+03  0.24465624117E+03  0.00000000000E+00 0.  1.
          1   -1    0    0  501    0 -0.00000000000E+00 -0.00000000000E+00 -0.30611950296E+03  0.30611950296E+03  0.00000000000E+00 0. -1.
          2    1    1    2  501    0 -0.13086633961E+02 -0.32909466672E+02  0.13613570300E+03  0.14066706302E+03  0.00000000000E+00 0.  1.
          1    1    1    2  502    0  0.29204933415E+02  0.77193157609E+02 -0.25401817850E+03  0.26708977278E+03  0.00000000000E+00 0. -1.
         22    1    1    2    0    0  0.12012969862E+02 -0.48929652766E+01 -0.36232846492E+02  0.38484694607E+02  0.00000000000E+00 0.  1.
         22    1    1    2    0    0 -0.28131269316E+02 -0.39390725660E+02  0.92652060195E+02  0.10453421373E+03  0.00000000000E+00 0. -1.
</event>
<event>
 6    1  0.1715574E-005  0.1447718E+03  0.7818608E-02  0.1235138E+00
          2   -1    0    0  502    0  0.00000000000E+00  0.00000000000E+00  0.11872974508E+03  0.11872974508E+03  0.00000000000E+00 0. -1.
          1   -1    0    0  501    0 -0.00000000000E+00 -0.00000000000E+00 -0.38362198154E+03  0.38362198154E+03  0.00000000000E+00 0. -1.
          2    1    1    2  501    0  0.35964957683E+02  0.55012388141E+02  0.82326809044E+02  0.10534488368E+03  0.00000000000E+00 0. -1.
          1    1    1    2  502    0 -0.11258115454E+01 -0.22423099831E+02  0.89021284598E+00  0.22468986105E+02  0.00000000000E+00 0. -1.
         22    1    1    2    0    0  0.72257055463E+01  0.10754220455E+02  0.67264707739E+01  0.14598270011E+02  0.00000000000E+00 0.  1.
         22    1    1    2    0    0 -0.42064851684E+02 -0.43343508765E+02 -0.35483572912E+03  0.35993958682E+03  0.00000000000E+00 0. -1.
</event>
<event>
 6    1  0.1715574E-005  0.4901905E+02  0.7818608E-02  0.1451464E+00
          2   -1    0    0  502    0  0.00000000000E+00  0.00000000000E+00  0.29594782397E+03  0.29594782397E+03  0.00000000000E+00 0.  1.
          1   -1    0    0  501    0 -0.00000000000E+00 -0.00000000000E+00 -0.10854611946E+03  0.10854611946E+03  0.00000000000E+00 0. -1.
          2    1    1    2  501    0  0.15746094180E+02  0.16937157159E+02  0.17529690003E+03  0.17681575138E+03  0.00000000000E+00 0.  1.
          1    1    1    2  502    0 -0.19870726159E+02 -0.31546471408E+02 -0.70419581875E+02  0.79680255571E+02  0.00000000000E+00 0. -1.
         22    1    1    2    0    0  0.14396751504E+02  0.19246926275E+02  0.11298804651E+03  0.11551627279E+03  0.00000000000E+00 0.  1.
         22    1    1    2    0    0 -0.10272119525E+02 -0.46376120261E+01 -0.30463660171E+02  0.32481663686E+02  0.00000000000E+00 0.  1.
</event>
<event>
 6    1  0.1715574E-005  0.1402339E+03  0.7818608E-02  0.1214573E+00
          2   -1    0    0  502    0  0.00000000000E+00  0.00000000000E+00  0.36228543003E+03  0.36228543003E+03  0.00000000000E+00 0. -1.
          1   -1    0    0  501    0 -0.00000000000E+00 -0.00000000000E+00 -0.18755572773E+03  0.18755572773E+03  0.00000000000E+00 0. -1.
          2    1    1    2  501    0  0.62250893331E+02  0.99395321524E+02 -0.12129052748E+03  0.16871868811E+03  0.00000000000E+00 0. -1.
          1    1    1    2  502    0 -0.29292052614E+02 -0.55579462700E+02  0.21129005562E+03  0.22043273038E+03  0.00000000000E+00 0. -1.
         22    1    1    2    0    0  0.17565139285E+02  0.38886522820E+01 -0.25005051860E+02  0.30804356075E+02  0.00000000000E+00 0.  1.
         22    1    1    2    0    0 -0.50523980001E+02 -0.47704511107E+02  0.10973522603E+03  0.12988538319E+03  0.00000000000E+00 0. -1.
</event>
<event>
 6    1  0.1715574E-005  0.1108058E+03  0.7818608E-02  0.1280734E+00
          2   -1    0    0  502    0  0.00000000000E+00  0.00000000000E+00  0.32605943523E+03  0.32605943523E+03  0.00000000000E+00 0.  1.
          1   -1    0    0  501    0 -0.00000000000E+00 -0.00000000000E+00 -0.57109722581E+02  0.57109722581E+02  0.00000000000E+00 0.  1.
          2    1    1    2  501    0 -0.42662179973E+02  0.25998432200E+02  0.18869103642E+03  0.19519294891E+03  0.00000000000E+00 0.  1.
          1    1    1    2  502    0  0.71101377356E+01 -0.26402382954E+02  0.41871273488E+02  0.50008433567E+02  0.00000000000E+00 0.  1.
         22    1    1    2    0    0  0.45692468023E+02 -0.19970330130E+02 -0.35136905993E+02  0.61001785894E+02  0.00000000000E+00 0.  1.
         22    1    1    2    0    0 -0.10140425785E+02  0.20374280883E+02  0.73524308730E+02  0.76965989442E+02  0.00000000000E+00 0. -1.
</event>
<event>
 6    1  0.1715574E-005  0.7555162E+02  0.7818608E-02  0.1345457E+00
          2   -1    0    0  502    0  0.00000000000E+00  0.00000000000E+00  0.16419699739E+03  0.16419699739E+03  0.00000000000E+00 0. -1.
          1   -1    0    0  501    0 -0.00000000000E+00 -0.00000000000E+00 -0.30559659302E+03  0.30559659302E+03  0.00000000000E+00 0.  1.
          2    1    1    2  501    0 -0.50741583169E+02  0.18754343446E+02  0.11947154819E+03  0.13114833009E+03  0.00000000000E+00 0. -1.
          1    1    1    2  502    0  0.31579236109E+02 -0.43683095035E+01 -0.19288177948E+03  0.19549862183E+03  0.00000000000E+00 0.  1.
         22    1    1    2    0    0 -0.16945262736E+02 -0.26186918629E+01  0.31936102872E+02  0.36247953637E+02  0.00000000000E+00 0.  1.
         22    1    1    2    0    0  0.36107609795E+02 -0.11767342080E+02 -0.99925467203E+02  0.10689868484E+03  0.00000000000E+00 0.  1.
</event>
<event>
 6    1  0.1715574E-005  0.1670525E+03  0.7818608E-02  0.1183493E+00
          2   -1    0    0  502    0  0.00000000000E+00  0.00000000000E+00  0.20515919309E+03  0.20515919309E+03  0.00000000000E+00 0. -1.
          1   -1    0    0  501    0 -0.00000000000E+00 -0.00000000000E+00 -0.19661663347E+03  0.19661663347E+03  0.00000000000E+00 0.  1.
          2    1    1    2  501    0 -0.40371544445E+02  0.12593289572E+03  0.92228450907E+02  0.16122978317E+03  0.00000000000E+00 0. -1.
          1    1    1    2  502    0  0.30930823034E+02 -0.82309786700E+02 -0.26808119263E+02  0.91925470129E+02  0.00000000000E+00 0.  1.
         22    1    1    2    0    0 -0.12586694788E+02  0.20365702497E+02  0.30072201035E+02  0.38438574362E+02  0.00000000000E+00 0. -1.
         22    1    1    2    0    0  0.22027416199E+02 -0.63988811519E+02 -0.86949973064E+02  0.11018199889E+03  0.00000000000E+00 0.  1.
</event>
<event>
 6    1  0.1715574E-005  0.3463002E+02  0.7818608E-02  0.1581820E+00
          2   -1    0    0  502    0  0.00000000000E+00  0.00000000000E+00  0.11694809551E+03  0.11694809551E+03  0.00000000000E+00 0.  1.
          1   -1    0    0  501    0 -0.00000000000E+00 -0.00000000000E+00 -0.17442238953E+03  0.17442238953E+03  0.00000000000E+00 0. -1.
          2    1    1    2  501    0  0.21543636583E+02 -0.12564560973E+02  0.76943208339E+02  0.80884199811E+02  0.00000000000E+00 0.  1.
          1    1    1    2  502    0 -0.54934935077E+01  0.32096107327E+02 -0.31856564308E+02  0.45554135553E+02  0.00000000000E+00 0. -1.
         22    1    1    2    0    0 -0.21263961093E+02 -0.10650857311E+02 -0.13180212948E+03  0.13393057209E+03  0.00000000000E+00 0. -1.
         22    1    1    2    0    0  0.52138180174E+01 -0.88806890434E+01  0.29241191433E+02  0.31001577582E+02  0.00000000000E+00 0. -1.
</event>
<event>
 6    1  0.1715574E-005  0.7095436E+02  0.7818608E-02  0.1357748E+00
          2   -1    0    0  502    0  0.00000000000E+00  0.00000000000E+00  0.27599133445E+03  0.27599133445E+03  0.00000000000E+00 0. -1.
          1   -1    0    0  501    0 -0.00000000000E+00 -0.00000000000E+00 -0.22108327341E+03  0.22108327341E+03  0.00000000000E+00 0. -1.
          2    1    1    2  501    0  0.39861227310E+02 -0.13141129507E+02  0.17857209080E+03  0.18343826848E+03  0.00000000000E+00 0. -1.
          1    1    1    2  502    0 -0.54557963382E+02  0.48330612388E+01 -0.17250226406E+03  0.18098884208E+03  0.00000000000E+00 0. -1.
         22    1    1    2    0    0 -0.13428871394E+02  0.65195476579E+01 -0.38278157726E+02  0.41085964117E+02  0.00000000000E+00 0. -1.
         22    1    1    2    0    0  0.28125607466E+02  0.17885206100E+01  0.87116392024E+02  0.91561533192E+02  0.00000000000E+00 0. -1.
</event>
<event>
 6    1  0.1715574E-005  0.7822516E+02  0.7818608E-02  0.1407901E+00
          2   -1    0    0  502    0  0.00000000000E+00  0.00000000000E+00  0.14113039937E+03  0.14113039937E+03  0.00000000000E+00 0. -1.
          1   -1    0    0  501    0 -0.00000000000E+00 -0.00000000000E+00 -0.27681763056E+03  0.27681763056E+03  0.00000000000E+00 0. -1.
          2    1    1    2  501    0  0.84897215722E+02 -0.27557425605E+02  0.73857355224E+02  0.11585274215E+03  0.00000000000E+00 0. -1.
          1    1    1    2  502    0 -0.50999909547E+02 -0.93069320108E+00 -0.14349614228E+03  0.15229248114E+03  0.00000000000E+00 0. -1.
         22    1    1    2    0    0 -0.24441431997E+02  0.74125889789E+01 -0.10305815628E+03  0.10617586190E+03  0.00000000000E+00 0.  1.
         22    1    1    2    0    0 -0.94558741789E+01  0.21075529827E+02  0.37009712143E+02  0.43626944735E+02  0.00000000000E+00 0.  1.
</event>
<event>
 6    1  0.1715574E-005  0.5251611E+02  0.7818608E-02  0.1432913E+00
          2   -1    0    0  502    0  0.00000000000E+00  0.00000000000E+00  0.15150011213E+03  0.15150011213E+03  0.00000000000E+00 0.  1.
          1   -1    0    0  501    0 -0.00000000000E+00 -0.00000000000E+00 -0.10979729775E+03  0.10979729775E+03  0.00000000000E+00 0. -1.
          2    1    1    2  501    0  0.76204749713E+01 -0.23639483116E+02  0.51640200160E+02  0.57302766717E+02  0.00000000000E+00 0.  1.
          1    1    1    2  502    0 -0.16251511020E+02  0.22663868817E+02 -0.60273898650E+02  0.66413141912E+02  0.00000000000E+00 0. -1.
         22    1    1    2    0    0  0.14726070880E+02 -0.21896914269E+02  0.88678519989E+02  0.92521413335E+02  0.00000000000E+00 0.  1.
         22    1    1    2    0    0 -0.60950348316E+01  0.22872528568E+02 -0.38342007118E+02  0.45060087911E+02  0.00000000000E+00 0. -1.
</event>
<event>
 6    1  0.1715574E-005  0.1884306E+03  0.7818608E-02  0.1162147E+00
          2   -1    0    0  502    0  0.00000000000E+00  0.00000000000E+00  0.15127804951E+04  0.15127804951E+04  0.00000000000E+00 0.  1.
          1   -1    0    0  501    0 -0.00000000000E+00 -0.00000000000E+00 -0.22782723073E+02  0.22782723073E+02  0.00000000000E+00 0.  1.
          2    1    1    2  501    0 -0.20090214779E+02 -0.14362749847E+03  0.72268750155E+03  0.73709544833E+03  0.00000000000E+00 0.  1.
          1    1    1    2  502    0  0.18325027638E+02  0.78523443644E+02  0.27435827807E+03  0.28596189010E+03  0.00000000000E+00 0.  1.
         22    1    1    2    0    0  0.30693749224E+02 -0.28679312871E+02  0.15501314546E+03  0.16060412353E+03  0.00000000000E+00 0. -1.
         22    1    1    2    0    0 -0.28928562082E+02  0.93783367700E+02  0.33793884696E+03  0.35190175624E+03  0.00000000000E+00 0.  1.
</event>
<event>
 6    1  0.1715574E-005  0.8478387E+02  0.7818608E-02  0.1407056E+00
          2   -1    0    0  502    0  0.00000000000E+00  0.00000000000E+00  0.17740102142E+03  0.17740102142E+03  0.00000000000E+00 0. -1.
          1   -1    0    0  501    0 -0.00000000000E+00 -0.00000000000E+00 -0.28486102899E+03  0.28486102899E+03  0.00000000000E+00 0. -1.
          2    1    1    2  501    0 -0.62652336576E+02  0.81911350376E+02 -0.19427594326E+03  0.21994982775E+03  0.00000000000E+00 0. -1.
          1    1    1    2  502    0  0.15502377761E+02 -0.13203206339E+02  0.93373780091E+02  0.95568358688E+02  0.00000000000E+00 0. -1.
         22    1    1    2    0    0  0.30764969152E+02 -0.77046392688E+02  0.43316283011E+02  0.93589157102E+02  0.00000000000E+00 0. -1.
         22    1    1    2    0    0  0.16384989664E+02  0.83382486508E+01 -0.49874127418E+02  0.53154706871E+02  0.00000000000E+00 0.  1.
</event>
<event>
 6    1  0.1715574E-005  0.1041811E+03  0.7818608E-02  0.1277476E+00
          2   -1    0    0  502    0  0.00000000000E+00  0.00000000000E+00  0.19908571261E+02  0.19908571261E+02  0.00000000000E+00 0.  1.
          1   -1    0    0  501    0 -0.00000000000E+00 -0.00000000000E+00 -0.52995185302E+03  0.52995185302E+03  0.00000000000E+00 0.  1.
          2    1    1    2  501    0 -0.22236962897E+02 -0.16092593197E+02 -0.12004979893E+03  0.12314791228E+03  0.00000000000E+00 0.  1.
          1    1    1    2  502    0  0.91771365747E+01  0.30184272394E+02 -0.16348308692E+03  0.16649933887E+03  0.00000000000E+00 0.  1.
         22    1    1    2    0    0  0.37976070823E+02  0.43301887869E+02 -0.15412022312E+03  0.16453047931E+03  0.00000000000E+00 0. -1.
         22    1    1    2    0    0 -0.24916244501E+02 -0.57393567065E+02 -0.72390172786E+02  0.95682693819E+02  0.00000000000E+00 0.  1.
</event>
<event>
 6    1  0.1715574E-005  0.1166716E+03  0.7818608E-02  0.1249815E+00
          2   -1    0    0  502    0  0.00000000000E+00  0.00000000000E+00  0.52047965653E+02  0.52047965653E+02  0.00000000000E+00 0. -1.
          1   -1    0    0  501    0 -0.00000000000E+00 -0.00000000000E+00 -0.29392803071E+03  0.29392803071E+03  0.00000000000E+00 0. -1.
          2    1    1    2  501    0  0.33536339350E+02  0.69217727244E+01 -0.19486152695E+02  0.39399329201E+02  0.00000000000E+00 0. -1.
          1    1    1    2  502    0 -0.59340504362E+02 -0.47959918791E+02 -0.10334645754E+03  0.12845987527E+03  0.00000000000E+00 0. -1.
         22    1    1    2    0    0 -0.37902249449E+02 -0.69394114190E+01 -0.81118558499E+02  0.89805102735E+02  0.00000000000E+00 0. -1.
         22    1    1    2    0    0  0.63706414461E+02  0.47977557485E+02 -0.37928896327E+02  0.88311689160E+02  0.00000000000E+00 0. -1.
</event>
<event>
 6    1  0.1715574E-005  0.1599889E+03  0.7818608E-02  0.1225826E+00
          2   -1    0    0  502    0  0.00000000000E+00  0.00000000000E+00  0.15927593488E+04  0.15927593488E+04  0.00000000000E+00 0.  1.
          1   -1    0    0  501    0 -0.00000000000E+00 -0.00000000000E+00 -0.34290112001E+02  0.34290112001E+02  0.00000000000E+00 0.  1.
          2    1    1    2  501    0 -0.16801930465E+03  0.17693387732E+02  0.75481444580E+03  0.77349104086E+03  0.00000000000E+00 0.  1.
          1    1    1    2  502    0  0.12733915050E+03 -0.11646736919E+02  0.56463049649E+03  0.57892875494E+03  0.00000000000E+00 0.  1.
         22    1    1    2    0    0 -0.27617768373E+02  0.17195059018E+02  0.17554396046E+03  0.17853317125E+03  0.00000000000E+00 0.  1.
         22    1    1    2    0    0  0.68297922518E+02 -0.23241709831E+02  0.63480334008E+02  0.96096493703E+02  0.00000000000E+00 0.  1.
</event>
<event>
 6    1  0.1715574E-005  0.4957077E+02  0.7818608E-02  0.1449632E+00
          2   -1    0    0  502    0  0.00000000000E+00  0.00000000000E+00  0.47722312766E+02  0.47722312766E+02  0.00000000000E+00 0.  1.
          1   -1    0    0  501    0 -0.00000000000E+00 -0.00000000000E+00 -0.33842430961E+03  0.33842430961E+03  0.00000000000E+00 0. -1.
          2    1    1    2  501    0 -0.22062404983E+02 -0.11979011006E+02  0.10725603662E+02  0.27299908283E+02  0.00000000000E+00 0.  1.
          1    1    1    2  502    0  0.24774700362E+02  0.67047573372E+01 -0.18587196106E+03  0.18763561884E+03  0.00000000000E+00 0. -1.
         22    1    1    2    0    0 -0.16662156661E+02 -0.13795148202E+02  0.22462688554E+02  0.31185027747E+02  0.00000000000E+00 0.  1.
         22    1    1    2    0    0  0.13949861283E+02  0.19069401871E+02 -0.13801832800E+03  0.14002606751E+03  0.00000000000E+00 0.  1.
</event>
<event>
 6    1  0.1715574E-005  0.1028659E+03  0.7818608E-02  0.1275480E+00
          2   -1    0    0  502    0  0.00000000000E+00  0.00000000000E+00  0.32535149982E+03  0.32535149982E+03  0.00000000000E+00 0.  1.
          1   -1    0    0  501    0 -0.00000000000E+00 -0.00000000000E+00 -0.15448803280E+03  0.15448803280E+03  0.00000000000E+00 0. -1.
          2    1    1    2  501    0 -0.60118219742E+02  0.17755397789E+02  0.20623800980E+03  0.21555410268E+03  0.00000000000E+00 0.  1.
          1    1    1    2  502    0  0.79124852500E+02 -0.23420350611E+02 -0.96125376412E+02  0.12668600197E+03  0.00000000000E+00 0. -1.
         22    1    1    2    0    0 -0.37168187327E+02 -0.21813020252E+01  0.92769284158E+02  0.99961854279E+02  0.00000000000E+00 0.  1.
         22    1    1    2    0    0  0.18161554568E+02  0.78462548474E+01 -0.32018450521E+02  0.37637573689E+02  0.00000000000E+00 0.  1.
</event>
<event>
 6    1  0.1715574E-005  0.3965272E+02  0.7818608E-02  0.1579176E+00
          2   -1    0    0  502    0  0.00000000000E+00  0.00000000000E+00  0.17636872103E+03  0.17636872103E+03  0.00000000000E+00 0.  1.
          1   -1    0    0  501    0 -0.00000000000E+00 -0.00000000000E+00 -0.15513138936E+03  0.15513138936E+03  0.00000000000E+00 0. -1.
          2    1    1    2  501    0 -0.96556354596E+01  0.18491684943E+02  0.11754991137E+03  0.11938657953E+03  0.00000000000E+00 0.  1.
          1    1    1    2  502    0  0.20257043692E+02 -0.25922339160E+02 -0.82970127019E+02  0.89254453470E+02  0.00000000000E+00 0. -1.
         22    1    1    2    0    0 -0.13251010669E+02 -0.96064397342E+01 -0.65714422809E+02  0.67721919149E+02  0.00000000000E+00 0. -1.
         22    1    1    2    0    0  0.26496024365E+01  0.17037093951E+02  0.52371970133E+02  0.55137158242E+02  0.00000000000E+00 0.  1.
</event>
<event>
 6    1  0.1715574E-005  0.1459775E+03  0.7818608E-02  0.1219580E+00
          2   -1    0    0  502    0  0.00000000000E+00  0.00000000000E+00  0.11307532749E+03  0.11307532749E+03  0.00000000000E+00 0. -1.
          1   -1    0    0  501    0 -0.00000000000E+00 -0.00000000000E+00 -0.32163031816E+03  0.32163031816E+03  0.00000000000E+00 0. -1.
          2    1    1    2  501    0  0.87879202746E+01  0.73024084668E+02 -0.20202020121E+03  0.21499280495E+03  0.00000000000E+00 0. -1.
          1    1    1    2  502    0  0.21392406900E+02 -0.56873437688E+02  0.46101500405E+02  0.76273005231E+02  0.00000000000E+00 0. -1.
         22    1    1    2    0    0 -0.59233412587E+02  0.19615226954E+02 -0.70385086829E+02  0.94060697122E+02  0.00000000000E+00 0. -1.
         22    1    1    2    0    0  0.29053085412E+02 -0.35765873934E+02  0.17748796968E+02  0.49379138349E+02  0.00000000000E+00 0. -1.
</event>
<event>
 6    1  0.1715574E-005  0.1678497E+03  0.7818608E-02  0.1196282E+00
          2   -1    0    0  502    0  0.00000000000E+00  0.00000000000E+00  0.22925583613E+03  0.22925583613E+03  0.00000000000E+00 0. -1.
          1   -1    0    0  501    0 -0.00000000000E+00 -0.00000000000E+00 -0.32219734087E+03  0.32219734087E+03  0.00000000000E+00 0.  1.
          2    1    1    2  501    0 -0.11626281506E+03 -0.17911715501E+03 -0.87327819521E+02  0.23070792237E+03  0.00000000000E+00 0. -1.
          1    1    1    2  502    0  0.36646934660E+02  0.13923122654E+03  0.61739588083E+02  0.15665282953E+03  0.00000000000E+00 0.  1.
         22    1    1    2    0    0 -0.22711104049E+02 -0.17427748015E+02  0.42779167090E+00  0.28630467228E+02  0.00000000000E+00 0.  1.
         22    1    1    2    0    0  0.10232698445E+03  0.57313676479E+02 -0.67781064974E+02  0.13546195786E+03  0.00000000000E+00 0.  1.
</event>
<event>
 6    1  0.1715574E-005  0.1314363E+03  0.7818608E-02  0.1238693E+00
          2   -1    0    0  502    0  0.00000000000E+00  0.00000000000E+00  0.46170980124E+03  0.46170980124E+03  0.00000000000E+00 0.  1.
          1   -1    0    0  501    0 -0.00000000000E+00 -0.00000000000E+00 -0.70119606559E+02  0.70119606559E+02  0.00000000000E+00 0. -1.
          2    1    1    2  501    0 -0.37482934728E+02  0.78370461626E+02  0.31812467945E+03  0.32977296937E+03  0.00000000000E+00 0.  1.
          1    1    1    2  502    0  0.34888150759E+02  0.57939115077E+01  0.14082907506E+01  0.35394007357E+02  0.00000000000E+00 0. -1.
         22    1    1    2    0    0 -0.20566625347E+00  0.11862656450E+02  0.69557451399E+02  0.70562057522E+02  0.00000000000E+00 0.  1.
         22    1    1    2    0    0  0.28004502228E+01 -0.96027029583E+02  0.24997730852E+01  0.96100373555E+02  0.00000000000E+00 0. -1.
</event>
<event>
 6    1  0.1715574E-005  0.5921004E+02  0.7818608E-02  0.1405474E+00
          2   -1    0    0  502    0  0.00000000000E+00  0.00000000000E+00  0.29400789973E+03  0.29400789973E+03  0.00000000000E+00 0. -1.
          1   -1    0    0  501    0 -0.00000000000E+00 -0.00000000000E+00 -0.50891386720E+02  0.50891386720E+02  0.00000000000E+00 0.  1.
          2    1    1    2  501    0 -0.26403009808E+01  0.34741568552E+02  0.14794376314E+03  0.15199113404E+03  0.00000000000E+00 0. -1.
          1    1    1    2  502    0  0.13416263087E+02 -0.29417346289E+02 -0.86829398953E+01  0.33477900519E+02  0.00000000000E+00 0.  1.
         22    1    1    2    0    0  0.10397570893E+02 -0.16722899001E+02 -0.23021462644E+02  0.30294431398E+02  0.00000000000E+00 0.  1.
         22    1    1    2    0    0 -0.21173533000E+02  0.11398676737E+02  0.12687715240E+03  0.12913582049E+03  0.00000000000E+00 0.  1.
</event>
<event>
 6    1  0.1715574E-005  0.6389294E+02  0.7818608E-02  0.1382916E+00
          2   -1    0    0  502    0  0.00000000000E+00  0.00000000000E+00  0.52465899486E+02  0.52465899486E+02  0.00000000000E+00 0. -1.
          1   -1    0    0  501    0 -0.00000000000E+00 -0.00000000000E+00 -0.23681612195E+03  0.23681612195E+03  0.00000000000E+00 0. -1.
          2    1    1    2  501    0 -0.41031417683E+02 -0.14305393552E+02  0.88908069391E+01  0.44353894641E+02  0.00000000000E+00 0. -1.
          1    1    1    2  502    0  0.21133102432E+02  0.10573436416E+02 -0.55369578671E+02  0.60201294157E+02  0.00000000000E+00 0. -1.
         22    1    1    2    0    0 -0.15529383504E+02 -0.80302242070E+01  0.17617451629E+02  0.24819767419E+02  0.00000000000E+00 0. -1.
         22    1    1    2    0    0  0.35427698755E+02  0.11762181344E+02 -0.15548890236E+03  0.15990706522E+03  0.00000000000E+00 0. -1.
</event>
<event>
 6    1  0.1715574E-005  0.5130042E+02  0.7818608E-02  0.1440133E+00
          2   -1    0    0  502    0  0.00000000000E+00  0.00000000000E+00  0.30133942225E+03  0.30133942225E+03  0.00000000000E+00 0.  1.
          1   -1    0    0  501    0 -0.00000000000E+00 -0.00000000000E+00 -0.10032514628E+03  0.10032514628E+03  0.00000000000E+00 0. -1.
          2    1    1    2  501    0 -0.28984718936E+02  0.18976761234E+02  0.23728465226E+03  0.23980041200E+03  0.00000000000E+00 0.  1.
          1    1    1    2  502    0  0.20212486118E+02 -0.12867786016E+02 -0.30557749328E+02  0.38831695251E+02  0.00000000000E+00 0. -1.
         22    1    1    2    0    0  0.12084185171E+02 -0.20550035373E+02 -0.61158789554E+02  0.65640909689E+02  0.00000000000E+00 0. -1.
         22    1    1    2    0    0 -0.33119523532E+01  0.14441060156E+02  0.55446162589E+02  0.57391551579E+02  0.00000000000E+00 0. -1.
</event>
<event>
 6    1  0.1715574E-005  0.5155092E+02  0.7818608E-02  0.1531916E+00
          2   -1    0    0  502    0  0.00000000000E+00  0.00000000000E+00  0.42836704783E+03  0.42836704783E+03  0.00000000000E+00 0. -1.
          1   -1    0    0  501    0 -0.00000000000E+00 -0.00000000000E+00 -0.16444391060E+03  0.16444391060E+03  0.00000000000E+00 0.  1.
          2    1    1    2  501    0  0.24059994942E+02  0.79294457565E+01  0.27849922717E+03  0.27964902825E+03  0.00000000000E+00 0. -1.
          1    1    1    2  502    0 -0.30485595790E+02 -0.32248496618E+02 -0.13088608454E+03  0.13820457377E+03  0.00000000000E+00 0.  1.
         22    1    1    2    0    0 -0.11074704632E+02  0.79112860944E+01 -0.26689628998E+02  0.29959536485E+02  0.00000000000E+00 0.  1.
         22    1    1    2    0    0  0.17500305480E+02  0.16407764767E+02  0.14299962360E+03  0.14499781993E+03  0.00000000000E+00 0.  1.
</event>
<event>
 6    1  0.1715574E-005  0.7591046E+02  0.7818608E-02  0.1361398E+00
          2   -1    0    0  502    0  0.00000000000E+00  0.00000000000E+00  0.76335851501E+02  0.76335851501E+02  0.00000000000E+00 0. -1.
          1   -1    0    0  501    0 -0.00000000000E+00 -0.00000000000E+00 -0.37397227982E+03  0.37397227982E+03  0.00000000000E+00 0. -1.
          2    1    1    2  501    0 -0.46673062622E+02  0.64357319921E+01 -0.85743553703E+02  0.97835322979E+02  0.00000000000E+00 0. -1.
          1    1    1    2  502    0  0.63317579073E+02 -0.55427505009E+01  0.37833396155E+02  0.73967585924E+02  0.00000000000E+00 0. -1.
         22    1    1    2    0    0 -0.60438520694E+02 -0.31970068587E+02 -0.15900001111E+03  0.17307773861E+03  0.00000000000E+00 0. -1.
         22    1    1    2    0    0  0.43794004244E+02  0.31077087096E+02 -0.90726259659E+02  0.10542748381E+03  0.00000000000E+00 0.  1.
</event>
<event>
 6    1  0.1715574E-005  0.1826840E+03  0.7818608E-02  0.1171454E+00
          2   -1    0    0  502    0  0.00000000000E+00  0.00000000000E+00  0.90462149193E+03  0.90462149193E+03  0.00000000000E+00 0.  1.
          1   -1    0    0  501    0 -0.00000000000E+00 -0.00000000000E+00 -0.34229019187E+02  0.34229019187E+02  0.00000000000E+00 0. -1.
          2    1    1    2  501    0 -0.46262402009E+02 -0.35837962076E+02  0.10723493498E+03  0.12216341779E+03  0.00000000000E+00 0.  1.
          1    1    1    2  502    0  0.41241659629E+02  0.12267372798E+03  0.26311138290E+03  0.29321889065E+03  0.00000000000E+00 0. -1.
         22    1    1    2    0    0  0.80221507892E+00 -0.11234196527E+03  0.47257452633E+03  0.48574483388E+03  0.00000000000E+00 0.  1.
         22    1    1    2    0    0  0.42185273009E+01  0.25506199365E+02  0.27471628529E+02  0.37723368787E+02  0.00000000000E+00 0.  1.
</event>
<event>
 6    1  0.1715574E-005  0.1475115E+03  0.7818608E-02  0.1220376E+00
          2   -1    0    0  502    0  0.00000000000E+00  0.00000000000E+00  0.43714353219E+02  0.43714353219E+02  0.00000000000E+00 0. -1.
          1   -1    0    0  501    0 -0.00000000000E+00 -0.00000000000E+00 -0.47521017266E+03  0.47521017266E+03  0.00000000000E+00 0. -1.
          2    1    1    2  501    0  0.51162079591E+02  0.18649036533E+01 -0.52857733847E+02  0.73586522415E+02  0.00000000000E+00 0. -1.
          1    1    1    2  502    0  0.47705281644E+01 -0.69673081776E+02 -0.19616980070E+03  0.20822988971E+03  0.00000000000E+00 0. -1.
         22    1    1    2    0    0 -0.24261759129E+02 -0.21919465471E+02 -0.11731582027E+03  0.12178709951E+03  0.00000000000E+00 0.  1.
         22    1    1    2    0    0 -0.31670848627E+02  0.89727643594E+02 -0.65152464621E+02  0.11532101423E+03  0.00000000000E+00 0. -1.
</event>
<event>
 6    1  0.1715574E-005  0.1155654E+03  0.7818608E-02  0.1252613E+00
          2   -1    0    0  502    0  0.00000000000E+00  0.00000000000E+00  0.30510440176E+03  0.30510440176E+03  0.00000000000E+00 0. -1.
          1   -1    0    0  501    0 -0.00000000000E+00 -0.00000000000E+00 -0.11507833556E+03  0.11507833556E+03  0.00000000000E+00 0. -1.
          2    1    1    2  501    0  0.51061511576E+02  0.20129064478E+02  0.15551310307E+03  0.16491447004E+03  0.00000000000E+00 0. -1.
          1    1    1    2  502    0 -0.51926964028E+02 -0.56588305100E+02 -0.54607215527E+02  0.94236902830E+02  0.00000000000E+00 0. -1.
         22    1    1    2    0    0 -0.31762270877E+02 -0.12052312053E+02 -0.18407092227E+02  0.38638337455E+02  0.00000000000E+00 0. -1.
         22    1    1    2    0    0  0.32627723328E+02  0.48511552675E+02  0.10752727089E+03  0.12239302700E+03  0.00000000000E+00 0.  1.
</event>
<event>
 6    1  0.1715574E-005  0.1307958E+03  0.7818608E-02  0.1226503E+00
          2   -1    0    0  502    0  0.00000000000E+00  0.00000000000E+00  0.33877634098E+03  0.33877634098E+03  0.00000000000E+00 0. -1.
          1   -1    0    0  501    0 -0.00000000000E+00 -0.00000000000E+00 -0.52817713045E+02  0.52817713045E+02  0.00000000000E+00 0. -1.
          2    1    1    2  501    0 -0.28723940554E+02 -0.18097484794E+02  0.46878612766E+02  0.57880809010E+02  0.00000000000E+00 0. -1.
          1    1    1    2  502    0  0.74398425613E+02  0.42938070548E+02  0.14622549460E+03  0.16958979600E+03  0.00000000000E+00 0. -1.
         22    1    1    2    0    0  0.30188571932E+02  0.28329368531E+02  0.39484071302E+02  0.57209220264E+02  0.00000000000E+00 0. -1.
         22    1    1    2    0    0 -0.75863056990E+02 -0.53169954285E+02  0.53370449267E+02  0.10691422875E+03  0.00000000000E+00 0. -1.
</event>
<event>
 6    1  0.1715574E-005  0.1164682E+03  0.7818608E-02  0.1323387E+00
          2   -1    0    0  502    0  0.00000000000E+00  0.00000000000E+00  0.17517569715E+03  0.17517569715E+03  0.00000000000E+00 0. -1.
          1   -1    0    0  501    0 -0.00000000000E+00 -0.00000000000E+00 -0.16674230579E+03  0.16674230579E+03  0.00000000000E+00 0.  1.
          2    1    1    2  501    0 -0.30116938921E+02 -0.29320123647E+01  0.28503313524E+02  0.41570008279E+02  0.00000000000E+00 0. -1.
          1    1    1    2  502    0  0.80598206791E+02  0.65162906095E+02 -0.89935420660E+02  0.13722483433E+03  0.00000000000E+00 0.  1.
         22    1    1    2    0    0  0.24590153730E+02 -0.14720708800E+02 -0.21391229229E+02  0.35762544875E+02  0.00000000000E+00 0.  1.
         22    1    1    2    0    0 -0.75071421600E+02 -0.47510184930E+02  0.91256727731E+02  0.12736061546E+03  0.00000000000E+00 0. -1.
</event>
<event>
 6    1  0.1715574E-005  0.8203640E+02  0.7818608E-02  0.1324005E+00
          2   -1    0    0  502    0  0.00000000000E+00  0.00000000000E+00  0.31752188372E+03  0.31752188372E+03  0.00000000000E+00 0. -1.
          1   -1    0    0  501    0 -0.00000000000E+00 -0.00000000000E+00 -0.50645000813E+02  0.50645000813E+02  0.00000000000E+00 0. -1.
          2    1    1    2  501    0  0.50340589041E+02 -0.24047482666E+01  0.14849133823E+03  0.15681082631E+03  0.00000000000E+00 0. -1.
          1    1    1    2  502    0 -0.35624784328E+02 -0.41730968970E+00  0.85131283243E+00  0.35637398043E+02  0.00000000000E+00 0. -1.
         22    1    1    2    0    0  0.26331197506E+02 -0.15690497139E+02  0.12619551312E+03  0.12986466492E+03  0.00000000000E+00 0.  1.
         22    1    1    2    0    0 -0.41047002220E+02  0.18512555095E+02 -0.86612812799E+01  0.45853995255E+02  0.00000000000E+00 0. -1.
</event>
<event>
 6    1  0.1715574E-005  0.7259469E+02  0.7818608E-02  0.1445437E+00
          2   -1    0    0  502    0  0.00000000000E+00  0.00000000000E+00  0.30017963757E+02  0.30017963757E+02  0.00000000000E+00 0.  1.
          1   -1    0    0  501    0 -0.00000000000E+00 -0.00000000000E+00 -0.11360403001E+04  0.11360403001E+04  0.00000000000E+00 0. -1.
          2    1    1    2  501    0  0.10073547420E+03 -0.24819818516E+01 -0.20321240419E+03  0.22682389030E+03  0.00000000000E+00 0.  1.
          1    1    1    2  502    0 -0.59180531172E+02 -0.17365223203E+02 -0.65039676455E+03  0.65331450128E+03  0.00000000000E+00 0. -1.
         22    1    1    2    0    0 -0.54008540462E+02  0.20888723305E+02 -0.26314869156E+03  0.26944479040E+03  0.00000000000E+00 0. -1.
         22    1    1    2    0    0  0.12453597438E+02 -0.10415182503E+01  0.10735523933E+02  0.16475081897E+02  0.00000000000E+00 0.  1.
</event>
<event>
 6    1  0.1715574E-005  0.8785073E+02  0.7818608E-02  0.1312532E+00
          2   -1    0    0  502    0  0.00000000000E+00  0.00000000000E+00  0.38989577386E+02  0.38989577386E+02  0.00000000000E+00 0.  1.
          1   -1    0    0  501    0 -0.00000000000E+00 -0.00000000000E+00 -0.30031677328E+03  0.30031677328E+03  0.00000000000E+00 0.  1.
          2    1    1    2  501    0 -0.36875760966E+02  0.14962410642E+02 -0.41229058458E+02  0.57302100663E+02  0.00000000000E+00 0.  1.
          1    1    1    2  502    0  0.27809246103E+01  0.32299736639E+02 -0.74229624771E+02  0.81000269890E+02  0.00000000000E+00 0.  1.
         22    1    1    2    0    0 -0.10037704038E+02 -0.14872834654E+02  0.19684342467E+02  0.26635128146E+02  0.00000000000E+00 0.  1.
         22    1    1    2    0    0  0.44132540394E+02 -0.32389312628E+02 -0.16555285513E+03  0.17436885197E+03  0.00000000000E+00 0.  1.
</event>
<event>
 6    1  0.1715574E-005  0.1050035E+03  0.7818608E-02  0.1286424E+00
          2   -1    0    0  502    0  0.00000000000E+00  0.00000000000E+00  0.80584987999E+02  0.80584987999E+02  0.00000000000E+00 0. -1.
          1   -1    0    0  501    0 -0.00000000000E+00 -0.00000000000E+00 -0.12068684532E+04  0.12068684532E+04  0.00000000000E+00 0. -1.
          2    1    1    2  501    0 -0.12032192479E+03 -0.10593954465E+03 -0.49313676395E+02  0.16772713372E+03  0.00000000000E+00 0. -1.
          1    1    1    2  502    0  0.93390109630E+02  0.81487802062E+02 -0.85845603402E+03  0.86735732937E+03  0.00000000000E+00 0. -1.
         22    1    1    2    0    0  0.90994184720E+01  0.69184484676E+02 -0.17112903147E+03  0.18480919281E+03  0.00000000000E+00 0. -1.
         22    1    1    2    0    0  0.17832396686E+02 -0.44732742086E+02 -0.47384723316E+02  0.67559785301E+02  0.00000000000E+00 0.  1.
</event>
<event>
 6    1  0.1715574E-005  0.1199131E+03  0.7818608E-02  0.1243732E+00
          2   -1    0    0  502    0  0.00000000000E+00  0.00000000000E+00  0.23291669270E+03  0.23291669270E+03  0.00000000000E+00 0.  1.
          1   -1    0    0  501    0 -0.00000000000E+00 -0.00000000000E+00 -0.52312598565E+03  0.52312598565E+03  0.00000000000E+00 0.  1.
          2    1    1    2  501    0  0.27594902289E+02  0.90266028179E+02  0.16666717955E+03  0.19153950823E+03  0.00000000000E+00 0.  1.
          1    1    1    2  502    0 -0.12206746814E+02 -0.10144187642E+03 -0.42673341569E+03  0.43879478920E+03  0.00000000000E+00 0.  1.
         22    1    1    2    0    0 -0.12131409196E+02 -0.12942573220E+02 -0.73704632505E+02  0.75809327549E+02  0.00000000000E+00 0. -1.
         22    1    1    2    0    0 -0.32567462788E+01  0.24118421464E+02  0.43561575698E+02  0.49899053373E+02  0.00000000000E+00 0.  1.
</event>
<event>
 6    1  0.1715574E-005  0.1589575E+03  0.7818608E-02  0.1221788E+00
          2   -1    0    0  502    0  0.00000000000E+00  0.00000000000E+00  0.38439967085E+03  0.38439967085E+03  0.00000000000E+00 0.  1.
          1   -1    0    0  501    0 -0.00000000000E+00 -0.00000000000E+00 -0.41188093080E+02  0.41188093080E+02  0.00000000000E+00 0.  1.
          2    1    1    2  501    0 -0.16684318190E+02 -0.65304797702E+02  0.93309769253E+02  0.11510775871E+03  0.00000000000E+00 0.  1.
          1    1    1    2  502    0 -0.30572772822E+02 -0.12053058709E+01  0.29521393588E+02  0.42516583584E+02  0.00000000000E+00 0.  1.
         22    1    1    2    0    0 -0.35020824809E+02  0.33559136411E+02  0.27653615808E+02  0.55833648226E+02  0.00000000000E+00 0.  1.
         22    1    1    2    0    0  0.82277915822E+02  0.32950967162E+02  0.19272679912E+03  0.21212977341E+03  0.00000000000E+00 0.  1.
</event>
<event>
 6    1  0.1715574E-005  0.1289086E+03  0.7818608E-02  0.1241899E+00
          2   -1    0    0  502    0  0.00000000000E+00  0.00000000000E+00  0.24758194285E+03  0.24758194285E+03  0.00000000000E+00 0.  1.
          1   -1    0    0  501    0 -0.00000000000E+00 -0.00000000000E+00 -0.65854556225E+02  0.65854556225E+02  0.00000000000E+00 0.  1.
          2    1    1    2  501    0  0.20616504405E+02 -0.55650598781E+01 -0.47081261285E+01  0.21867249415E+02  0.00000000000E+00 0.  1.
          1    1    1    2  502    0 -0.69812504157E+02 -0.37039925945E+02  0.37503902390E+02  0.87477337324E+02  0.00000000000E+00 0.  1.
         22    1    1    2    0    0  0.30728326754E+02  0.22687181632E+01  0.15613654120E+03  0.15914771957E+03  0.00000000000E+00 0.  1.
         22    1    1    2    0    0  0.18467672998E+02  0.40336267660E+02 -0.72049308374E+01  0.44944192763E+02  0.00000000000E+00 0.  1.
</event>
<event>
 6    1  0.1715574E-005  0.1081032E+03  0.7818608E-02  0.1266812E+00
          2   -1    0    0  502    0  0.00000000000E+00  0.00000000000E+00  0.36588483554E+02  0.36588483554E+02  0.00000000000E+00 0.  1.
          1   -1    0    0  501    0 -0.00000000000E+00 -0.00000000000E+00 -0.46684591214E+03  0.46684591214E+03  0.00000000000E+00 0. -1.
          2    1    1    2  501    0 -0.72543193169E+01  0.29830210202E+02 -0.44367324058E+02  0.53952998373E+02  0.00000000000E+00 0.  1.
          1    1    1    2  502    0  0.20549737740E+02 -0.68000619673E+02 -0.24809253154E+03  0.25806255095E+03  0.00000000000E+00 0. -1.
         22    1    1    2    0    0  0.15165894731E+02  0.61811270830E+02 -0.18151267694E+02  0.66182369884E+02  0.00000000000E+00 0.  1.
         22    1    1    2    0    0 -0.28461313153E+02 -0.23640861359E+02 -0.11964630529E+03  0.12523647648E+03  0.00000000000E+00 0.  1.
</event>
<event>
 6    1  0.1715574E-005  0.2063730E+03  0.7818608E-02  0.1147301E+00
          2   -1    0    0  502    0  0.00000000000E+00  0.00000000000E+00  0.10165040204E+03  0.10165040204E+03  0.00000000000E+00 0. -1.
          1   -1    0    0  501    0 -0.00000000000E+00 -0.00000000000E+00 -0.41919517667E+03  0.41919517667E+03  0.00000000000E+00 0. -1.
          2    1    1    2  501    0  0.33607855977E+02 -0.73618018554E+01 -0.98640369708E+02  0.10446820878E+03  0.00000000000E+00 0. -1.
          1    1    1    2  502    0 -0.15998328095E+03  0.51559069016E+02 -0.71424339891E+02  0.18263193617E+03  0.00000000000E+00 0. -1.
         22    1    1    2    0    0  0.14482347352E+03 -0.60083444204E+02 -0.13136279969E+03  0.20454839010E+03  0.00000000000E+00 0. -1.
         22    1    1    2    0    0 -0.18448048551E+02  0.15886177043E+02 -0.16117265338E+02  0.29197043658E+02  0.00000000000E+00 0. -1.
</event>
<event>
 6    1  0.1715574E-005  0.9894196E+02  0.7818608E-02  0.1348268E+00
          2   -1    0    0  502    0  0.00000000000E+00  0.00000000000E+00  0.51781436095E+03  0.51781436095E+03  0.00000000000E+00 0. -1.
          1   -1    0    0  501    0 -0.00000000000E+00 -0.00000000000E+00 -0.46825915401E+02  0.46825915401E+02  0.00000000000E+00 0. -1.
          2    1    1    2  501    0  0.48830030734E+02  0.43819673370E+02  0.26079535410E+03  0.26892146139E+03  0.00000000000E+00 0. -1.
          1    1    1    2  502    0 -0.76734136161E+02 -0.11068187908E+02  0.92906304220E+02  0.12100501560E+03  0.00000000000E+00 0. -1.
         22    1    1    2    0    0 -0.11123603044E+02 -0.28175413411E+02 -0.17041271374E+02  0.34756199384E+02  0.00000000000E+00 0. -1.
         22    1    1    2    0    0  0.39027708471E+02 -0.45760720513E+01  0.13432805861E+03  0.13995759998E+03  0.00000000000E+00 0. -1.
</event>
<event>
 6    1  0.1715574E-005  0.1622319E+03  0.7818608E-02  0.1199648E+00
          2   -1    0    0  502    0  0.00000000000E+00  0.00000000000E+00  0.63359439449E+02  0.63359439449E+02  0.00000000000E+00 0.  1.
          1   -1    0    0  501    0 -0.00000000000E+00 -0.00000000000E+00 -0.48479872601E+03  0.48479872601E+03  0.00000000000E+00 0.  1.
          2    1    1    2  501    0 -0.34590030053E+02 -0.73135559455E+02  0.10750640417E+02  0.81614070510E+02  0.00000000000E+00 0.  1.
          1    1    1    2  502    0 -0.10322605051E+02  0.39936810798E+02 -0.87853011040E+02  0.97054915282E+02  0.00000000000E+00 0.  1.
         22    1    1    2    0    0  0.17216812961E+02  0.74819721662E+02 -0.26336238282E+03  0.27432490605E+03  0.00000000000E+00 0.  1.
         22    1    1    2    0    0  0.27695822143E+02 -0.41620973006E+02 -0.80974533119E+02  0.95164273611E+02  0.00000000000E+00 0.  1.
</event>
<event>
 6    1  0.1715574E-005  0.1019700E+03  0.7818608E-02  0.1302819E+00
          2   -1    0    0  502    0  0.00000000000E+00  0.00000000000E+00  0.33317413503E+03  0.33317413503E+03  0.00000000000E+00 0.  1.
          1   -1    0    0  501    0 -0.00000000000E+00 -0.00000000000E+00 -0.24664342679E+03  0.24664342679E+03  0.00000000000E+00 0.  1.
          2    1    1    2  501    0  0.18826541175E+02  0.23191285619E+02  0.14644056137E+03  0.14945605507E+03  0.00000000000E+00 0.  1.
          1    1    1    2  502    0  0.16538652578E+01  0.30864588719E+02 -0.21869849102E+03  0.22087188160E+03  0.00000000000E+00 0.  1.
         22    1    1    2    0    0  0.85754831851E+00 -0.30244141337E+02 -0.14305118079E+02  0.33467594439E+02  0.00000000000E+00 0.  1.
         22    1    1    2    0    0 -0.21337954751E+02 -0.23811733001E+02  0.17309375597E+03  0.17602203071E+03  0.00000000000E+00 0.  1.
</event>
<event>
 6    1  0.1715574E-005  0.1721463E+03  0.7818608E-02  0.1211381E+00
          2   -1    0    0  502    0  0.00000000000E+00  0.00000000000E+00  0.20023353992E+03  0.20023353992E+03  0.00000000000E+00 0.  1.
          1   -1    0    0  501    0 -0.00000000000E+00 -0.00000000000E+00 -0.30678101636E+03  0.30678101636E+03  0.00000000000E+00 0. -1.
          2    1    1    2  501    0 -0.91913445556E+02 -0.11516254164E+03 -0.48924491652E+02  0.15525494631E+03  0.00000000000E+00 0.  1.
          1    1    1    2  502    0  0.13302563838E+03  0.90804369396E+02 -0.12038626980E+03  0.20108234116E+03  0.00000000000E+00 0. -1.
         22    1    1    2    0    0 -0.73243807386E+02  0.28210986582E+02  0.81609150989E+02  0.11322794977E+03  0.00000000000E+00 0. -1.
         22    1    1    2    0    0  0.32131614560E+02 -0.38528143409E+01 -0.18845865973E+02  0.37449319043E+02  0.00000000000E+00 0. -1.
</event>
<event>
 6    1  0.1715574E-005  0.4116483E+02  0.7818608E-02  0.1507775E+00
          2   -1    0    0  502    0  0.00000000000E+00  0.00000000000E+00  0.46649439735E+03  0.46649439735E+03  0.00000000000E+00 0. -1.
          1   -1    0    0  501    0 -0.00000000000E+00 -0.00000000000E+00 -0.18013948317E+03  0.18013948317E+03  0.00000000000E+00 0. -1.
          2    1    1    2  501    0 -0.73737031812E+02  0.39565663156E+02  0.40324406505E+03  0.41183536463E+03  0.00000000000E+00 0. -1.
          1    1    1    2  502    0  0.52661542905E+02 -0.26160470351E+02 -0.88693359333E+02  0.10641485000E+03  0.00000000000E+00 0. -1.
         22    1    1    2    0    0 -0.33089905924E+00 -0.20086342406E+02  0.46361595392E+02  0.50526905433E+02  0.00000000000E+00 0.  1.
         22    1    1    2    0    0  0.21406387966E+02  0.66811496009E+01 -0.74557386923E+02  0.77856760468E+02  0.00000000000E+00 0. -1.
</event>
<event>
 6    1  0.1715574E-005  0.1438705E+03  0.7818608E-02  0.1212107E+00
          2   -1    0    0  502    0  0.00000000000E+00  0.00000000000E+00  0.12730682901E+03  0.12730682901E+03  0.00000000000E+00 0.  1.
          1   -1    0    0  501    0 -0.00000000000E+00 -0.00000000000E+00 -0.24640792994E+03  0.24640792994E+03  0.00000000000E+00 0. -1.
          2    1    1    2  501    0  0.64953330469E+02 -0.12685925686E+02  0.23172215783E+02  0.70120035894E+02  0.00000000000E+00 0.  1.
          1    1    1    2  502    0 -0.74174279612E+02 -0.27564103904E+02 -0.15342414105E+03  0.17262841781E+03  0.00000000000E+00 0. -1.
         22    1    1    2    0    0  0.42693009879E+02  0.64814809753E+02  0.32663192403E+02  0.84205325211E+02  0.00000000000E+00 0.  1.
         22    1    1    2    0    0 -0.33472060737E+02 -0.24564780164E+02 -0.21512368066E+02  0.46760980040E+02  0.00000000000E+00 0.  1.
</event>
<event>
 6    1  0.1715574E-005  0.6121488E+02  0.7818608E-02  0.1433507E+00
          2   -1    0    0  502    0  0.00000000000E+00  0.00000000000E+00  0.17103632985E+03  0.17103632985E+03  0.00000000000E+00 0. -1.
          1   -1    0    0  501    0 -0.00000000000E+00 -0.00000000000E+00 -0.82531503097E+02  0.82531503097E+02  0.00000000000E+00 0. -1.
          2    1    1    2  501    0 -0.20344289592E+02  0.15934898499E+02  0.61862597557E+02  0.67043210586E+02  0.00000000000E+00 0. -1.
          1    1    1    2  502    0  0.26103485034E+02 -0.32146992525E+02 -0.28416231164E+02  0.50222537301E+02  0.00000000000E+00 0. -1.
         22    1    1    2    0    0 -0.37753102054E+02  0.10371975858E+02  0.84057596867E+02  0.92728389336E+02  0.00000000000E+00 0. -1.
         22    1    1    2    0    0  0.31993906611E+02  0.58401181689E+01 -0.28999136510E+02  0.43573695721E+02  0.00000000000E+00 0. -1.
</event>
<event>
 6    1  0.1715574E-005  0.1103786E+03  0.7818608E-02  0.1338031E+00
          2   -1    0    0  502    0  0.00000000000E+00  0.00000000000E+00  0.60721468693E+03  0.60721468693E+03  0.00000000000E+00 0. -1.
          1   -1    0    0  501    0 -0.00000000000E+00 -0.00000000000E+00 -0.56429250662E+02  0.56429250662E+02  0.00000000000E+00 0. -1.
          2    1    1    2  501    0 -0.22318281502E+02  0.60863931617E+02  0.33986773172E+03  0.34599508512E+03  0.00000000000E+00 0. -1.
          1    1    1    2  502    0  0.21556272449E+02 -0.97985335341E+02  0.50909272515E+02  0.11250579030E+03  0.00000000000E+00 0. -1.
         22    1    1    2    0    0  0.25996523213E+02 -0.13159791654E+01 -0.10853808411E+02  0.28202059807E+02  0.00000000000E+00 0. -1.
         22    1    1    2    0    0 -0.25234514160E+02  0.38437382889E+02  0.17086224045E+03  0.17694100237E+03  0.00000000000E+00 0. -1.
</event>
<event>
 6    1  0.1715574E-005  0.9524481E+02  0.7818608E-02  0.1296460E+00
          2   -1    0    0  502    0  0.00000000000E+00  0.00000000000E+00  0.29264868910E+03  0.29264868910E+03  0.00000000000E+00 0. -1.
          1   -1    0    0  501    0 -0.00000000000E+00 -0.00000000000E+00 -0.37148218271E+02  0.37148218271E+02  0.00000000000E+00 0. -1.
          2    1    1    2  501    0  0.21962684597E+02 -0.17903192403E+02  0.29167866316E+02  0.40665073938E+02  0.00000000000E+00 0. -1.
          1    1    1    2  502    0 -0.16260425968E+02  0.16185002935E+02  0.12952959949E+03  0.13154570657E+03  0.00000000000E+00 0. -1.
         22    1    1    2    0    0  0.51016260116E+02 -0.12967563047E+02  0.11141327369E+02  0.53804699267E+02  0.00000000000E+00 0. -1.
         22    1    1    2    0    0 -0.56718518745E+02  0.14685752514E+02  0.85661677647E+02  0.10378142759E+03  0.00000000000E+00 0.  1.
</event>
<event>
 6    1  0.1715574E-005  0.5380187E+03  0.7818608E-02  0.1004580E+00
          2   -1    0    0  502    0  0.00000000000E+00  0.00000000000E+00  0.21327381559E+03  0.21327381559E+03  0.00000000000E+00 0. -1.
          1   -1    0    0  501    0 -0.00000000000E+00 -0.00000000000E+00 -0.14908790208E+04  0.14908790208E+04  0.00000000000E+00 0. -1.
          2    1    1    2  501    0  0.18251496570E+03  0.31128850988E+03 -0.26732327263E+03  0.44908126344E+03  0.00000000000E+00 0. -1.
          1    1    1    2  502    0 -0.31210641559E+03 -0.39906684033E+03 -0.88987857245E+03  0.10239866363E+04  0.00000000000E+00 0. -1.
         22    1    1    2    0    0  0.15304533203E+03  0.78030633709E+02 -0.10311590424E+03  0.20036103204E+03  0.00000000000E+00 0.  1.
         22    1    1    2    0    0 -0.23453882147E+02  0.97476967490E+01 -0.17287455846E+02  0.30723904526E+02  0.00000000000E+00 0. -1.
</event>
<event>
 6    1  0.1715574E-005  0.1172874E+03  0.7818608E-02  0.1252237E+00
          2   -1    0    0  502    0  0.00000000000E+00  0.00000000000E+00  0.83632184296E+02  0.83632184296E+02  0.00000000000E+00 0.  1.
          1   -1    0    0  501    0 -0.00000000000E+00 -0.00000000000E+00 -0.20783783614E+03  0.20783783614E+03  0.00000000000E+00 0.  1.
          2    1    1    2  501    0 -0.29018338501E+02  0.31908197527E+02 -0.13933736702E+02  0.45324894454E+02  0.00000000000E+00 0.  1.
          1    1    1    2  502    0  0.15527809769E+01 -0.77656237313E+02 -0.59258625689E+02  0.97695890604E+02  0.00000000000E+00 0.  1.
         22    1    1    2    0    0  0.24236005444E+02 -0.92317484395E+01 -0.81481023706E+02  0.85508867162E+02  0.00000000000E+00 0. -1.
         22    1    1    2    0    0  0.32295520798E+01  0.54979788225E+02  0.30467734257E+02  0.62940368212E+02  0.00000000000E+00 0.  1.
</event>
<event>
 6    1  0.1715574E-005  0.1383324E+03  0.7818608E-02  0.1220436E+00
          2   -1    0    0  502    0  0.00000000000E+00  0.00000000000E+00  0.12050856783E+03  0.12050856783E+03  0.00000000000E+00 0.  1.
          1   -1    0    0  501    0 -0.00000000000E+00 -0.00000000000E+00 -0.28353162507E+03  0.28353162507E+03  0.00000000000E+00 0.  1.
          2    1    1    2  501    0 -0.46079740502E+02 -0.10071723333E+03  0.46639054888E+02  0.12017697373E+03  0.00000000000E+00 0.  1.
          1    1    1    2  502    0  0.25319639421E+02  0.12633271976E+02 -0.69617399421E+01  0.29140170285E+02  0.00000000000E+00 0.  1.
         22    1    1    2    0    0  0.29233613802E+02  0.61843793042E+02 -0.21419201787E+03  0.22484990423E+03  0.00000000000E+00 0.  1.
         22    1    1    2    0    0 -0.84735127216E+01  0.26240168308E+02  0.11491645688E+02  0.29873144651E+02  0.00000000000E+00 0. -1.
</event>
<event>
 6    1  0.1715574E-005  0.1644833E+03  0.7818608E-02  0.1183854E+00
          2   -1    0    0  502    0  0.00000000000E+00  0.00000000000E+00  0.97185383148E+02  0.97185383148E+02  0.00000000000E+00 0.  1.
          1   -1    0    0  501    0 -0.00000000000E+00 -0.00000000000E+00 -0.51717286917E+03  0.51717286917E+03  0.00000000000E+00 0. -1.
          2    1    1    2  501    0 -0.10529283315E+03 -0.87385345555E+02 -0.88792233841E+01  0.13711899919E+03  0.00000000000E+00 0.  1.
          1    1    1    2  502    0  0.63946842897E+02  0.82146746780E+02 -0.23292391909E+03  0.25512906304E+03  0.00000000000E+00 0. -1.
         22    1    1    2    0    0 -0.78275593083E+01 -0.25037981993E+02  0.77991887169E+01  0.27367838271E+02  0.00000000000E+00 0.  1.
         22    1    1    2    0    0  0.49173549557E+02  0.30276580768E+02 -0.18598353226E+03  0.19474235182E+03  0.00000000000E+00 0.  1.
</event>
<event>
 6    1  0.1715574E-005  0.6319661E+02  0.7818608E-02  0.1386250E+00
          2   -1    0    0  502    0  0.00000000000E+00  0.00000000000E+00  0.49147983772E+03  0.49147983772E+03  0.00000000000E+00 0.  1.
          1   -1    0    0  501    0 -0.00000000000E+00 -0.00000000000E+00 -0.16300290948E+03  0.16300290948E+03  0.00000000000E+00 0. -1.
          2    1    1    2  501    0 -0.13529443856E+02  0.49458305979E+02  0.43464451571E+03  0.43765857117E+03  0.00000000000E+00 0.  1.
          1    1    1    2  502    0  0.75294106036E+01 -0.36461465701E+02 -0.78793510333E+02  0.87146702610E+02  0.00000000000E+00 0. -1.
         22    1    1    2    0    0  0.36321746873E+01 -0.23142011306E+02 -0.76217112563E+02  0.79735773826E+02  0.00000000000E+00 0. -1.
         22    1    1    2    0    0  0.23678585651E+01  0.10145171028E+02  0.48843035422E+02  0.49941699596E+02  0.00000000000E+00 0.  1.
</event>
<event>
 6    1  0.2145152E-005  0.3363837E+03  0.7818608E-02  0.1069818E+00
          2   -1    0    0  502    0  0.00000000000E+00  0.00000000000E+00  0.11678008230E+04  0.11678008230E+04  0.00000000000E+00 0. -1.
          1   -1    0    0  501    0 -0.00000000000E+00 -0.00000000000E+00 -0.13578071081E+03  0.13578071081E+03  0.00000000000E+00 0.  1.
          2    1    1    2  501    0  0.20125830123E+03  0.19593444326E+03  0.65501590255E+03  0.71269982634E+03  0.00000000000E+00 0. -1.
          1    1    1    2  502    0 -0.19212309586E+03 -0.21635002257E+03  0.14207049118E+03  0.32233932539E+03  0.00000000000E+00 0.  1.
         22    1    1    2    0    0 -0.24271375491E+02 -0.19421134698E+02  0.13619820338E+01  0.31114870018E+02  0.00000000000E+00 0. -1.
         22    1    1    2    0    0  0.15136170123E+02  0.39836714016E+02  0.23357173645E+03  0.23742751209E+03  0.00000000000E+00 0. -1.
</event>
<event>
 6    1  0.1715574E-005  0.1413093E+03  0.7818608E-02  0.1225281E+00
          2   -1    0    0  502    0  0.00000000000E+00  0.00000000000E+00  0.25123383649E+03  0.25123383649E+03  0.00000000000E+00 0.  1.
          1   -1    0    0  501    0 -0.00000000000E+00 -0.00000000000E+00 -0.10554127047E+03  0.10554127047E+03  0.00000000000E+00 0. -1.
          2    1    1    2  501    0  0.44992504953E+02  0.94544412720E+01  0.18555424371E+02  0.49578379717E+02  0.00000000000E+00 0.  1.
          1    1    1    2  502    0 -0.38064414460E+02 -0.73743673672E+02 -0.36306407398E+02  0.90582472217E+02  0.00000000000E+00 0. -1.
         22    1    1    2    0    0  0.14358635693E+02  0.72551931622E+02  0.17574799934E+03  0.19067593575E+03  0.00000000000E+00 0.  1.
         22    1    1    2    0    0 -0.21286726186E+02 -0.82626992212E+01 -0.12304450290E+02  0.25938319280E+02  0.00000000000E+00 0. -1.
</event>
<event>
 6    1  0.1715574E-005  0.9114252E+02  0.7818608E-02  0.1301654E+00
          2   -1    0    0  502    0  0.00000000000E+00  0.00000000000E+00  0.43543338679E+03  0.43543338679E+03  0.00000000000E+00 0.  1.
          1   -1    0    0  501    0 -0.00000000000E+00 -0.00000000000E+00 -0.80657778840E+02  0.80657778840E+02  0.00000000000E+00 0.  1.
          2    1    1    2  501    0  0.54330767571E+02  0.23633356481E+02  0.15921045736E+03  0.16987741927E+03  0.00000000000E+00 0.  1.
          1    1    1    2  502    0  0.63405688022E+01 -0.97841627007E+02  0.55426482612E+01  0.98203399828E+02  0.00000000000E+00 0.  1.
         22    1    1    2    0    0 -0.84107571996E+02  0.60351858752E+02  0.70065397214E+02  0.12500236161E+03  0.00000000000E+00 0.  1.
         22    1    1    2    0    0  0.23436235623E+02  0.13856411773E+02  0.11995710511E+03  0.12300798492E+03  0.00000000000E+00 0.  1.
</event>
<event>
 6    1  0.1930461E-005  0.1199090E+03  0.7818608E-02  0.1245643E+00
          2   -1    0    0  502    0  0.00000000000E+00  0.00000000000E+00  0.72507901141E+03  0.72507901141E+03  0.00000000000E+00 0.  1.
          1   -1    0    0  501    0 -0.00000000000E+00 -0.00000000000E+00 -0.23012770362E+03  0.23012770362E+03  0.00000000000E+00 0.  1.
          2    1    1    2  501    0 -0.20205234018E+02  0.99352556254E+02  0.63027782495E+03  0.63838023038E+03  0.00000000000E+00 0.  1.
          1    1    1    2  502    0  0.42722929201E+02 -0.83159579784E+02 -0.16281345242E+03  0.18774712962E+03  0.00000000000E+00 0.  1.
         22    1    1    2    0    0 -0.11987285229E+02 -0.23538213451E+02 -0.46773674832E+02  0.53717028556E+02  0.00000000000E+00 0.  1.
         22    1    1    2    0    0 -0.10530409954E+02  0.73452369804E+01  0.74260610104E+02  0.75362326484E+02  0.00000000000E+00 0. -1.
</event>
<event>
 6    1  0.1715574E-005  0.8600925E+02  0.7818608E-02  0.1314185E+00
          2   -1    0    0  502    0  0.00000000000E+00  0.00000000000E+00  0.18222209072E+03  0.18222209072E+03  0.00000000000E+00 0. -1.
          1   -1    0    0  501    0 -0.00000000000E+00 -0.00000000000E+00 -0.16985112856E+03  0.16985112856E+03  0.00000000000E+00 0.  1.
          2    1    1    2  501    0  0.21350334347E+02 -0.26869974404E+02  0.78254411921E+02  0.85449314136E+02  0.00000000000E+00 0. -1.
          1    1    1    2  502    0 -0.61680717974E+02  0.11674510867E+02 -0.11192145080E+03  0.12832465205E+03  0.00000000000E+00 0.  1.
         22    1    1    2    0    0 -0.80817757709E+01  0.21662021423E+02 -0.36022106281E+02  0.42803626163E+02  0.00000000000E+00 0.  1.
         22    1    1    2    0    0  0.48412159399E+02 -0.64665578855E+01  0.82060107328E+02  0.95495626933E+02  0.00000000000E+00 0. -1.
</event>
<event>
 6    1  0.1715574E-005  0.5152392E+02  0.7818608E-02  0.1452444E+00
          2   -1    0    0  502    0  0.00000000000E+00  0.00000000000E+00  0.22254209840E+03  0.22254209840E+03  0.00000000000E+00 0.  1.
          1   -1    0    0  501    0 -0.00000000000E+00 -0.00000000000E+00 -0.76152224960E+02  0.76152224960E+02  0.00000000000E+00 0.  1.
          2    1    1    2  501    0 -0.26671930185E+02  0.12473760453E+02  0.14387579726E+03  0.14685786188E+03  0.00000000000E+00 0.  1.
          1    1    1    2  502    0  0.22943734692E+02  0.10292937767E+01 -0.15565027432E+02  0.27744269431E+02  0.00000000000E+00 0.  1.
         22    1    1    2    0    0  0.35880983104E+01  0.11000470409E+02  0.67736683616E+02  0.68717851437E+02  0.00000000000E+00 0.  1.
         22    1    1    2    0    0  0.14009718298E+00 -0.24503524639E+02 -0.49657580000E+02  0.55374340614E+02  0.00000000000E+00 0.  1.
</event>
<event>
 6    1  0.1715574E-005  0.2282467E+02  0.7818608E-02  0.1724389E+00
          2   -1    0    0  502    0  0.00000000000E+00  0.00000000000E+00  0.26385804074E+03  0.26385804074E+03  0.00000000000E+00 0.  1.
          1   -1    0    0  501    0 -0.00000000000E+00 -0.00000000000E+00 -0.23089069113E+03  0.23089069113E+03  0.00000000000E+00 0.  1.
          2    1    1    2  501    0  0.64437694731E+01 -0.19981737847E+02  0.18442961299E+03  0.18562078052E+03  0.00000000000E+00 0.  1.
          1    1    1    2  502    0 -0.12225455111E+02  0.18795877401E+02 -0.18020294803E+03  0.18159253630E+03  0.00000000000E+00 0.  1.
         22    1    1    2    0    0 -0.11882510425E+02 -0.85541570339E+01 -0.46961970986E+02  0.49191405504E+02  0.00000000000E+00 0. -1.
         22    1    1    2    0    0  0.17664196063E+02  0.97400174795E+01  0.75702655638E+02  0.78344009559E+02  0.00000000000E+00 0.  1.
</event>
<event>
 6    1  0.1715574E-005  0.2528128E+03  0.7818608E-02  0.1115737E+00
          2   -1    0    0  502    0  0.00000000000E+00  0.00000000000E+00  0.17002445975E+04  0.17002445975E+04  0.00000000000E+00 0. -1.
          1   -1    0    0  501    0 -0.00000000000E+00 -0.00000000000E+00 -0.43441449866E+02  0.43441449866E+02  0.00000000000E+00 0. -1.
          2    1    1    2  501    0 -0.91572911931E+01 -0.92632377564E+02  0.38266201780E+03  0.39382081360E+03  0.00000000000E+00 0. -1.
          1    1    1    2  502    0  0.13178417615E+03  0.16612438483E+03  0.37115076405E+03  0.42745440689E+03  0.00000000000E+00 0. -1.
         22    1    1    2    0    0 -0.13305730258E+03 -0.83055708809E+02  0.88819126591E+03  0.90193471015E+03  0.00000000000E+00 0. -1.
         22    1    1    2    0    0  0.10430417619E+02  0.95637015477E+01  0.14799099876E+02  0.20476116725E+02  0.00000000000E+00 0.  1.
</event>
<event>
 6    1  0.1715574E-005  0.9364840E+02  0.7818608E-02  0.1298572E+00
          2   -1    0    0  502    0  0.00000000000E+00  0.00000000000E+00  0.67289491019E+03  0.67289491019E+03  0.00000000000E+00 0. -1.
          1   -1    0    0  501    0 -0.00000000000E+00 -0.00000000000E+00 -0.48495666368E+02  0.48495666368E+02  0.00000000000E+00 0.  1.
          2    1    1    2  501    0  0.52984701275E+01  0.49833458570E+02  0.39411930452E+03  0.39729267999E+03  0.00000000000E+00 0. -1.
          1    1    1    2  502    0  0.21891592189E+02 -0.58193301830E+02  0.22363210746E+01  0.62214976641E+02  0.00000000000E+00 0.  1.
         22    1    1    2    0    0  0.31882531210E+00 -0.23595375907E+02 -0.57741675895E+01  0.24293711638E+02  0.00000000000E+00 0. -1.
         22    1    1    2    0    0 -0.27508887629E+02  0.31955219167E+02  0.23381778581E+03  0.23758920828E+03  0.00000000000E+00 0. -1.
</event>
<event>
 6    1  0.1715574E-005  0.1701398E+03  0.7818608E-02  0.1190891E+00
          2   -1    0    0  502    0  0.00000000000E+00  0.00000000000E+00  0.81083021950E+02  0.81083021950E+02  0.00000000000E+00 0. -1.
          1   -1    0    0  501    0 -0.00000000000E+00 -0.00000000000E+00 -0.46138249198E+03  0.46138249198E+03  0.00000000000E+00 0. -1.
          2    1    1    2  501    0  0.57185904749E+02 -0.85649130045E+02  0.60323585661E+00  0.10298720830E+03  0.00000000000E+00 0. -1.
          1    1    1    2  502    0  0.20295561627E+02  0.28733767578E+02 -0.18316406100E+03  0.18651169524E+03  0.00000000000E+00 0. -1.
         22    1    1    2    0    0 -0.10037542844E+03  0.63147238896E+02 -0.19611908706E+03  0.22918441641E+03  0.00000000000E+00 0.  1.
         22    1    1    2    0    0  0.22893962066E+02 -0.62318764287E+01 -0.16195578259E+01  0.23782193979E+02  0.00000000000E+00 0.  1.
</event>
<event>
 6    1  0.1715574E-005  0.5150960E+03  0.7818608E-02  0.1031355E+00
          2   -1    0    0  502    0  0.00000000000E+00  0.00000000000E+00  0.13850810940E+04  0.13850810940E+04  0.00000000000E+00 0. -1.
          1   -1    0    0  501    0 -0.00000000000E+00 -0.00000000000E+00 -0.15407929813E+03  0.15407929813E+03  0.00000000000E+00 0. -1.
          2    1    1    2  501    0  0.14387390001E+03 -0.60747938882E+02 -0.57436252653E+02  0.16639992278E+03  0.00000000000E+00 0. -1.
          1    1    1    2  502    0 -0.22978671879E+03 -0.94746393268E+02  0.82476705100E+03  0.86140553956E+03  0.00000000000E+00 0. -1.
         22    1    1    2    0    0  0.10078005427E+03  0.16818075290E+03  0.41997611017E+03  0.46348820707E+03  0.00000000000E+00 0.  1.
         22    1    1    2    0    0 -0.14867235495E+02 -0.12686420745E+02  0.43694887350E+02  0.47866722711E+02  0.00000000000E+00 0.  1.
</event>
<event>
 6    1  0.1715574E-005  0.6914743E+02  0.7818608E-02  0.1365802E+00
          2   -1    0    0  502    0  0.00000000000E+00  0.00000000000E+00  0.13047328773E+03  0.13047328773E+03  0.00000000000E+00 0. -1.
          1   -1    0    0  501    0 -0.00000000000E+00 -0.00000000000E+00 -0.22413413613E+03  0.22413413613E+03  0.00000000000E+00 0. -1.
          2    1    1    2  501    0  0.28602071289E+02 -0.29409849322E+02  0.79936138491E+02  0.89848783832E+02  0.00000000000E+00 0. -1.
          1    1    1    2  502    0 -0.83020472869E+01  0.42947766281E+02 -0.11341817033E+03  0.12156116148E+03  0.00000000000E+00 0. -1.
         22    1    1    2    0    0 -0.14756659251E+02  0.13120934701E+02 -0.96108304406E+02  0.98115870763E+02  0.00000000000E+00 0. -1.
         22    1    1    2    0    0 -0.55433647519E+01 -0.26658851660E+02  0.35929487841E+02  0.45081607792E+02  0.00000000000E+00 0.  1.
</event>
<event>
 6    1  0.1715574E-005  0.2406380E+03  0.7818608E-02  0.1127099E+00
          2   -1    0    0  502    0  0.00000000000E+00  0.00000000000E+00  0.10313505180E+03  0.10313505180E+03  0.00000000000E+00 0. -1.
          1   -1    0    0  501    0 -0.00000000000E+00 -0.00000000000E+00 -0.50579373779E+03  0.50579373779E+03  0.00000000000E+00 0. -1.
          2    1    1    2  501    0 -0.41168462265E+02  0.16590700438E+03 -0.25095124596E+03  0.30363877261E+03  0.00000000000E+00 0. -1.
          1    1    1    2  502    0 -0.49498193357E+02 -0.54435066482E+02 -0.42308241542E+02  0.84871873497E+02  0.00000000000E+00 0. -1.
         22    1    1    2    0    0  0.99993962788E+02 -0.13382762223E+03 -0.93519941422E+02  0.19145392268E+03  0.00000000000E+00 0. -1.
         22    1    1    2    0    0 -0.93273071653E+01  0.22355684332E+02 -0.15879257070E+02  0.28964220791E+02  0.00000000000E+00 0. -1.
</event>
<event>
 6    1  0.1715574E-005  0.4674933E+02  0.7818608E-02  0.1512437E+00
          2   -1    0    0  502    0  0.00000000000E+00  0.00000000000E+00  0.13150608575E+03  0.13150608575E+03  0.00000000000E+00 0.  1.
          1   -1    0    0  501    0 -0.00000000000E+00 -0.00000000000E+00 -0.15813887028E+03  0.15813887028E+03  0.00000000000E+00 0. -1.
          2    1    1    2  501    0 -0.24886095361E+02 -0.30999286486E+02  0.84141631717E+02  0.93059592160E+02  0.00000000000E+00 0.  1.
          1    1    1    2  502    0  0.27162817804E+02  0.14427396629E+02 -0.69001409879E+01  0.31521110231E+02  0.00000000000E+00 0. -1.
         22    1    1    2    0    0 -0.10174252554E+02 -0.57330792222E+01  0.28391036416E+02  0.30699097074E+02  0.00000000000E+00 0.  1.
         22    1    1    2    0    0  0.78975301116E+01  0.22304969079E+02 -0.13226531167E+03  0.13436515656E+03  0.00000000000E+00 0. -1.
</event>
<event>
 6    1  0.1715574E-005  0.1005201E+03  0.7818608E-02  0.1296003E+00
          2   -1    0    0  502    0  0.00000000000E+00  0.00000000000E+00  0.16263424858E+03  0.16263424858E+03  0.00000000000E+00 0.  1.
          1   -1    0    0  501    0 -0.00000000000E+00 -0.00000000000E+00 -0.60342059611E+02  0.60342059611E+02  0.00000000000E+00 0.  1.
          2    1    1    2  501    0 -0.52509439402E+01  0.32805619879E+02  0.17126055052E+02  0.37377571745E+02  0.00000000000E+00 0.  1.
          1    1    1    2  502    0 -0.18859763547E+02  0.11790765734E+02 -0.77149725282E+01  0.23542167249E+02  0.00000000000E+00 0.  1.
         22    1    1    2    0    0  0.29339521732E+02 -0.70245211010E+02  0.12026553434E+02  0.77070326279E+02  0.00000000000E+00 0.  1.
         22    1    1    2    0    0 -0.52288142445E+01  0.25648825397E+02  0.80854553009E+02  0.84986242916E+02  0.00000000000E+00 0.  1.
</event>
<event>
 6    1  0.1715574E-005  0.9558236E+02  0.7818608E-02  0.1305964E+00
          2   -1    0    0  502    0  0.00000000000E+00  0.00000000000E+00  0.50247272586E+02  0.50247272586E+02  0.00000000000E+00 0. -1.
          1   -1    0    0  501    0 -0.00000000000E+00 -0.00000000000E+00 -0.18281758922E+03  0.18281758922E+03  0.00000000000E+00 0. -1.
          2    1    1    2  501    0 -0.27758028606E+02 -0.16330741366E+02 -0.10568520893E+02  0.33895352182E+02  0.00000000000E+00 0. -1.
          1    1    1    2  502    0  0.12315323092E+01  0.30378214661E+02 -0.39544682998E+02  0.49881204388E+02  0.00000000000E+00 0. -1.
         22    1    1    2    0    0 -0.72120053149E+01  0.38942646205E+02 -0.76554599408E+02  0.86192513622E+02  0.00000000000E+00 0. -1.
         22    1    1    2    0    0  0.33738501612E+02 -0.52990119500E+02 -0.59025133353E+01  0.63095791613E+02  0.00000000000E+00 0. -1.
</event>
<event>
 6    1  0.1715574E-005  0.1044314E+03  0.7818608E-02  0.1272351E+00
          2   -1    0    0  502    0  0.00000000000E+00  0.00000000000E+00  0.96931408980E+02  0.96931408980E+02  0.00000000000E+00 0. -1.
          1   -1    0    0  501    0 -0.00000000000E+00 -0.00000000000E+00 -0.19442484089E+03  0.19442484089E+03  0.00000000000E+00 0. -1.
          2    1    1    2  501    0  0.55757632815E+02 -0.12180229192E+02  0.39201878686E+02  0.69239142780E+02  0.00000000000E+00 0. -1.
          1    1    1    2  502    0 -0.47163086627E+02  0.19462012060E+02 -0.55634297008E+02  0.75487095965E+02  0.00000000000E+00 0. -1.
         22    1    1    2    0    0  0.37575025180E+02 -0.23975326137E+02  0.76651411895E+01  0.45226686482E+02  0.00000000000E+00 0.  1.
         22    1    1    2    0    0 -0.46169571368E+02  0.16693543269E+02 -0.88726154777E+02  0.10140332464E+03  0.00000000000E+00 0. -1.
</event>
<event>
 6    1  0.1715574E-005  0.9092475E+02  0.7818608E-02  0.1364827E+00
          2   -1    0    0  502    0  0.00000000000E+00  0.00000000000E+00  0.39005252480E+03  0.39005252480E+03  0.00000000000E+00 0. -1.
          1   -1    0    0  501    0 -0.00000000000E+00 -0.00000000000E+00 -0.10258724929E+03  0.10258724929E+03  0.00000000000E+00 0. -1.
          2    1    1    2  501    0 -0.44464394017E+02  0.90319094750E+01  0.23627807241E+03  0.24059506484E+03  0.00000000000E+00 0. -1.
          1    1    1    2  502    0  0.65554922043E+02  0.23990336263E+02 -0.51309387252E+02  0.86635080991E+02  0.00000000000E+00 0. -1.
         22    1    1    2    0    0  0.20426042048E+02 -0.21293469213E+02 -0.19928282776E+02  0.35605778734E+02  0.00000000000E+00 0. -1.
         22    1    1    2    0    0 -0.41516570074E+02 -0.11728776525E+02  0.12242487313E+03  0.12980384952E+03  0.00000000000E+00 0. -1.
</event>
<event>
 6    1  0.1715574E-005  0.7364207E+02  0.7818608E-02  0.1448100E+00
          2   -1    0    0  502    0  0.00000000000E+00  0.00000000000E+00  0.55812157698E+03  0.55812157698E+03  0.00000000000E+00 0. -1.
          1   -1    0    0  501    0 -0.00000000000E+00 -0.00000000000E+00 -0.88496018232E+02  0.88496018232E+02  0.00000000000E+00 0. -1.
          2    1    1    2  501    0 -0.90513131726E+02  0.14818726565E+02  0.41352440322E+03  0.42357366978E+03  0.00000000000E+00 0. -1.
          1    1    1    2  502    0  0.66946170601E+02  0.30933995537E+02  0.41508270674E+02  0.84626463783E+02  0.00000000000E+00 0. -1.
         22    1    1    2    0    0  0.15667477605E+00  0.12781575282E+02  0.59601800180E+02  0.60957098015E+02  0.00000000000E+00 0. -1.
         22    1    1    2    0    0  0.23410286349E+02 -0.58534297384E+02 -0.45008915320E+02  0.77460363641E+02  0.00000000000E+00 0. -1.
</event>
<event>
 6    1  0.1715574E-005  0.2367304E+03  0.7818608E-02  0.1137684E+00
          2   -1    0    0  502    0  0.00000000000E+00  0.00000000000E+00  0.14335607832E+04  0.14335607832E+04  0.00000000000E+00 0. -1.
          1   -1    0    0  501    0 -0.00000000000E+00 -0.00000000000E+00 -0.27823531821E+02  0.27823531821E+02  0.00000000000E+00 0. -1.
          2    1    1    2  501    0  0.72325358964E+02  0.51944865083E+02  0.48152651174E+03  0.48969072696E+03  0.00000000000E+00 0. -1.
          1    1    1    2  502    0 -0.20720921987E+02 -0.10199460423E+03  0.69213076219E+03  0.69991231441E+03  0.00000000000E+00 0. -1.
         22    1    1    2    0    0 -0.58352642507E+02  0.81638937436E+02  0.20973071643E+03  0.23250144173E+03  0.00000000000E+00 0. -1.
         22    1    1    2    0    0  0.67482055307E+01 -0.31589198287E+02  0.22349260985E+02  0.39279831884E+02  0.00000000000E+00 0. -1.
</event>
<event>
 6    1  0.1715574E-005  0.7026616E+02  0.7818608E-02  0.1363213E+00
          2   -1    0    0  502    0  0.00000000000E+00  0.00000000000E+00  0.29245033274E+03  0.29245033274E+03  0.00000000000E+00 0. -1.
          1   -1    0    0  501    0 -0.00000000000E+00 -0.00000000000E+00 -0.53398287120E+02  0.53398287120E+02  0.00000000000E+00 0. -1.
          2    1    1    2  501    0 -0.23467075278E+01 -0.40259457167E+02  0.16177600138E+03  0.16672673915E+03  0.00000000000E+00 0. -1.
          1    1    1    2  502    0  0.17307196063E+02  0.23220678801E+02 -0.65765090798E+01  0.29698306874E+02  0.00000000000E+00 0. -1.
         22    1    1    2    0    0  0.89345292298E+01  0.34819813598E+02 -0.20170707639E+02  0.41220173195E+02  0.00000000000E+00 0. -1.
         22    1    1    2    0    0 -0.23895017765E+02 -0.17781035232E+02  0.10402326096E+03  0.10820340064E+03  0.00000000000E+00 0. -1.
</event>
<event>
 6    1  0.1715574E-005  0.2558517E+02  0.7818608E-02  0.1734537E+00
          2   -1    0    0  502    0  0.00000000000E+00  0.00000000000E+00  0.12186413906E+03  0.12186413906E+03  0.00000000000E+00 0.  1.
          1   -1    0    0  501    0 -0.00000000000E+00 -0.00000000000E+00 -0.35967202576E+03  0.35967202576E+03  0.00000000000E+00 0. -1.
          2    1    1    2  501    0 -0.17750645193E+02  0.10510394465E+02  0.90148392297E+02  0.92478572818E+02  0.00000000000E+00 0.  1.
          1    1    1    2  502    0  0.15965061961E+02  0.24406049942E+02 -0.21854491789E+03  0.22048224330E+03  0.00000000000E+00 0. -1.
         22    1    1    2    0    0 -0.48193391664E+01 -0.95038692036E+01  0.27331038689E+02  0.29334880870E+02  0.00000000000E+00 0. -1.
         22    1    1    2    0    0  0.66049223987E+01 -0.25412575203E+02 -0.13674239980E+03  0.13924046783E+03  0.00000000000E+00 0. -1.
</event>
<event>
 6    1  0.1715574E-005  0.1397172E+03  0.7818608E-02  0.1234132E+00
          2   -1    0    0  502    0  0.00000000000E+00  0.00000000000E+00  0.38552794988E+03  0.38552794988E+03  0.00000000000E+00 0. -1.
          1   -1    0    0  501    0 -0.00000000000E+00 -0.00000000000E+00 -0.15519507441E+03  0.15519507441E+03  0.00000000000E+00 0. -1.
          2    1    1    2  501    0 -0.38191109549E+01  0.99804055543E+02 -0.21398937329E+01  0.99900021304E+02  0.00000000000E+00 0. -1.
          1    1    1    2  502    0 -0.71081240915E+01 -0.17584257965E+03  0.12837487367E+02  0.17645378808E+03  0.00000000000E+00 0. -1.
         22    1    1    2    0    0  0.25961668922E+02  0.87479001112E+02  0.22656157946E+03  0.24424727874E+03  0.00000000000E+00 0. -1.
         22    1    1    2    0    0 -0.15034433875E+02 -0.11440477005E+02 -0.69262976269E+01  0.20121936161E+02  0.00000000000E+00 0.  1.
</event>
<event>
 6    1  0.1715574E-005  0.1118487E+03  0.7818608E-02  0.1258145E+00
          2   -1    0    0  502    0  0.00000000000E+00  0.00000000000E+00  0.85231291528E+03  0.85231291528E+03  0.00000000000E+00 0.  1.
          1   -1    0    0  501    0 -0.00000000000E+00 -0.00000000000E+00 -0.16811232271E+02  0.16811232271E+02  0.00000000000E+00 0.  1.
          2    1    1    2  501    0 -0.68836612945E+01 -0.23938704977E+02  0.12199884743E+03  0.12451572256E+03  0.00000000000E+00 0.  1.
          1    1    1    2  502    0  0.64283680198E+02  0.34303837956E+02  0.20428752261E+03  0.21689291536E+03  0.00000000000E+00 0.  1.
         22    1    1    2    0    0  0.22634325962E+02  0.23415468679E+02  0.45622453331E+02  0.56053591616E+02  0.00000000000E+00 0.  1.
         22    1    1    2    0    0 -0.80034344865E+02 -0.33780601658E+02  0.46359285963E+03  0.47166191802E+03  0.00000000000E+00 0.  1.
</event>
<event>
 6    1  0.1715574E-005  0.7012607E+02  0.7818608E-02  0.1364165E+00
          2   -1    0    0  502    0  0.00000000000E+00  0.00000000000E+00  0.50420642299E+03  0.50420642299E+03  0.00000000000E+00 0. -1.
          1   -1    0    0  501    0 -0.00000000000E+00 -0.00000000000E+00 -0.24577620398E+02  0.24577620398E+02  0.00000000000E+00 0. -1.
          2    1    1    2  501    0  0.25990808235E+02  0.98889201805E+01  0.27998514224E+03  0.28136274226E+03  0.00000000000E+00 0. -1.
          1    1    1    2  502    0 -0.14151955902E+02 -0.14578692900E+02  0.22241014425E+02  0.30124389872E+02  0.00000000000E+00 0. -1.
         22    1    1    2    0    0  0.32329175392E+02 -0.87281663268E+01  0.16654208885E+03  0.16987531848E+03  0.00000000000E+00 0. -1.
         22    1    1    2    0    0 -0.44168027725E+02  0.13417939046E+02  0.10860557068E+02  0.47421592773E+02  0.00000000000E+00 0. -1.
</event>
<event>
 6    1  0.1715574E-005  0.6350519E+02  0.7818608E-02  0.1429402E+00
          2   -1    0    0  502    0  0.00000000000E+00  0.00000000000E+00  0.54212009339E+02  0.54212009339E+02  0.00000000000E+00 0. -1.
          1   -1    0    0  501    0 -0.00000000000E+00 -0.00000000000E+00 -0.32432130248E+03  0.32432130248E+03  0.00000000000E+00 0. -1.
          2    1    1    2  501    0  0.32865515114E+02  0.44013136156E+02 -0.21567027241E+00  0.54930362748E+02  0.00000000000E+00 0. -1.
          1    1    1    2  502    0 -0.18400728408E+02 -0.21908761336E+02 -0.14046371051E+03  0.14334794940E+03  0.00000000000E+00 0. -1.
         22    1    1    2    0    0 -0.35677722655E+02  0.49568819376E+00 -0.14229112409E+03  0.14669665843E+03  0.00000000000E+00 0.  1.
         22    1    1    2    0    0  0.21212935949E+02 -0.22600063014E+02  0.12861211721E+02  0.33558341240E+02  0.00000000000E+00 0. -1.
</event>
<event>
 6    1  0.1715574E-005  0.3298118E+03  0.7818608E-02  0.1072202E+00
          2   -1    0    0  502    0  0.00000000000E+00  0.00000000000E+00  0.11214217589E+04  0.11214217589E+04  0.00000000000E+00 0. -1.
          1   -1    0    0  501    0 -0.00000000000E+00 -0.00000000000E+00 -0.10857469927E+03  0.10857469927E+03  0.00000000000E+00 0.  1.
          2    1    1    2  501    0  0.94411639538E+02 -0.19970531176E+03  0.40525559005E+03  0.46154941500E+03  0.00000000000E+00 0. -1.
          1    1    1    2  502    0 -0.91570177939E+02  0.27427091155E+03  0.24827842859E+03  0.38111915264E+03  0.00000000000E+00 0.  1.
         22    1    1    2    0    0  0.20567542506E+02 -0.96157594435E+02  0.32892702392E+03  0.34331078316E+03  0.00000000000E+00 0. -1.
         22    1    1    2    0    0 -0.23409004105E+02  0.21591994654E+02  0.30386017095E+02  0.44017107370E+02  0.00000000000E+00 0. -1.
</event>
<event>
 6    1  0.1715574E-005  0.2771944E+02  0.7818608E-02  0.1696309E+00
          2   -1    0    0  502    0  0.00000000000E+00  0.00000000000E+00  0.25709161744E+03  0.25709161744E+03  0.00000000000E+00 0. -1.
          1   -1    0    0  501    0 -0.00000000000E+00 -0.00000000000E+00 -0.99252067210E+02  0.99252067210E+02  0.00000000000E+00 0. -1.
          2    1    1    2  501    0 -0.25422001912E+02  0.24084330557E+02  0.17253276711E+03  0.17605081337E+03  0.00000000000E+00 0. -1.
          1    1    1    2  502    0  0.38169463995E+02  0.11718676097E+02 -0.28128421655E+02  0.48841001791E+02  0.00000000000E+00 0. -1.
         22    1    1    2    0    0  0.17206708859E+00 -0.12195314862E+02  0.68810755464E+02  0.69883298285E+02  0.00000000000E+00 0. -1.
         22    1    1    2    0    0 -0.12919529172E+02 -0.23607691791E+02 -0.55375550693E+02  0.61568571205E+02  0.00000000000E+00 0. -1.
</event>
<event>
 6    1  0.1715574E-005  0.4632028E+02  0.7818608E-02  0.1522622E+00
          2   -1    0    0  502    0  0.00000000000E+00  0.00000000000E+00  0.18225531474E+03  0.18225531474E+03  0.00000000000E+00 0.  1.
          1   -1    0    0  501    0 -0.00000000000E+00 -0.00000000000E+00 -0.31417673847E+03  0.31417673847E+03  0.00000000000E+00 0.  1.
          2    1    1    2  501    0  0.24626287245E+02  0.16421037494E+02  0.11952219794E+03  0.12313269385E+03  0.00000000000E+00 0.  1.
          1    1    1    2  502    0 -0.15364092470E+02 -0.31944428378E+02 -0.24935392418E+03  0.25186083726E+03  0.00000000000E+00 0.  1.
         22    1    1    2    0    0 -0.92449590348E+01 -0.56949098695E+01 -0.59369894467E+02  0.60354665395E+02  0.00000000000E+00 0.  1.
         22    1    1    2    0    0 -0.17235739816E-01  0.21218300753E+02  0.57280196978E+02  0.61083856703E+02  0.00000000000E+00 0. -1.
</event>
<event>
 6    1  0.1715574E-005  0.6303046E+02  0.7818608E-02  0.1497423E+00
          2   -1    0    0  502    0  0.00000000000E+00  0.00000000000E+00  0.13324608492E+03  0.13324608492E+03  0.00000000000E+00 0.  1.
          1   -1    0    0  501    0 -0.00000000000E+00 -0.00000000000E+00 -0.17283712154E+03  0.17283712154E+03  0.00000000000E+00 0. -1.
          2    1    1    2  501    0  0.70451470889E+01  0.49745574936E+02  0.53991915311E+02  0.73752174491E+02  0.00000000000E+00 0.  1.
          1    1    1    2  502    0 -0.81616916314E+01 -0.46051492356E+02 -0.99372704178E+02  0.10982844574E+03  0.00000000000E+00 0. -1.
         22    1    1    2    0    0 -0.48111156858E+01  0.10829749981E+02  0.62525271553E+02  0.63638352442E+02  0.00000000000E+00 0.  1.
         22    1    1    2    0    0  0.59276602283E+01 -0.14523832561E+02 -0.56735519311E+02  0.58864233789E+02  0.00000000000E+00 0. -1.
</event>
<event>
 6    1  0.1715574E-005  0.4013063E+03  0.7818608E-02  0.1181645E+00
          2   -1    0    0  502    0  0.00000000000E+00  0.00000000000E+00  0.28199247672E+04  0.28199247672E+04  0.00000000000E+00 0. -1.
          1   -1    0    0  501    0 -0.00000000000E+00 -0.00000000000E+00 -0.14570885958E+03  0.14570885958E+03  0.00000000000E+00 0. -1.
          2    1    1    2  501    0  0.47139966797E+03  0.28165029331E+03  0.90686130042E+03  0.10601612863E+04  0.00000000000E+00 0. -1.
          1    1    1    2  502    0 -0.32999136563E+03  0.46687874437E+02  0.82266768354E+03  0.88761262753E+03  0.00000000000E+00 0. -1.
         22    1    1    2    0    0 -0.13626881464E+03 -0.33903280476E+03  0.92833471486E+03  0.99765614085E+03  0.00000000000E+00 0. -1.
         22    1    1    2    0    0 -0.51394877038E+01  0.10694637014E+02  0.16352208803E+02  0.20203572146E+02  0.00000000000E+00 0.  1.
</event>
<event>
 6    1  0.1715574E-005  0.5185492E+02  0.7818608E-02  0.1439474E+00
          2   -1    0    0  502    0  0.00000000000E+00  0.00000000000E+00  0.12015216000E+03  0.12015216000E+03  0.00000000000E+00 0. -1.
          1   -1    0    0  501    0 -0.00000000000E+00 -0.00000000000E+00 -0.73067024781E+02  0.73067024781E+02  0.00000000000E+00 0.  1.
          2    1    1    2  501    0  0.22291568168E+02  0.35890388785E+01  0.24449454201E+02  0.33280189636E+02  0.00000000000E+00 0. -1.
          1    1    1    2  502    0 -0.18445202943E+01 -0.25469762053E+02 -0.12678184836E+02  0.28510478861E+02  0.00000000000E+00 0.  1.
         22    1    1    2    0    0 -0.67574748523E+01  0.22154569849E+02  0.80733240612E+02  0.83990145680E+02  0.00000000000E+00 0. -1.
         22    1    1    2    0    0 -0.13689573022E+02 -0.27384667533E+00 -0.45419374761E+02  0.47438370601E+02  0.00000000000E+00 0.  1.
</event>
<event>
 6    1  0.1715574E-005  0.3857457E+02  0.7818608E-02  0.1568489E+00
          2   -1    0    0  502    0  0.00000000000E+00  0.00000000000E+00  0.14191079237E+03  0.14191079237E+03  0.00000000000E+00 0.  1.
          1   -1    0    0  501    0 -0.00000000000E+00 -0.00000000000E+00 -0.92201633691E+02  0.92201633691E+02  0.00000000000E+00 0. -1.
          2    1    1    2  501    0  0.20997833560E+02  0.19121588436E+01  0.36825886493E+02  0.42434788578E+02  0.00000000000E+00 0.  1.
          1    1    1    2  502    0 -0.22140793919E+02 -0.44567601426E+01 -0.50695131487E+02  0.55498412795E+02  0.00000000000E+00 0. -1.
         22    1    1    2    0    0  0.15075701947E+02  0.13606032947E+02  0.96577956860E+02  0.98689931973E+02  0.00000000000E+00 0.  1.
         22    1    1    2    0    0 -0.13932741588E+02 -0.11061431648E+02 -0.32999553183E+02  0.37489292719E+02  0.00000000000E+00 0. -1.
</event>
<event>
 6    1  0.1715574E-005  0.8919557E+02  0.7818608E-02  0.1373326E+00
          2   -1    0    0  502    0  0.00000000000E+00  0.00000000000E+00  0.14635374743E+03  0.14635374743E+03  0.00000000000E+00 0. -1.
          1   -1    0    0  501    0 -0.00000000000E+00 -0.00000000000E+00 -0.29147796175E+03  0.29147796175E+03  0.00000000000E+00 0. -1.
          2    1    1    2  501    0  0.10722700314E+03  0.11230650458E+01 -0.13809591454E+03  0.17484099374E+03  0.00000000000E+00 0. -1.
          1    1    1    2  502    0 -0.99736112003E+02  0.68330984038E+02 -0.59290062282E+01  0.12104366374E+03  0.00000000000E+00 0. -1.
         22    1    1    2    0    0 -0.21029235682E+02  0.13694334372E+02 -0.41515159380E+02  0.48510534996E+02  0.00000000000E+00 0.  1.
         22    1    1    2    0    0  0.13538344540E+02 -0.83148383455E+02  0.40415865832E+02  0.93436516711E+02  0.00000000000E+00 0. -1.
</event>
<event>
 6    1  0.1715574E-005  0.5603679E+02  0.7818608E-02  0.1483173E+00
          2   -1    0    0  502    0  0.00000000000E+00  0.00000000000E+00  0.12168028443E+03  0.12168028443E+03  0.00000000000E+00 0.  1.
          1   -1    0    0  501    0 -0.00000000000E+00 -0.00000000000E+00 -0.21550173414E+03  0.21550173414E+03  0.00000000000E+00 0. -1.
          2    1    1    2  501    0 -0.34696371422E+02 -0.66602042321E+01  0.37447489575E+02  0.51483113598E+02  0.00000000000E+00 0.  1.
          1    1    1    2  502    0  0.31091400272E+02  0.28176159773E+02 -0.14717155983E+03  0.15303607148E+03  0.00000000000E+00 0. -1.
         22    1    1    2    0    0  0.14785267959E+02 -0.42541492630E+01 -0.55897070120E+02  0.57975722355E+02  0.00000000000E+00 0. -1.
         22    1    1    2    0    0 -0.11180296810E+02 -0.17261806278E+02  0.71799690657E+02  0.74687111145E+02  0.00000000000E+00 0. -1.
</event>
<event>
 6    1  0.1715574E-005  0.2086740E+03  0.7818608E-02  0.1142823E+00
          2   -1    0    0  502    0  0.00000000000E+00  0.00000000000E+00  0.21627736296E+03  0.21627736296E+03  0.00000000000E+00 0. -1.
          1   -1    0    0  501    0 -0.00000000000E+00 -0.00000000000E+00 -0.26306431899E+03  0.26306431899E+03  0.00000000000E+00 0. -1.
          2    1    1    2  501    0  0.91010848669E+02 -0.12711125216E+03  0.86614417961E+02  0.17872409575E+03  0.00000000000E+00 0. -1.
          1    1    1    2  502    0 -0.58857575908E+02  0.12258114531E+03 -0.92276494373E+02  0.16433290249E+03  0.00000000000E+00 0. -1.
         22    1    1    2    0    0 -0.55212983636E+02  0.47280528645E+02 -0.48171187244E+02  0.87203126271E+02  0.00000000000E+00 0. -1.
         22    1    1    2    0    0  0.23059710876E+02 -0.42750421792E+02  0.70463076266E+01  0.49081557435E+02  0.00000000000E+00 0. -1.
</event>
<event>
 6    1  0.1715574E-005  0.3285670E+02  0.7818608E-02  0.1627045E+00
          2   -1    0    0  502    0  0.00000000000E+00  0.00000000000E+00  0.63789025165E+03  0.63789025165E+03  0.00000000000E+00 0. -1.
          1   -1    0    0  501    0 -0.00000000000E+00 -0.00000000000E+00 -0.97231613606E+02  0.97231613606E+02  0.00000000000E+00 0. -1.
          2    1    1    2  501    0 -0.38101871945E+02 -0.13710171709E+02  0.50007853339E+03  0.50171531869E+03  0.00000000000E+00 0. -1.
          1    1    1    2  502    0  0.37772547019E+02  0.27633726496E+02  0.90865384852E+02  0.10221010866E+03  0.00000000000E+00 0. -1.
         22    1    1    2    0    0  0.82626705781E+01 -0.22947047364E+02 -0.88154877183E+02  0.91466502496E+02  0.00000000000E+00 0. -1.
         22    1    1    2    0    0 -0.79333456517E+01  0.90234925779E+01  0.37869596984E+02  0.39729935405E+02  0.00000000000E+00 0. -1.
</event>
<event>
 6    1  0.1715574E-005  0.2944013E+03  0.7818608E-02  0.1111599E+00
          2   -1    0    0  502    0  0.00000000000E+00  0.00000000000E+00  0.56528362050E+03  0.56528362050E+03  0.00000000000E+00 0.  1.
          1   -1    0    0  501    0 -0.00000000000E+00 -0.00000000000E+00 -0.34292833023E+03  0.34292833023E+03  0.00000000000E+00 0. -1.
          2    1    1    2  501    0  0.12577147730E+03 -0.16867793780E+03  0.30459082439E+03  0.37019762493E+03  0.00000000000E+00 0.  1.
          1    1    1    2  502    0 -0.27297252375E+03  0.13252457543E+03 -0.13857475998E+03  0.33358615966E+03  0.00000000000E+00 0. -1.
         22    1    1    2    0    0  0.15802649042E+03  0.24108002056E+02  0.77605899427E+02  0.17769705418E+03  0.00000000000E+00 0.  1.
         22    1    1    2    0    0 -0.10825443976E+02  0.12045360308E+02 -0.21266673565E+02  0.26731111962E+02  0.00000000000E+00 0. -1.
</event>
<event>
 6    1  0.1715574E-005  0.8334219E+02  0.7818608E-02  0.1389294E+00
          2   -1    0    0  502    0  0.00000000000E+00  0.00000000000E+00  0.21540562524E+03  0.21540562524E+03  0.00000000000E+00 0.  1.
          1   -1    0    0  501    0 -0.00000000000E+00 -0.00000000000E+00 -0.30931407470E+03  0.30931407470E+03  0.00000000000E+00 0.  1.
          2    1    1    2  501    0 -0.80763172249E+00  0.65043301902E+02  0.12330014230E+03  0.13940662998E+03  0.00000000000E+00 0.  1.
          1    1    1    2  502    0 -0.17187502827E+02 -0.52752839022E+02 -0.24673147483E+03  0.25289265104E+03  0.00000000000E+00 0.  1.
         22    1    1    2    0    0  0.23331319938E+02  0.10685407367E+02  0.76046196363E+02  0.80259282341E+02  0.00000000000E+00 0.  1.
         22    1    1    2    0    0 -0.53361853887E+01 -0.22975870247E+02 -0.46523313300E+02  0.52161136573E+02  0.00000000000E+00 0.  1.
</event>
<event>
 6    1  0.1715574E-005  0.9705443E+02  0.7818608E-02  0.1286702E+00
          2   -1    0    0  502    0  0.00000000000E+00  0.00000000000E+00  0.82910753269E+02  0.82910753269E+02  0.00000000000E+00 0. -1.
          1   -1    0    0  501    0 -0.00000000000E+00 -0.00000000000E+00 -0.29986152413E+03  0.29986152413E+03  0.00000000000E+00 0. -1.
          2    1    1    2  501    0  0.25276536108E+02 -0.12943822293E+02  0.24559751506E+01  0.28503993178E+02  0.00000000000E+00 0. -1.
          1    1    1    2  502    0 -0.77456064864E+02  0.29368134280E+02 -0.20406586279E+03  0.22023806585E+03  0.00000000000E+00 0. -1.
         22    1    1    2    0    0 -0.96541363582E+01  0.75141542598E+01 -0.55284938104E+02  0.56622338739E+02  0.00000000000E+00 0.  1.
         22    1    1    2    0    0  0.61833665114E+02 -0.23938466247E+02  0.39944054883E+02  0.77407879626E+02  0.00000000000E+00 0. -1.
</event>
<event>
 6    1  0.1715574E-005  0.9978424E+02  0.7818608E-02  0.1413379E+00
          2   -1    0    0  502    0  0.00000000000E+00  0.00000000000E+00  0.53746214773E+03  0.53746214773E+03  0.00000000000E+00 0. -1.
          1   -1    0    0  501    0 -0.00000000000E+00 -0.00000000000E+00 -0.12566362166E+03  0.12566362166E+03  0.00000000000E+00 0. -1.
          2    1    1    2  501    0 -0.10142446445E+03  0.16330948769E+02  0.46437008644E+03  0.47559772819E+03  0.00000000000E+00 0. -1.
          1    1    1    2  502    0  0.30109335383E+02  0.51170449341E+01 -0.18090817840E+02  0.35496956436E+02  0.00000000000E+00 0. -1.
         22    1    1    2    0    0  0.58540880496E+01 -0.83748872546E+01  0.46199214618E+02  0.47315711077E+02  0.00000000000E+00 0.  1.
         22    1    1    2    0    0  0.65461041020E+02 -0.13073106449E+02 -0.80679957142E+02  0.10471537369E+03  0.00000000000E+00 0. -1.
</event>
<event>
 6    1  0.1715574E-005  0.1212924E+03  0.7818608E-02  0.1268190E+00
          2   -1    0    0  502    0  0.00000000000E+00  0.00000000000E+00  0.19482624530E+02  0.19482624530E+02  0.00000000000E+00 0.  1.
          1   -1    0    0  501    0 -0.00000000000E+00 -0.00000000000E+00 -0.53916450928E+03  0.53916450928E+03  0.00000000000E+00 0.  1.
          2    1    1    2  501    0  0.18381307975E+02 -0.24049946831E+02 -0.17875751019E+03  0.18130228866E+03  0.00000000000E+00 0.  1.
          1    1    1    2  502    0  0.22121243609E+02  0.81824280737E+01 -0.24015582816E+02  0.33660804595E+02  0.00000000000E+00 0.  1.
         22    1    1    2    0    0  0.25219671972E+02 -0.37965734115E+02 -0.80982546701E+02  0.92927938164E+02  0.00000000000E+00 0.  1.
         22    1    1    2    0    0 -0.65722223556E+02  0.53833252872E+02 -0.23592624504E+03  0.25075610238E+03  0.00000000000E+00 0.  1.
</event>
<event>
 6    1  0.1715574E-005  0.4593390E+02  0.7818608E-02  0.1567856E+00
          2   -1    0    0  502    0  0.00000000000E+00  0.00000000000E+00  0.21866664077E+03  0.21866664077E+03  0.00000000000E+00 0.  1.
          1   -1    0    0  501    0 -0.00000000000E+00 -0.00000000000E+00 -0.16905980603E+03  0.16905980603E+03  0.00000000000E+00 0.  1.
          2    1    1    2  501    0 -0.15067219753E+02 -0.18341324182E+02  0.88768673384E+02  0.91887445596E+02  0.00000000000E+00 0.  1.
          1    1    1    2  502    0  0.29698704784E+02  0.24828835779E+02 -0.13289284307E+03  0.13841601024E+03  0.00000000000E+00 0.  1.
         22    1    1    2    0    0 -0.34396842240E+01  0.11624803111E+02 -0.29747202178E+02  0.32122632400E+02  0.00000000000E+00 0. -1.
         22    1    1    2    0    0 -0.11191800807E+02 -0.18112314708E+02  0.12347820661E+03  0.12530035857E+03  0.00000000000E+00 0.  1.
</event>
<event>
 6    1  0.1715574E-005  0.4596998E+02  0.7818608E-02  0.1534003E+00
          2   -1    0    0  502    0  0.00000000000E+00  0.00000000000E+00  0.23765176795E+03  0.23765176795E+03  0.00000000000E+00 0.  1.
          1   -1    0    0  501    0 -0.00000000000E+00 -0.00000000000E+00 -0.34537043632E+03  0.34537043632E+03  0.00000000000E+00 0.  1.
          2    1    1    2  501    0 -0.25416893589E+02  0.11421310281E+02  0.17974673687E+03  0.18189379930E+03  0.00000000000E+00 0.  1.
          1    1    1    2  502    0  0.34644945812E+02  0.42160204170E+02 -0.25842515460E+03  0.26412367485E+03  0.00000000000E+00 0.  1.
         22    1    1    2    0    0 -0.11970148773E+02 -0.14332832212E+02  0.47448075491E+02  0.50990532539E+02  0.00000000000E+00 0.  1.
         22    1    1    2    0    0  0.27420965495E+01 -0.39248682239E+02 -0.76488326128E+02  0.86014197577E+02  0.00000000000E+00 0. -1.
</event>
<event>
 6    1  0.1715574E-005  0.1214366E+03  0.7818608E-02  0.1241230E+00
          2   -1    0    0  502    0  0.00000000000E+00  0.00000000000E+00  0.15538397759E+03  0.15538397759E+03  0.00000000000E+00 0.  1.
          1   -1    0    0  501    0 -0.00000000000E+00 -0.00000000000E+00 -0.17795532879E+03  0.17795532879E+03  0.00000000000E+00 0. -1.
          2    1    1    2  501    0  0.57298372429E+02  0.53479118736E+02  0.54510753160E+02  0.95470109636E+02  0.00000000000E+00 0.  1.
          1    1    1    2  502    0 -0.55659377783E+02 -0.70843152185E+02 -0.71403606291E+02  0.11495735530E+03  0.00000000000E+00 0. -1.
         22    1    1    2    0    0  0.12774359462E+02  0.37864652409E+02  0.48723643696E+02  0.63015153866E+02  0.00000000000E+00 0.  1.
         22    1    1    2    0    0 -0.14413354109E+02 -0.20500618961E+02 -0.54402141764E+02  0.59896687579E+02  0.00000000000E+00 0. -1.
</event>
<event>
 6    1  0.1715574E-005  0.1116045E+03  0.7818608E-02  0.1265024E+00
          2   -1    0    0  502    0  0.00000000000E+00  0.00000000000E+00  0.37154199873E+03  0.37154199873E+03  0.00000000000E+00 0. -1.
          1   -1    0    0  501    0 -0.00000000000E+00 -0.00000000000E+00 -0.52499228116E+02  0.52499228116E+02  0.00000000000E+00 0. -1.
          2    1    1    2  501    0 -0.23032096984E+02  0.28480311212E+02  0.14315364545E+03  0.14776525919E+03  0.00000000000E+00 0. -1.
          1    1    1    2  502    0  0.67376442635E+02 -0.67711420359E+01  0.17102275795E+02  0.69842116405E+02  0.00000000000E+00 0. -1.
         22    1    1    2    0    0  0.25973196326E+02 -0.71141928174E+01 -0.51850313888E+01  0.27424500311E+02  0.00000000000E+00 0.  1.
         22    1    1    2    0    0 -0.70317541976E+02 -0.14594976358E+02  0.16397188076E+03  0.17900935094E+03  0.00000000000E+00 0. -1.
</event>
<event>
 6    1  0.1715574E-005  0.3437092E+02  0.7818608E-02  0.1561752E+00
          2   -1    0    0  502    0  0.00000000000E+00  0.00000000000E+00  0.50338784663E+03  0.50338784663E+03  0.00000000000E+00 0. -1.
          1   -1    0    0  501    0 -0.00000000000E+00 -0.00000000000E+00 -0.34286723942E+02  0.34286723942E+02  0.00000000000E+00 0. -1.
          2    1    1    2  501    0 -0.96126940055E+01 -0.33304321317E+02  0.30020384428E+03  0.30219849408E+03  0.00000000000E+00 0. -1.
          1    1    1    2  502    0  0.16047986830E+01  0.27872321633E+02  0.12449713514E+01  0.27946227754E+02  0.00000000000E+00 0. -1.
         22    1    1    2    0    0  0.28918066815E+02 -0.98659279823E+01  0.17727722319E+03  0.17989109201E+03  0.00000000000E+00 0. -1.
         22    1    1    2    0    0 -0.20910171492E+02  0.15297927667E+02 -0.96249161335E+01  0.27638756725E+02  0.00000000000E+00 0. -1.
</event>
<event>
 6    1  0.1715574E-005  0.4300405E+02  0.7818608E-02  0.1487792E+00
          2   -1    0    0  502    0  0.00000000000E+00  0.00000000000E+00  0.13853117477E+03  0.13853117477E+03  0.00000000000E+00 0. -1.
          1   -1    0    0  501    0 -0.00000000000E+00 -0.00000000000E+00 -0.10584421935E+03  0.10584421935E+03  0.00000000000E+00 0. -1.
          2    1    1    2  501    0 -0.22179717800E+02 -0.71905748458E+01  0.71097915545E+02  0.74823511299E+02  0.00000000000E+00 0. -1.
          1    1    1    2  502    0  0.22822816873E+02  0.64347079009E+00 -0.41290349155E+02  0.47182496310E+02  0.00000000000E+00 0. -1.
         22    1    1    2    0    0  0.18532810994E+02  0.20879418451E+01 -0.56664710977E+02  0.59654958341E+02  0.00000000000E+00 0. -1.
         22    1    1    2    0    0 -0.19175910068E+02  0.44591622106E+01  0.59544100014E+02  0.62714428173E+02  0.00000000000E+00 0. -1.
</event>
<event>
 6    1  0.1715574E-005  0.9913718E+02  0.7818608E-02  0.1339080E+00
          2   -1    0    0  502    0  0.00000000000E+00  0.00000000000E+00  0.37457729226E+03  0.37457729226E+03  0.00000000000E+00 0. -1.
          1   -1    0    0  501    0 -0.00000000000E+00 -0.00000000000E+00 -0.12934306587E+03  0.12934306587E+03  0.00000000000E+00 0. -1.
          2    1    1    2  501    0 -0.37089702790E+02  0.38996143190E+02  0.19634897427E+03  0.20359092547E+03  0.00000000000E+00 0. -1.
          1    1    1    2  502    0  0.48821735943E+02 -0.41738940420E+02 -0.92339875008E+02  0.11248268118E+03  0.00000000000E+00 0. -1.
         22    1    1    2    0    0  0.32697039208E+02 -0.13244508481E+02 -0.36548578142E+01  0.35466482254E+02  0.00000000000E+00 0.  1.
         22    1    1    2    0    0 -0.44429072361E+02  0.15987305711E+02  0.14487998494E+03  0.15238026924E+03  0.00000000000E+00 0. -1.
</event>
<event>
 6    1  0.1715574E-005  0.7139566E+02  0.7818608E-02  0.1413985E+00
          2   -1    0    0  502    0  0.00000000000E+00  0.00000000000E+00  0.38015657373E+03  0.38015657373E+03  0.00000000000E+00 0.  1.
          1   -1    0    0  501    0 -0.00000000000E+00 -0.00000000000E+00 -0.51199667213E+02  0.51199667213E+02  0.00000000000E+00 0.  1.
          2    1    1    2  501    0 -0.25980338685E+02 -0.41257372770E+02  0.23605402666E+03  0.24103662026E+03  0.00000000000E+00 0.  1.
          1    1    1    2  502    0 -0.26560123312E+01  0.31201635156E+02  0.52867934583E+01  0.31757623069E+02  0.00000000000E+00 0.  1.
         22    1    1    2    0    0  0.13934278489E+02 -0.23864353758E+02  0.11128515478E+03  0.11466497797E+03  0.00000000000E+00 0.  1.
         22    1    1    2    0    0  0.14702072527E+02  0.33920091372E+02 -0.23669068385E+02  0.43897019642E+02  0.00000000000E+00 0.  1.
</event>
<event>
 6    1  0.1715574E-005  0.8659274E+02  0.7818608E-02  0.1313222E+00
          2   -1    0    0  502    0  0.00000000000E+00  0.00000000000E+00  0.14810581421E+03  0.14810581421E+03  0.00000000000E+00 0.  1.
          1   -1    0    0  501    0 -0.00000000000E+00 -0.00000000000E+00 -0.78599598082E+02  0.78599598082E+02  0.00000000000E+00 0. -1.
          2    1    1    2  501    0  0.18202856193E+02  0.15332737818E+02  0.11774991198E+02  0.26553478874E+02  0.00000000000E+00 0.  1.
          1    1    1    2  502    0 -0.29713797957E+01 -0.42926858268E+02 -0.25557549753E+02  0.50047303704E+02  0.00000000000E+00 0. -1.
         22    1    1    2    0    0 -0.54036041192E+02  0.19846084725E+02  0.92986658785E+02  0.10936306295E+03  0.00000000000E+00 0.  1.
         22    1    1    2    0    0  0.38804564795E+02  0.77480357249E+01 -0.96978840972E+01  0.40741566766E+02  0.00000000000E+00 0.  1.
</event>
<event>
 6    1  0.1715574E-005  0.2236719E+03  0.7818608E-02  0.1252466E+00
          2   -1    0    0  502    0  0.00000000000E+00  0.00000000000E+00  0.44610360012E+03  0.44610360012E+03  0.00000000000E+00 0. -1.
          1   -1    0    0  501    0 -0.00000000000E+00 -0.00000000000E+00 -0.33040907471E+03  0.33040907471E+03  0.00000000000E+00 0. -1.
          2    1    1    2  501    0  0.12881847488E+02  0.10230165372E+03  0.10137483571E+03  0.14459746769E+03  0.00000000000E+00 0. -1.
          1    1    1    2  502    0 -0.15790879877E+02 -0.20029723648E+03 -0.25231082870E+03  0.32253540752E+03  0.00000000000E+00 0. -1.
         22    1    1    2    0    0 -0.11971763711E+02  0.10179036159E+03  0.27385682749E+03  0.29240752864E+03  0.00000000000E+00 0.  1.
         22    1    1    2    0    0  0.14880796101E+02 -0.37947788226E+01 -0.72263091011E+01  0.16972270978E+02  0.00000000000E+00 0.  1.
</event>
<event>
 6    1  0.1715574E-005  0.5438732E+02  0.7818608E-02  0.1423321E+00
          2   -1    0    0  502    0  0.00000000000E+00  0.00000000000E+00  0.41355444481E+03  0.41355444481E+03  0.00000000000E+00 0. -1.
          1   -1    0    0  501    0 -0.00000000000E+00 -0.00000000000E+00 -0.55309420030E+02  0.55309420030E+02  0.00000000000E+00 0. -1.
          2    1    1    2  501    0 -0.76235207316E+02 -0.40060533378E+02  0.11623113489E+03  0.14465935810E+03  0.00000000000E+00 0. -1.
          1    1    1    2  502    0  0.75310742103E+02  0.47576509981E+02  0.81778489860E+02  0.12092540503E+03  0.00000000000E+00 0. -1.
         22    1    1    2    0    0 -0.32233259783E+02 -0.15281065901E+02  0.16507213312E+03  0.16888251284E+03  0.00000000000E+00 0.  1.
         22    1    1    2    0    0  0.33157724995E+02  0.77650892980E+01 -0.48367330854E+01  0.34396588866E+02  0.00000000000E+00 0. -1.
</event>
<event>
 6    1  0.1715574E-005  0.5491523E+02  0.7818608E-02  0.1421415E+00
          2   -1    0    0  502    0  0.00000000000E+00  0.00000000000E+00  0.15551323760E+03  0.15551323760E+03  0.00000000000E+00 0.  1.
          1   -1    0    0  501    0 -0.00000000000E+00 -0.00000000000E+00 -0.12384638925E+03  0.12384638925E+03  0.00000000000E+00 0.  1.
          2    1    1    2  501    0 -0.36665721568E+02  0.10273504368E+01  0.10098086653E+03  0.10743633460E+03  0.00000000000E+00 0.  1.
          1    1    1    2  502    0  0.14015249880E+02  0.17248239037E+02 -0.30567347733E+02  0.37792747010E+02  0.00000000000E+00 0.  1.
         22    1    1    2    0    0 -0.67367727678E+01 -0.16831132696E+02  0.43313760875E+02  0.46954797586E+02  0.00000000000E+00 0.  1.
         22    1    1    2    0    0  0.29387244456E+02 -0.14444567779E+01 -0.82060431319E+02  0.87175747661E+02  0.00000000000E+00 0.  1.
</event>
<event>
 6    1  0.1715574E-005  0.7714347E+02  0.7818608E-02  0.1354125E+00
          2   -1    0    0  502    0  0.00000000000E+00  0.00000000000E+00  0.96597964758E+02  0.96597964758E+02  0.00000000000E+00 0. -1.
          1   -1    0    0  501    0 -0.00000000000E+00 -0.00000000000E+00 -0.26577148906E+03  0.26577148906E+03  0.00000000000E+00 0. -1.
          2    1    1    2  501    0  0.68919398637E+02  0.78287712850E+02  0.59698757740E+01  0.10447243133E+03  0.00000000000E+00 0. -1.
          1    1    1    2  502    0 -0.21163399343E+02 -0.29873975401E+02 -0.80218449640E+02  0.88177908462E+02  0.00000000000E+00 0. -1.
         22    1    1    2    0    0  0.88328069320E+01 -0.36438859826E+02 -0.10456082757E+03  0.11108004162E+03  0.00000000000E+00 0. -1.
         22    1    1    2    0    0 -0.56588806226E+02 -0.11974877623E+02  0.96358771358E+01  0.58639072403E+02  0.00000000000E+00 0. -1.
</event>
<event>
 6    1  0.1715574E-005  0.7712614E+02  0.7818608E-02  0.1343606E+00
          2   -1    0    0  502    0  0.00000000000E+00  0.00000000000E+00  0.78011824490E+02  0.78011824490E+02  0.00000000000E+00 0. -1.
          1   -1    0    0  501    0 -0.00000000000E+00 -0.00000000000E+00 -0.34829439074E+03  0.34829439074E+03  0.00000000000E+00 0.  1.
          2    1    1    2  501    0  0.34025751816E+01 -0.46591978296E+02  0.51379455637E+02  0.69442338822E+02  0.00000000000E+00 0. -1.
          1    1    1    2  502    0  0.14940361911E+02  0.20747550780E+02 -0.95153302357E+02  0.98528301654E+02  0.00000000000E+00 0.  1.
         22    1    1    2    0    0  0.10845281285E+02 -0.16275733776E+02  0.58332179011E+01  0.20409460238E+02  0.00000000000E+00 0.  1.
         22    1    1    2    0    0 -0.29188218378E+02  0.42120161292E+02 -0.23234193744E+03  0.23792611452E+03  0.00000000000E+00 0.  1.
</event>
<event>
 6    1  0.1715574E-005  0.4758111E+02  0.7818608E-02  0.1517278E+00
          2   -1    0    0  502    0  0.00000000000E+00  0.00000000000E+00  0.49676805817E+03  0.49676805817E+03  0.00000000000E+00 0. -1.
          1   -1    0    0  501    0 -0.00000000000E+00 -0.00000000000E+00 -0.13253786703E+03  0.13253786703E+03  0.00000000000E+00 0.  1.
          2    1    1    2  501    0 -0.29861557627E+02 -0.29916817278E-01  0.39126182480E+03  0.39239970574E+03  0.00000000000E+00 0. -1.
          1    1    1    2  502    0  0.31572315575E+02 -0.59459724614E+01 -0.89066938187E+02  0.94684133715E+02  0.00000000000E+00 0.  1.
         22    1    1    2    0    0  0.11811072390E+02 -0.10125508463E+02 -0.37442817741E+02  0.40546170634E+02  0.00000000000E+00 0.  1.
         22    1    1    2    0    0 -0.13521830338E+02  0.16101397742E+02  0.99478122267E+02  0.10167591512E+03  0.00000000000E+00 0. -1.
</event>
<event>
 6    1  0.1715574E-005  0.9318491E+02  0.7818608E-02  0.1302514E+00
          2   -1    0    0  502    0  0.00000000000E+00  0.00000000000E+00  0.32854790764E+03  0.32854790764E+03  0.00000000000E+00 0.  1.
          1   -1    0    0  501    0 -0.00000000000E+00 -0.00000000000E+00 -0.17919650177E+03  0.17919650177E+03  0.00000000000E+00 0. -1.
          2    1    1    2  501    0 -0.43211050553E+02  0.50683083766E+02  0.28211856004E+03  0.28987385496E+03  0.00000000000E+00 0.  1.
          1    1    1    2  502    0 -0.28323193728E+01 -0.26867466459E+02 -0.63387516480E+02  0.68904717055E+02  0.00000000000E+00 0. -1.
         22    1    1    2    0    0 -0.11754336805E+02  0.53596864689E+01  0.28683097309E+02  0.31458079154E+02  0.00000000000E+00 0.  1.
         22    1    1    2    0    0  0.57797706731E+02 -0.29175303776E+02 -0.98062734989E+02  0.11750775824E+03  0.00000000000E+00 0.  1.
</event>
<event>
 6    1  0.1715574E-005  0.1024464E+03  0.7818608E-02  0.1275258E+00
          2   -1    0    0  502    0  0.00000000000E+00  0.00000000000E+00  0.16386502190E+03  0.16386502190E+03  0.00000000000E+00 0. -1.
          1   -1    0    0  501    0 -0.00000000000E+00 -0.00000000000E+00 -0.31833353360E+03  0.31833353360E+03  0.00000000000E+00 0. -1.
          2    1    1    2  501    0 -0.60476113173E+02  0.29423379953E+02 -0.23965119784E+03  0.24890920469E+03  0.00000000000E+00 0. -1.
          1    1    1    2  502    0  0.41941293027E+02 -0.32354221439E+02  0.93173801997E+02  0.10717847305E+03  0.00000000000E+00 0. -1.
         22    1    1    2    0    0 -0.26571663339E+02  0.14958619159E+02 -0.53075955012E+02  0.61211686631E+02  0.00000000000E+00 0. -1.
         22    1    1    2    0    0  0.45106483485E+02 -0.12027777674E+02  0.45084839156E+02  0.64899191134E+02  0.00000000000E+00 0. -1.
</event>
<event>
 6    1  0.1715574E-005  0.3615047E+02  0.7818608E-02  0.1539348E+00
          2   -1    0    0  502    0  0.00000000000E+00  0.00000000000E+00  0.61641056118E+02  0.61641056118E+02  0.00000000000E+00 0.  1.
          1   -1    0    0  501    0 -0.00000000000E+00 -0.00000000000E+00 -0.21762826950E+03  0.21762826950E+03  0.00000000000E+00 0.  1.
          2    1    1    2  501    0 -0.18675788221E+02  0.11149746025E+02 -0.60241042499E+02  0.64047522227E+02  0.00000000000E+00 0.  1.
          1    1    1    2  502    0 -0.20898838348E+02 -0.29832788339E+02 -0.73227493693E+02  0.81786444702E+02  0.00000000000E+00 0.  1.
         22    1    1    2    0    0 -0.48731156565E+01  0.11239667186E+02 -0.68184564200E+02  0.69276346395E+02  0.00000000000E+00 0.  1.
         22    1    1    2    0    0  0.44447742226E+02  0.74433751286E+01  0.45665887009E+02  0.64159012295E+02  0.00000000000E+00 0.  1.
</event>
<event>
 6    1  0.1715574E-005  0.4039733E+03  0.7818608E-02  0.1044610E+00
          2   -1    0    0  502    0  0.00000000000E+00  0.00000000000E+00  0.73794220995E+03  0.73794220995E+03  0.00000000000E+00 0. -1.
          1   -1    0    0  501    0 -0.00000000000E+00 -0.00000000000E+00 -0.25197033947E+03  0.25197033947E+03  0.00000000000E+00 0. -1.
          2    1    1    2  501    0  0.16207511017E+02  0.34915700216E+03  0.42618255161E+03  0.55118496248E+03  0.00000000000E+00 0. -1.
          1    1    1    2  502    0 -0.11788266428E+02 -0.26394544881E+03  0.96311926703E+02  0.28121548748E+03  0.00000000000E+00 0. -1.
         22    1    1    2    0    0 -0.12490821376E+01  0.27307315594E+02  0.17703719823E+02  0.32567950300E+02  0.00000000000E+00 0. -1.
         22    1    1    2    0    0 -0.31701624509E+01 -0.11251886894E+03 -0.54226327663E+02  0.12494414916E+03  0.00000000000E+00 0. -1.
</event>
<event>
 6    1  0.1715574E-005  0.2192819E+03  0.7818608E-02  0.1218712E+00
          2   -1    0    0  502    0  0.00000000000E+00  0.00000000000E+00  0.13025879111E+04  0.13025879111E+04  0.00000000000E+00 0.  1.
          1   -1    0    0  501    0 -0.00000000000E+00 -0.00000000000E+00 -0.92052444341E+02  0.92052444341E+02  0.00000000000E+00 0.  1.
          2    1    1    2  501    0 -0.17739817797E+03  0.90667816704E+02  0.10503011069E+04  0.10690290836E+04  0.00000000000E+00 0.  1.
          1    1    1    2  502    0  0.13327269002E+03 -0.38415900501E+02  0.72070653718E+02  0.15630601538E+03  0.00000000000E+00 0.  1.
         22    1    1    2    0    0  0.69993293629E+02 -0.32551918624E+02  0.20085775302E+01  0.77218669652E+02  0.00000000000E+00 0.  1.
         22    1    1    2    0    0 -0.25867805685E+02 -0.19699997579E+02  0.86155128688E+02  0.92086586834E+02  0.00000000000E+00 0. -1.
</event>
<event>
 6    1  0.1715574E-005  0.8804473E+02  0.7818608E-02  0.1307711E+00
          2   -1    0    0  502    0  0.00000000000E+00  0.00000000000E+00  0.45127087996E+03  0.45127087996E+03  0.00000000000E+00 0. -1.
          1   -1    0    0  501    0 -0.00000000000E+00 -0.00000000000E+00 -0.44785824206E+02  0.44785824206E+02  0.00000000000E+00 0.  1.
          2    1    1    2  501    0 -0.44094925215E+02 -0.27338827488E+02  0.31752648620E+03  0.32173722718E+03  0.00000000000E+00 0. -1.
          1    1    1    2  502    0  0.17909824192E+02  0.19611900700E+02  0.15625967012E+02  0.30814920034E+02  0.00000000000E+00 0.  1.
         22    1    1    2    0    0 -0.26832486715E+02 -0.13445821689E+02  0.80551361940E+02  0.85961004965E+02  0.00000000000E+00 0. -1.
         22    1    1    2    0    0  0.53017587738E+02  0.21172748477E+02 -0.72187593955E+01  0.57543551983E+02  0.00000000000E+00 0.  1.
</event>
<event>
 6    1  0.1715574E-005  0.2935733E+03  0.7818608E-02  0.1089104E+00
          2   -1    0    0  502    0  0.00000000000E+00  0.00000000000E+00  0.13836157815E+03  0.13836157815E+03  0.00000000000E+00 0. -1.
          1   -1    0    0  501    0 -0.00000000000E+00 -0.00000000000E+00 -0.89016671541E+03  0.89016671541E+03  0.00000000000E+00 0. -1.
          2    1    1    2  501    0  0.10637597323E+03  0.20615344358E+03 -0.61906124834E+03  0.66109902373E+03  0.00000000000E+00 0. -1.
          1    1    1    2  502    0 -0.12772818903E+03 -0.16455811660E+03 -0.56208769477E+02  0.21576211386E+03  0.00000000000E+00 0. -1.
         22    1    1    2    0    0  0.27229913256E+02  0.38446250563E+02 -0.45860654268E+02  0.65747866644E+02  0.00000000000E+00 0. -1.
         22    1    1    2    0    0 -0.58776974581E+01 -0.80041577550E+02 -0.30674465183E+02  0.85919289327E+02  0.00000000000E+00 0. -1.
</event>
<event>
 6    1  0.1715574E-005  0.5355567E+02  0.7818608E-02  0.1427711E+00
          2   -1    0    0  502    0  0.00000000000E+00  0.00000000000E+00  0.26134357437E+03  0.26134357437E+03  0.00000000000E+00 0.  1.
          1   -1    0    0  501    0 -0.00000000000E+00 -0.00000000000E+00 -0.66983998846E+02  0.66983998846E+02  0.00000000000E+00 0.  1.
          2    1    1    2  501    0  0.22018402642E+00  0.23603280761E+02  0.98148109810E+02  0.10094659382E+03  0.00000000000E+00 0.  1.
          1    1    1    2  502    0 -0.16436783771E+02 -0.33660363519E+02 -0.28054416291E+02  0.46799980837E+02  0.00000000000E+00 0.  1.
         22    1    1    2    0    0 -0.12618562882E+02  0.57817559230E+01 -0.24946450217E+02  0.28547893253E+02  0.00000000000E+00 0. -1.
         22    1    1    2    0    0  0.28835162626E+02  0.42753268349E+01  0.14921233222E+03  0.15203310531E+03  0.00000000000E+00 0.  1.
</event>
<event>
 6    1  0.1715574E-005  0.3017162E+02  0.7818608E-02  0.1616474E+00
          2   -1    0    0  502    0  0.00000000000E+00  0.00000000000E+00  0.12738349863E+03  0.12738349863E+03  0.00000000000E+00 0. -1.
          1   -1    0    0  501    0 -0.00000000000E+00 -0.00000000000E+00 -0.11747170707E+03  0.11747170707E+03  0.00000000000E+00 0.  1.
          2    1    1    2  501    0  0.47793730412E+02  0.81702625810E+01  0.59705050652E+02  0.76913502915E+02  0.00000000000E+00 0. -1.
          1    1    1    2  502    0 -0.69259911887E+01 -0.29760132978E+02 -0.95149141673E+01  0.32002632086E+02  0.00000000000E+00 0.  1.
         22    1    1    2    0    0 -0.20439653654E+02  0.14831918095E+02  0.43031934788E+02  0.49895016259E+02  0.00000000000E+00 0. -1.
         22    1    1    2    0    0 -0.20428085569E+02  0.67579523024E+01 -0.83310279712E+02  0.86044054443E+02  0.00000000000E+00 0.  1.
</event>
<event>
 6    1  0.1715574E-005  0.1022159E+03  0.7818608E-02  0.1323877E+00
          2   -1    0    0  502    0  0.00000000000E+00  0.00000000000E+00  0.33583205463E+03  0.33583205463E+03  0.00000000000E+00 0.  1.
          1   -1    0    0  501    0 -0.00000000000E+00 -0.00000000000E+00 -0.64887363018E+02  0.64887363018E+02  0.00000000000E+00 0.  1.
          2    1    1    2  501    0  0.51490593415E+02  0.53903903451E+02  0.13531152210E+03  0.15448663383E+03  0.00000000000E+00 0.  1.
          1    1    1    2  502    0 -0.66450078282E+02 -0.24903592335E+02  0.27448791579E+02  0.76087042090E+02  0.00000000000E+00 0.  1.
         22    1    1    2    0    0 -0.17938082497E+02 -0.38009336268E+02 -0.13205135426E+02  0.44055193211E+02  0.00000000000E+00 0.  1.
         22    1    1    2    0    0  0.32897567364E+02  0.90090251533E+01  0.12138951335E+03  0.12609054851E+03  0.00000000000E+00 0.  1.
</event>
<event>
 6    1  0.1715574E-005  0.1468044E+03  0.7818608E-02  0.1266302E+00
          2   -1    0    0  502    0  0.00000000000E+00  0.00000000000E+00  0.55651949792E+03  0.55651949792E+03  0.00000000000E+00 0.  1.
          1   -1    0    0  501    0 -0.00000000000E+00 -0.00000000000E+00 -0.74277337512E+02  0.74277337512E+02  0.00000000000E+00 0.  1.
          2    1    1    2  501    0 -0.15924565549E+02  0.10190729215E+03  0.23866270550E+03  0.25999725956E+03  0.00000000000E+00 0.  1.
          1    1    1    2  502    0 -0.31860078640E+02 -0.11038246009E+03  0.27584581822E+02  0.11815354951E+03  0.00000000000E+00 0.  1.
         22    1    1    2    0    0  0.30237410402E+02 -0.28235976815E+02  0.98549372983E+01  0.42528709875E+02  0.00000000000E+00 0.  1.
         22    1    1    2    0    0  0.17547233787E+02  0.36711144758E+02  0.20613993579E+03  0.21011731649E+03  0.00000000000E+00 0.  1.
</event>
<event>
 6    1  0.1715574E-005  0.1085221E+03  0.7818608E-02  0.1312100E+00
          2   -1    0    0  502    0  0.00000000000E+00  0.00000000000E+00  0.15279791898E+03  0.15279791898E+03  0.00000000000E+00 0. -1.
          1   -1    0    0  501    0 -0.00000000000E+00 -0.00000000000E+00 -0.47586485517E+03  0.47586485517E+03  0.00000000000E+00 0.  1.
          2    1    1    2  501    0  0.52011223422E+02 -0.10005201856E+03  0.80675386593E+02  0.13865097108E+03  0.00000000000E+00 0. -1.
          1    1    1    2  502    0 -0.72816124745E+02  0.39453822638E+02 -0.31419451293E+03  0.32492612098E+03  0.00000000000E+00 0.  1.
         22    1    1    2    0    0  0.24646920886E+02  0.35690952648E+02  0.23452913434E+02  0.49308761480E+02  0.00000000000E+00 0. -1.
         22    1    1    2    0    0 -0.38420195631E+01  0.24907243277E+02 -0.11300072329E+03  0.11577692061E+03  0.00000000000E+00 0. -1.
</event>
<event>
 6    1  0.1715574E-005  0.6772908E+02  0.7818608E-02  0.1459472E+00
          2   -1    0    0  502    0  0.00000000000E+00  0.00000000000E+00  0.25644489761E+03  0.25644489761E+03  0.00000000000E+00 0. -1.
          1   -1    0    0  501    0 -0.00000000000E+00 -0.00000000000E+00 -0.13693715652E+04  0.13693715652E+04  0.00000000000E+00 0. -1.
          2    1    1    2  501    0  0.65654239798E+01  0.63966295927E+02  0.20478716153E+03  0.21464522668E+03  0.00000000000E+00 0. -1.
          1    1    1    2  502    0  0.40294589532E+02 -0.52853076535E+02 -0.12670807467E+04  0.12688225725E+04  0.00000000000E+00 0. -1.
         22    1    1    2    0    0 -0.57824608700E+02 -0.25160563293E+01  0.26721023343E+02  0.63749737248E+02  0.00000000000E+00 0. -1.
         22    1    1    2    0    0  0.10964595188E+02 -0.85971630623E+01 -0.77354105693E+02  0.78598926379E+02  0.00000000000E+00 0.  1.
</event>
<event>
 6    1  0.1715574E-005  0.8857660E+02  0.7818608E-02  0.1307774E+00
          2   -1    0    0  502    0  0.00000000000E+00  0.00000000000E+00  0.94026053710E+02  0.94026053710E+02  0.00000000000E+00 0. -1.
          1   -1    0    0  501    0 -0.00000000000E+00 -0.00000000000E+00 -0.17763956706E+03  0.17763956706E+03  0.00000000000E+00 0.  1.
          2    1    1    2  501    0  0.22744674298E+02 -0.19795655399E+01  0.90791935541E+00  0.22848702506E+02  0.00000000000E+00 0. -1.
          1    1    1    2  502    0 -0.67416288278E+02  0.13210874696E+02 -0.96650661660E+02  0.11857838561E+03  0.00000000000E+00 0.  1.
         22    1    1    2    0    0 -0.12874248251E+02  0.67474541445E+01 -0.44934108423E+02  0.47226565673E+02  0.00000000000E+00 0. -1.
         22    1    1    2    0    0  0.57545862230E+02 -0.17978763301E+02  0.57063337375E+02  0.83011966980E+02  0.00000000000E+00 0. -1.
</event>
<event>
 6    1  0.1715574E-005  0.6247002E+02  0.7818608E-02  0.1393680E+00
          2   -1    0    0  502    0  0.00000000000E+00  0.00000000000E+00  0.46960600484E+03  0.46960600484E+03  0.00000000000E+00 0. -1.
          1   -1    0    0  501    0 -0.00000000000E+00 -0.00000000000E+00 -0.94047049005E+02  0.94047049005E+02  0.00000000000E+00 0.  1.
          2    1    1    2  501    0  0.26559984668E+02 -0.23146360495E+02  0.33706454857E+03  0.33890071805E+03  0.00000000000E+00 0. -1.
          1    1    1    2  502    0 -0.36204321638E+02  0.19825164907E+02 -0.54650419906E+02  0.68486921852E+02  0.00000000000E+00 0.  1.
         22    1    1    2    0    0 -0.14628989659E+02  0.33461993247E+01 -0.28506916466E+02  0.32215658844E+02  0.00000000000E+00 0.  1.
         22    1    1    2    0    0  0.24273326629E+02 -0.25003736825E-01  0.12165174364E+03  0.12404975510E+03  0.00000000000E+00 0.  1.
</event>
<event>
 6    1  0.1715574E-005  0.3884935E+02  0.7818608E-02  0.1569830E+00
          2   -1    0    0  502    0  0.00000000000E+00  0.00000000000E+00  0.15988597734E+03  0.15988597734E+03  0.00000000000E+00 0. -1.
          1   -1    0    0  501    0 -0.00000000000E+00 -0.00000000000E+00 -0.17873486485E+03  0.17873486485E+03  0.00000000000E+00 0. -1.
          2    1    1    2  501    0  0.23661528174E+02 -0.14214296439E+02  0.12062890590E+03  0.12374670532E+03  0.00000000000E+00 0. -1.
          1    1    1    2  502    0 -0.12184983244E+02  0.19521002240E+02 -0.59276392252E+02  0.63586429555E+02  0.00000000000E+00 0. -1.
         22    1    1    2    0    0 -0.19333806439E+02  0.28908106064E+01 -0.11398381851E+03  0.11564801658E+03  0.00000000000E+00 0.  1.
         22    1    1    2    0    0  0.78572615090E+01 -0.81975164067E+01  0.33782417352E+02  0.35639690737E+02  0.00000000000E+00 0. -1.
</event>
<event>
 6    1  0.1715574E-005  0.2884036E+03  0.7818608E-02  0.1093905E+00
          2   -1    0    0  502    0  0.00000000000E+00  0.00000000000E+00  0.50039164698E+03  0.50039164698E+03  0.00000000000E+00 0. -1.
          1   -1    0    0  501    0 -0.00000000000E+00 -0.00000000000E+00 -0.19783770300E+03  0.19783770300E+03  0.00000000000E+00 0. -1.
          2    1    1    2  501    0  0.16774889450E+03  0.11206631310E+03  0.19019871527E+03  0.27726179223E+03  0.00000000000E+00 0. -1.
          1    1    1    2  502    0 -0.15210118397E+03 -0.17943462477E+03 -0.94063245528E+01  0.23541459954E+03  0.00000000000E+00 0. -1.
         22    1    1    2    0    0 -0.29977713524E+02 -0.13738096921E+02 -0.60266924427E+01  0.33521927703E+02  0.00000000000E+00 0. -1.
         22    1    1    2    0    0  0.14330002999E+02  0.81106408594E+02  0.12778824570E+03  0.15203103052E+03  0.00000000000E+00 0.  1.
</event>
<event>
 6    1  0.1715574E-005  0.1431350E+03  0.7818608E-02  0.1210295E+00
          2   -1    0    0  502    0  0.00000000000E+00  0.00000000000E+00  0.72017883248E+03  0.72017883248E+03  0.00000000000E+00 0.  1.
          1   -1    0    0  501    0 -0.00000000000E+00 -0.00000000000E+00 -0.99681072732E+02  0.99681072732E+02  0.00000000000E+00 0. -1.
          2    1    1    2  501    0  0.43942256105E+02 -0.12170697422E+03  0.60481308891E+03  0.61850010668E+03  0.00000000000E+00 0.  1.
          1    1    1    2  502    0 -0.16029863809E+02  0.60520321645E+02  0.79475415707E+00  0.62612279146E+02  0.00000000000E+00 0. -1.
         22    1    1    2    0    0 -0.83895762108E+00 -0.10274611680E+02  0.52551564532E+02  0.53553136508E+02  0.00000000000E+00 0. -1.
         22    1    1    2    0    0 -0.27073434674E+02  0.71461264255E+02 -0.37661647856E+02  0.85194382874E+02  0.00000000000E+00 0. -1.
</event>
<event>
 6    1  0.1715574E-005  0.1806961E+03  0.7818608E-02  0.1168528E+00
          2   -1    0    0  502    0  0.00000000000E+00  0.00000000000E+00  0.39895650427E+02  0.39895650427E+02  0.00000000000E+00 0. -1.
          1   -1    0    0  501    0 -0.00000000000E+00 -0.00000000000E+00 -0.79357500874E+03  0.79357500874E+03  0.00000000000E+00 0. -1.
          2    1    1    2  501    0  0.22361419008E+02 -0.84704217124E+02 -0.32221489117E+03  0.33391207458E+03  0.00000000000E+00 0. -1.
          1    1    1    2  502    0 -0.88858398030E+02  0.51090097957E+02 -0.21557454674E+03  0.23870148348E+03  0.00000000000E+00 0. -1.
         22    1    1    2    0    0  0.29381982764E+02  0.72288888679E+02 -0.18044677792E+03  0.19659609355E+03  0.00000000000E+00 0. -1.
         22    1    1    2    0    0  0.37114996258E+02 -0.38674769511E+02 -0.35443142482E+02  0.64261007562E+02  0.00000000000E+00 0. -1.
</event>
<event>
 6    1  0.1715574E-005  0.6261182E+02  0.7818608E-02  0.1462263E+00
          2   -1    0    0  502    0  0.00000000000E+00  0.00000000000E+00  0.23047449898E+03  0.23047449898E+03  0.00000000000E+00 0. -1.
          1   -1    0    0  501    0 -0.00000000000E+00 -0.00000000000E+00 -0.98964537475E+03  0.98964537475E+03  0.00000000000E+00 0. -1.
          2    1    1    2  501    0 -0.12188049833E+02  0.47446350093E+02  0.19224221082E+03  0.19838541357E+03  0.00000000000E+00 0. -1.
          1    1    1    2  502    0  0.21669666510E+02 -0.41135763617E+02 -0.86400516901E+03  0.86525525573E+03  0.00000000000E+00 0. -1.
         22    1    1    2    0    0 -0.29846221303E+01  0.12467818704E+02  0.32499405035E+02  0.34936596859E+02  0.00000000000E+00 0. -1.
         22    1    1    2    0    0 -0.64969945476E+01 -0.18778405180E+02 -0.11990732262E+03  0.12154260758E+03  0.00000000000E+00 0. -1.
</event>
<event>
 6    1  0.1715574E-005  0.5216569E+02  0.7818608E-02  0.1503607E+00
          2   -1    0    0  502    0  0.00000000000E+00  0.00000000000E+00  0.31767261463E+03  0.31767261463E+03  0.00000000000E+00 0. -1.
          1   -1    0    0  501    0 -0.00000000000E+00 -0.00000000000E+00 -0.82234330040E+02  0.82234330040E+02  0.00000000000E+00 0. -1.
          2    1    1    2  501    0  0.21659232374E+02 -0.33858325448E+02  0.22443840008E+03  0.22800899978E+03  0.00000000000E+00 0. -1.
          1    1    1    2  502    0 -0.21132522227E+02  0.41945454046E+01 -0.25854406380E+02  0.33654539606E+02  0.00000000000E+00 0. -1.
         22    1    1    2    0    0 -0.18983942516E+02  0.24367690129E+02 -0.44769194433E+02  0.54391682874E+02  0.00000000000E+00 0. -1.
         22    1    1    2    0    0  0.18457232369E+02  0.52960899143E+01  0.81623485317E+02  0.83851722406E+02  0.00000000000E+00 0. -1.
</event>
<event>
 6    1  0.1715574E-005  0.8958671E+02  0.7818608E-02  0.1306770E+00
          2   -1    0    0  502    0  0.00000000000E+00  0.00000000000E+00  0.58961993543E+03  0.58961993543E+03  0.00000000000E+00 0.  1.
          1   -1    0    0  501    0 -0.00000000000E+00 -0.00000000000E+00 -0.31743161255E+02  0.31743161255E+02  0.00000000000E+00 0. -1.
          2    1    1    2  501    0 -0.37779819941E+02 -0.32738611704E+02  0.36377382509E+03  0.36719276588E+03  0.00000000000E+00 0.  1.
          1    1    1    2  502    0  0.90253753160E+00  0.32467680574E+02  0.41253879165E+02  0.52505689235E+02  0.00000000000E+00 0. -1.
         22    1    1    2    0    0  0.15536424271E+02 -0.33264316865E+02  0.15742770970E+03  0.16165203073E+03  0.00000000000E+00 0. -1.
         22    1    1    2    0    0  0.21340858139E+02  0.33535247995E+02 -0.45786397878E+01  0.40012610843E+02  0.00000000000E+00 0. -1.
</event>
<event>
 6    1  0.1715574E-005  0.1207582E+03  0.7818608E-02  0.1257180E+00
          2   -1    0    0  502    0  0.00000000000E+00  0.00000000000E+00  0.24947219113E+03  0.24947219113E+03  0.00000000000E+00 0.  1.
          1   -1    0    0  501    0 -0.00000000000E+00 -0.00000000000E+00 -0.46882852035E+02  0.46882852035E+02  0.00000000000E+00 0. -1.
          2    1    1    2  501    0 -0.88331833523E+01 -0.37315632589E+02  0.46865407116E+02  0.60554503943E+02  0.00000000000E+00 0.  1.
          1    1    1    2  502    0 -0.28148165447E+02  0.28115996947E+02  0.66126818744E+02  0.77172434583E+02  0.00000000000E+00 0. -1.
         22    1    1    2    0    0  0.30020535190E+02  0.58925727170E+02  0.13559391176E+02  0.67508006523E+02  0.00000000000E+00 0. -1.
         22    1    1    2    0    0  0.69608136090E+01 -0.49726091529E+02  0.76037722059E+02  0.91120098116E+02  0.00000000000E+00 0.  1.
</event>
<event>
 6    1  0.1715574E-005  0.1499853E+03  0.7818608E-02  0.1298678E+00
          2   -1    0    0  502    0  0.00000000000E+00  0.00000000000E+00  0.81287748457E+03  0.81287748457E+03  0.00000000000E+00 0.  1.
          1   -1    0    0  501    0 -0.00000000000E+00 -0.00000000000E+00 -0.60127535632E+02  0.60127535632E+02  0.00000000000E+00 0.  1.
          2    1    1    2  501    0 -0.13656998083E+03  0.27348418304E+02  0.61442329002E+03  0.63001212287E+03  0.00000000000E+00 0.  1.
          1    1    1    2  502    0  0.26915941585E+02 -0.21653171181E+02  0.18808864478E+02  0.39333206284E+02  0.00000000000E+00 0.  1.
         22    1    1    2    0    0  0.11363400717E+03 -0.26313817503E+02  0.43002906870E+02  0.12431554439E+03  0.00000000000E+00 0.  1.
         22    1    1    2    0    0 -0.39799679262E+01  0.20618570381E+02  0.76514887567E+02  0.79344146656E+02  0.00000000000E+00 0.  1.
</event>
<event>
 6    1  0.1822165E-005  0.1051775E+03  0.7818608E-02  0.1270666E+00
          2   -1    0    0  502    0  0.00000000000E+00  0.00000000000E+00  0.13234573353E+04  0.13234573353E+04  0.00000000000E+00 0.  1.
          1   -1    0    0  501    0 -0.00000000000E+00 -0.00000000000E+00 -0.20976103479E+03  0.20976103479E+03  0.00000000000E+00 0.  1.
          2    1    1    2  501    0  0.18739319286E+02  0.88358876674E+02  0.12420982623E+04  0.12453780737E+04  0.00000000000E+00 0.  1.
          1    1    1    2  502    0 -0.67482544967E+01 -0.72688061811E+02 -0.13920279091E+03  0.15718304701E+03  0.00000000000E+00 0.  1.
         22    1    1    2    0    0  0.27367884143E+01  0.10875078747E+02  0.66383787769E+02  0.67324324186E+02  0.00000000000E+00 0. -1.
         22    1    1    2    0    0 -0.14727853203E+02 -0.26545893610E+02 -0.55582958635E+02  0.63332925230E+02  0.00000000000E+00 0.  1.
</event>
<event>
 6    1  0.1715574E-005  0.9460123E+02  0.7818608E-02  0.1293998E+00
          2   -1    0    0  502    0  0.00000000000E+00  0.00000000000E+00  0.14001252479E+03  0.14001252479E+03  0.00000000000E+00 0.  1.
          1   -1    0    0  501    0 -0.00000000000E+00 -0.00000000000E+00 -0.64138680288E+02  0.64138680288E+02  0.00000000000E+00 0.  1.
          2    1    1    2  501    0  0.17397520361E+02  0.18025734225E+02  0.85364527082E+01  0.26466428431E+02  0.00000000000E+00 0.  1.
          1    1    1    2  502    0 -0.41885360013E+01 -0.34406734711E+02  0.40141964751E+01  0.34892420389E+02  0.00000000000E+00 0.  1.
         22    1    1    2    0    0 -0.43087687435E+02 -0.41414388998E+02  0.14633946739E+02  0.61529284262E+02  0.00000000000E+00 0.  1.
         22    1    1    2    0    0  0.29878703076E+02  0.57795389483E+02  0.48689248579E+02  0.81263071996E+02  0.00000000000E+00 0.  1.
</event>
<event>
 6    1  0.1715574E-005  0.1156931E+03  0.7818608E-02  0.1359320E+00
          2   -1    0    0  502    0  0.00000000000E+00  0.00000000000E+00  0.28867895250E+03  0.28867895250E+03  0.00000000000E+00 0.  1.
          1   -1    0    0  501    0 -0.00000000000E+00 -0.00000000000E+00 -0.13068729552E+03  0.13068729552E+03  0.00000000000E+00 0. -1.
          2    1    1    2  501    0  0.64951495879E+02 -0.70501526299E+02  0.16749391919E+03  0.19298542689E+03  0.00000000000E+00 0.  1.
          1    1    1    2  502    0 -0.68721342416E+02  0.74410111961E+02 -0.12823893460E+02  0.10209769786E+03  0.00000000000E+00 0. -1.
         22    1    1    2    0    0 -0.87854676187E+01  0.13021269383E+02 -0.57660202297E+02  0.59761499534E+02  0.00000000000E+00 0. -1.
         22    1    1    2    0    0  0.12555314156E+02 -0.16929855045E+02  0.60981833546E+02  0.64521623725E+02  0.00000000000E+00 0.  1.
</event>
<event>
 6    1  0.1715574E-005  0.5112716E+02  0.7818608E-02  0.1507191E+00
          2   -1    0    0  502    0  0.00000000000E+00  0.00000000000E+00  0.56951808981E+03  0.56951808981E+03  0.00000000000E+00 0.  1.
          1   -1    0    0  501    0 -0.00000000000E+00 -0.00000000000E+00 -0.10774206909E+03  0.10774206909E+03  0.00000000000E+00 0.  1.
          2    1    1    2  501    0  0.46999898639E+02 -0.60562562988E+01  0.47821750285E+03  0.48055972443E+03  0.00000000000E+00 0.  1.
          1    1    1    2  502    0 -0.28617192248E+02  0.18712295323E+02 -0.57474050003E+02  0.66875706442E+02  0.00000000000E+00 0.  1.
         22    1    1    2    0    0 -0.35195122820E+01 -0.19101147482E+02  0.82788436943E+02  0.85036263401E+02  0.00000000000E+00 0.  1.
         22    1    1    2    0    0 -0.14863194109E+02  0.64451084583E+01 -0.41755869066E+02  0.44788464626E+02  0.00000000000E+00 0.  1.
</event>
<event>
 6    1  0.1715574E-005  0.1362699E+03  0.7818608E-02  0.1218685E+00
          2   -1    0    0  502    0  0.00000000000E+00  0.00000000000E+00  0.10128216819E+03  0.10128216819E+03  0.00000000000E+00 0. -1.
          1   -1    0    0  501    0 -0.00000000000E+00 -0.00000000000E+00 -0.37759554356E+03  0.37759554356E+03  0.00000000000E+00 0.  1.
          2    1    1    2  501    0 -0.72301182136E+02  0.82282492959E+02  0.18716199385E+02  0.11112230067E+03  0.00000000000E+00 0. -1.
          1    1    1    2  502    0  0.58841430021E+02 -0.58357371065E+02 -0.15304337156E+03  0.17404071427E+03  0.00000000000E+00 0.  1.
         22    1    1    2    0    0 -0.21432382956E+02  0.11149998068E+02  0.15457201739E+02  0.28680909709E+02  0.00000000000E+00 0. -1.
         22    1    1    2    0    0  0.34892135071E+02 -0.35075119962E+02 -0.15744340494E+03  0.16503378711E+03  0.00000000000E+00 0.  1.
</event>
<event>
 6    1  0.1715574E-005  0.9565329E+02  0.7818608E-02  0.1350068E+00
          2   -1    0    0  502    0  0.00000000000E+00  0.00000000000E+00  0.76783526608E+02  0.76783526608E+02  0.00000000000E+00 0. -1.
          1   -1    0    0  501    0 -0.00000000000E+00 -0.00000000000E+00 -0.49556148354E+03  0.49556148354E+03  0.00000000000E+00 0. -1.
          2    1    1    2  501    0  0.22329065369E+02 -0.62213340131E+02  0.46058087172E+02  0.80563231343E+02  0.00000000000E+00 0. -1.
          1    1    1    2  502    0  0.63377408096E+01  0.23363299997E+02 -0.65031592907E+02  0.69391057214E+02  0.00000000000E+00 0. -1.
         22    1    1    2    0    0 -0.14691136962E+02 -0.29000563213E+02 -0.24398857593E+02  0.40646850109E+02  0.00000000000E+00 0.  1.
         22    1    1    2    0    0 -0.13975669216E+02  0.67850603348E+02 -0.37540559361E+03  0.38174387148E+03  0.00000000000E+00 0. -1.
</event>
<event>
 6    1  0.1715574E-005  0.4700996E+02  0.7818608E-02  0.1550948E+00
          2   -1    0    0  502    0  0.00000000000E+00  0.00000000000E+00  0.14833036374E+03  0.14833036374E+03  0.00000000000E+00 0.  1.
          1   -1    0    0  501    0 -0.00000000000E+00 -0.00000000000E+00 -0.24476831072E+03  0.24476831072E+03  0.00000000000E+00 0. -1.
          2    1    1    2  501    0  0.30522233384E+02  0.84754026510E+01  0.75787697015E+02  0.82141428035E+02  0.00000000000E+00 0.  1.
          1    1    1    2  502    0 -0.43605654762E+02 -0.27489393138E+02 -0.18107936947E+03  0.18827335954E+03  0.00000000000E+00 0. -1.
         22    1    1    2    0    0  0.11933018296E+02  0.50460537441E+01  0.64249437111E+02  0.65542732267E+02  0.00000000000E+00 0. -1.
         22    1    1    2    0    0  0.11504030831E+01  0.13967936742E+02 -0.55395711632E+02  0.57141154620E+02  0.00000000000E+00 0. -1.
</event>
<event>
 6    1  0.1715574E-005  0.2732372E+03  0.7818608E-02  0.1104028E+00
          2   -1    0    0  502    0  0.00000000000E+00  0.00000000000E+00  0.29766958060E+03  0.29766958060E+03  0.00000000000E+00 0. -1.
          1   -1    0    0  501    0 -0.00000000000E+00 -0.00000000000E+00 -0.36256590868E+03  0.36256590868E+03  0.00000000000E+00 0. -1.
          2    1    1    2  501    0 -0.56970907204E+02 -0.20977867589E+03 -0.22424671602E+03  0.31231293085E+03  0.00000000000E+00 0. -1.
          1    1    1    2  502    0 -0.24830592465E+02  0.11873431360E+03  0.11208023227E+03  0.16515560546E+03  0.00000000000E+00 0. -1.
         22    1    1    2    0    0 -0.15293293387E+02 -0.17514830227E+02 -0.11218185606E+02  0.25816695931E+02  0.00000000000E+00 0.  1.
         22    1    1    2    0    0  0.97094793055E+02  0.10855919252E+03  0.58488341281E+02  0.15695025704E+03  0.00000000000E+00 0. -1.
</event>
<event>
 6    1  0.1715574E-005  0.1383126E+03  0.7818608E-02  0.1262684E+00
          2   -1    0    0  502    0  0.00000000000E+00  0.00000000000E+00  0.19393379551E+03  0.19393379551E+03  0.00000000000E+00 0. -1.
          1   -1    0    0  501    0 -0.00000000000E+00 -0.00000000000E+00 -0.76771126879E+02  0.76771126879E+02  0.00000000000E+00 0. -1.
          2    1    1    2  501    0  0.10629538984E+02  0.30885759219E+02 -0.12720201418E+02  0.35053113210E+02  0.00000000000E+00 0. -1.
          1    1    1    2  502    0 -0.21133122792E+02  0.26233203361E+02 -0.12601473825E+02  0.35966470220E+02  0.00000000000E+00 0. -1.
         22    1    1    2    0    0  0.99473496152E+01 -0.41503467254E+02  0.16602945440E+03  0.17142714863E+03  0.00000000000E+00 0. -1.
         22    1    1    2    0    0  0.55623419239E+00 -0.15615495326E+02 -0.23545110529E+02  0.28258190328E+02  0.00000000000E+00 0. -1.
</event>
<event>
 6    1  0.1715574E-005  0.8183571E+02  0.7818608E-02  0.1353293E+00
          2   -1    0    0  502    0  0.00000000000E+00  0.00000000000E+00  0.29099273412E+03  0.29099273412E+03  0.00000000000E+00 0.  1.
          1   -1    0    0  501    0 -0.00000000000E+00 -0.00000000000E+00 -0.18888189560E+03  0.18888189560E+03  0.00000000000E+00 0.  1.
          2    1    1    2  501    0 -0.13003437703E+03  0.12280050773E+02 -0.45475967976E+01  0.13069207893E+03  0.00000000000E+00 0.  1.
          1    1    1    2  502    0  0.79893804445E+02  0.62448397843E+02  0.16023142131E+03  0.18962312822E+03  0.00000000000E+00 0.  1.
         22    1    1    2    0    0  0.14083570722E+02 -0.59103833944E+02  0.29588906813E+02  0.67580422887E+02  0.00000000000E+00 0. -1.
         22    1    1    2    0    0  0.36057001867E+02 -0.15624614671E+02 -0.83161892807E+02  0.91978999683E+02  0.00000000000E+00 0.  1.
</event>
<event>
 6    1  0.1715574E-005  0.9084202E+02  0.7818608E-02  0.1413106E+00
          2   -1    0    0  502    0  0.00000000000E+00  0.00000000000E+00  0.45540118371E+02  0.45540118371E+02  0.00000000000E+00 0.  1.
          1   -1    0    0  501    0 -0.00000000000E+00 -0.00000000000E+00 -0.66439521878E+03  0.66439521878E+03  0.00000000000E+00 0.  1.
          2    1    1    2  501    0 -0.59175911087E+02  0.51233375020E+02 -0.13439903093E+03  0.15553053296E+03  0.00000000000E+00 0.  1.
          1    1    1    2  502    0  0.63665408247E+02 -0.34539167486E+02 -0.38834708906E+03  0.39504392145E+03  0.00000000000E+00 0.  1.
         22    1    1    2    0    0  0.86947091869E+01 -0.20030176905E+02 -0.12528356996E+03  0.12717224090E+03  0.00000000000E+00 0. -1.
         22    1    1    2    0    0 -0.13184206347E+02  0.33359693708E+01  0.29174589534E+02  0.32188641834E+02  0.00000000000E+00 0.  1.
</event>
<event>
 6    1  0.1715574E-005  0.1678874E+03  0.7818608E-02  0.1180496E+00
          2   -1    0    0  502    0  0.00000000000E+00  0.00000000000E+00  0.14856544973E+03  0.14856544973E+03  0.00000000000E+00 0. -1.
          1   -1    0    0  501    0 -0.00000000000E+00 -0.00000000000E+00 -0.44316877897E+03  0.44316877897E+03  0.00000000000E+00 0.  1.
          2    1    1    2  501    0  0.73829344912E+02  0.10553855714E+03  0.53479013676E+02  0.13946025999E+03  0.00000000000E+00 0. -1.
          1    1    1    2  502    0 -0.69365281773E+02 -0.99468520281E+02 -0.28374715586E+03  0.30857410342E+03  0.00000000000E+00 0.  1.
         22    1    1    2    0    0 -0.13038047093E+01 -0.44595753517E+02 -0.87796523807E+02  0.98482032529E+02  0.00000000000E+00 0.  1.
         22    1    1    2    0    0 -0.31602584290E+01  0.38525716661E+02  0.23461336748E+02  0.45217832760E+02  0.00000000000E+00 0. -1.
</event>
<event>
 6    1  0.1715574E-005  0.8282611E+02  0.7818608E-02  0.1328730E+00
          2   -1    0    0  502    0  0.00000000000E+00  0.00000000000E+00  0.48997111188E+03  0.48997111188E+03  0.00000000000E+00 0. -1.
          1   -1    0    0  501    0 -0.00000000000E+00 -0.00000000000E+00 -0.20235325131E+02  0.20235325131E+02  0.00000000000E+00 0. -1.
          2    1    1    2  501    0  0.19960736103E+02  0.40837498139E+01  0.17324383869E+03  0.17443777012E+03  0.00000000000E+00 0. -1.
          1    1    1    2  502    0 -0.27885557455E+02  0.10955042676E+02  0.34420078915E+02  0.45632873097E+02  0.00000000000E+00 0. -1.
         22    1    1    2    0    0 -0.30705932539E+02  0.28386632617E+02  0.31506538053E+02  0.52357589178E+02  0.00000000000E+00 0. -1.
         22    1    1    2    0    0  0.38630753892E+02 -0.43425425107E+02  0.23056533109E+03  0.23777820462E+03  0.00000000000E+00 0. -1.
</event>
<event>
 6    1  0.1715574E-005  0.9534078E+02  0.7818608E-02  0.1291006E+00
          2   -1    0    0  502    0  0.00000000000E+00  0.00000000000E+00  0.71767236214E+03  0.71767236214E+03  0.00000000000E+00 0.  1.
          1   -1    0    0  501    0 -0.00000000000E+00 -0.00000000000E+00 -0.22528577125E+03  0.22528577125E+03  0.00000000000E+00 0.  1.
          2    1    1    2  501    0  0.10527735822E+02  0.70420297415E+02  0.56218007404E+03  0.56667123375E+03  0.00000000000E+00 0.  1.
          1    1    1    2  502    0 -0.45609015847E+00 -0.78054198522E+02 -0.18861554165E+03  0.20412860769E+03  0.00000000000E+00 0.  1.
         22    1    1    2    0    0 -0.68527759821E+01  0.22501303313E+02  0.14227377498E+03  0.14420504928E+03  0.00000000000E+00 0.  1.
         22    1    1    2    0    0 -0.32188696810E+01 -0.14867402205E+02 -0.23451716482E+02  0.27953242680E+02  0.00000000000E+00 0. -1.
</event>
<event>
 6    1  0.2439372E-005  0.1158608E+03  0.7818608E-02  0.1250776E+00
          2   -1    0    0  502    0  0.00000000000E+00  0.00000000000E+00  0.25687497777E+03  0.25687497777E+03  0.00000000000E+00 0.  1.
          1   -1    0    0  501    0 -0.00000000000E+00 -0.00000000000E+00 -0.35774074005E+03  0.35774074005E+03  0.00000000000E+00 0.  1.
          2    1    1    2  501    0 -0.57982629832E+02 -0.60208640077E+02  0.15727260970E+03  0.17810597818E+03  0.00000000000E+00 0.  1.
          1    1    1    2  502    0  0.58747801175E+02  0.82795075403E+02 -0.28871027167E+03  0.30603913086E+03  0.00000000000E+00 0.  1.
         22    1    1    2    0    0 -0.10881403157E+02 -0.29755649930E+02  0.76551334806E+02  0.82848720558E+02  0.00000000000E+00 0.  1.
         22    1    1    2    0    0  0.10116231813E+02  0.71692146046E+01 -0.45979435118E+02  0.47621888223E+02  0.00000000000E+00 0. -1.
</event>
<event>
 6    1  0.1715574E-005  0.3899113E+03  0.7818608E-02  0.1058521E+00
          2   -1    0    0  502    0  0.00000000000E+00  0.00000000000E+00  0.56733015340E+03  0.56733015340E+03  0.00000000000E+00 0.  1.
          1   -1    0    0  501    0 -0.00000000000E+00 -0.00000000000E+00 -0.22017785750E+03  0.22017785750E+03  0.00000000000E+00 0.  1.
          2    1    1    2  501    0 -0.22603043223E+03 -0.98077829308E+02  0.10924857267E+02  0.24663407997E+03  0.00000000000E+00 0.  1.
          1    1    1    2  502    0  0.88518224444E+02  0.19489606666E+03  0.17243366094E+03  0.27486964235E+03  0.00000000000E+00 0.  1.
         22    1    1    2    0    0  0.16023172291E+03 -0.72453324904E+02  0.14371490131E+03  0.22710716011E+03  0.00000000000E+00 0.  1.
         22    1    1    2    0    0 -0.22719515126E+02 -0.24364912452E+02  0.20078876381E+02  0.38897128468E+02  0.00000000000E+00 0.  1.
</event>
<event>
 6    1  0.1715574E-005  0.5566761E+02  0.7818608E-02  0.1451703E+00
          2   -1    0    0  502    0  0.00000000000E+00  0.00000000000E+00  0.51106072102E+02  0.51106072102E+02  0.00000000000E+00 0.  1.
          1   -1    0    0  501    0 -0.00000000000E+00 -0.00000000000E+00 -0.33124759079E+03  0.33124759079E+03  0.00000000000E+00 0.  1.
          2    1    1    2  501    0  0.13642586370E+02 -0.17103574935E+02  0.11727942785E+02  0.24823317272E+02  0.00000000000E+00 0.  1.
          1    1    1    2  502    0 -0.33163780076E+02  0.11289544700E+01 -0.18854052584E+03  0.19143834708E+03  0.00000000000E+00 0.  1.
         22    1    1    2    0    0 -0.13722343034E+02  0.29991840667E+02 -0.12135806867E+03  0.12576006534E+03  0.00000000000E+00 0.  1.
         22    1    1    2    0    0  0.33243536740E+02 -0.14017220202E+02  0.18029133038E+02  0.40331933195E+02  0.00000000000E+00 0.  1.
</event>
<event>
 6    1  0.1715574E-005  0.1123019E+03  0.7818608E-02  0.1271893E+00
          2   -1    0    0  502    0  0.00000000000E+00  0.00000000000E+00  0.24533012896E+03  0.24533012896E+03  0.00000000000E+00 0.  1.
          1   -1    0    0  501    0 -0.00000000000E+00 -0.00000000000E+00 -0.93362887517E+02  0.93362887517E+02  0.00000000000E+00 0.  1.
          2    1    1    2  501    0 -0.98293695058E+00  0.36940266525E+02  0.86795367506E+02  0.94334433143E+02  0.00000000000E+00 0.  1.
          1    1    1    2  502    0 -0.50454017558E+02 -0.32629344452E+02 -0.41717048214E+02  0.73147755391E+02  0.00000000000E+00 0.  1.
         22    1    1    2    0    0 -0.22692680561E+02 -0.26545152255E+01 -0.15854600527E+02  0.27809576768E+02  0.00000000000E+00 0. -1.
         22    1    1    2    0    0  0.74129635070E+02 -0.16564068477E+01  0.12274352268E+03  0.14340125118E+03  0.00000000000E+00 0.  1.
</event>
<event>
 6    1  0.1715574E-005  0.4577889E+02  0.7818608E-02  0.1561326E+00
          2   -1    0    0  502    0  0.00000000000E+00  0.00000000000E+00  0.21892822516E+03  0.21892822516E+03  0.00000000000E+00 0. -1.
          1   -1    0    0  501    0 -0.00000000000E+00 -0.00000000000E+00 -0.17616359466E+03  0.17616359466E+03  0.00000000000E+00 0. -1.
          2    1    1    2  501    0  0.15074910802E+02  0.23906294467E+02  0.13604075956E+03  0.13894550051E+03  0.00000000000E+00 0. -1.
          1    1    1    2  502    0 -0.39139743706E+02 -0.17062119864E+02 -0.11943131649E+03  0.12683404444E+03  0.00000000000E+00 0. -1.
         22    1    1    2    0    0  0.71250804584E+01 -0.11226698256E+02 -0.49708856205E+02  0.51456543904E+02  0.00000000000E+00 0. -1.
         22    1    1    2    0    0  0.16939752445E+02  0.43825236523E+01  0.75864043644E+02  0.77855730967E+02  0.00000000000E+00 0. -1.
</event>
<event>
 6    1  0.1715574E-005  0.2577277E+03  0.7818608E-02  0.1110807E+00
          2   -1    0    0  502    0  0.00000000000E+00  0.00000000000E+00  0.17907332384E+04  0.17907332384E+04  0.00000000000E+00 0. -1.
          1   -1    0    0  501    0 -0.00000000000E+00 -0.00000000000E+00 -0.50703459183E+02  0.50703459183E+02  0.00000000000E+00 0. -1.
          2    1    1    2  501    0  0.13059229594E+03 -0.13687893005E+03  0.24787959075E+03  0.31182443900E+03  0.00000000000E+00 0. -1.
          1    1    1    2  502    0 -0.10954077167E+03  0.12261133197E+03  0.11750669684E+04  0.11865138430E+04  0.00000000000E+00 0. -1.
         22    1    1    2    0    0 -0.73682044693E+02  0.11911671001E+02  0.22441218943E+03  0.23649896909E+03  0.00000000000E+00 0. -1.
         22    1    1    2    0    0  0.52630520431E+02  0.23559270782E+01  0.92671030616E+02  0.10659944647E+03  0.00000000000E+00 0.  1.
</event>
<event>
 6    1  0.1715574E-005  0.1167566E+03  0.7818608E-02  0.1282544E+00
          2   -1    0    0  502    0  0.00000000000E+00  0.00000000000E+00  0.19068070851E+03  0.19068070851E+03  0.00000000000E+00 0.  1.
          1   -1    0    0  501    0 -0.00000000000E+00 -0.00000000000E+00 -0.84618220165E+02  0.84618220165E+02  0.00000000000E+00 0. -1.
          2    1    1    2  501    0 -0.26805927068E+02  0.32285484728E+02  0.82857600221E+02  0.92877834624E+02  0.00000000000E+00 0.  1.
          1    1    1    2  502    0 -0.13651621036E+02 -0.42698823487E+02  0.20666801439E+02  0.49362667734E+02  0.00000000000E+00 0. -1.
         22    1    1    2    0    0 -0.57362286856E+01  0.15449230731E+02  0.58235712389E+02  0.60522568081E+02  0.00000000000E+00 0.  1.
         22    1    1    2    0    0  0.46193776790E+02 -0.50358919714E+01 -0.55697625699E+02  0.72535858240E+02  0.00000000000E+00 0. -1.
</event>
<event>
 6    1  0.1715574E-005  0.1069903E+03  0.7818608E-02  0.1282529E+00
          2   -1    0    0  502    0  0.00000000000E+00  0.00000000000E+00  0.33639392202E+02  0.33639392202E+02  0.00000000000E+00 0. -1.
          1   -1    0    0  501    0 -0.00000000000E+00 -0.00000000000E+00 -0.36817493776E+03  0.36817493776E+03  0.00000000000E+00 0.  1.
          2    1    1    2  501    0 -0.19362409371E+02  0.34620226585E+02 -0.16836917746E+02  0.43092282194E+02  0.00000000000E+00 0. -1.
          1    1    1    2  502    0 -0.19573360044E+02 -0.23881232244E+02 -0.80291910988E+02  0.86024535146E+02  0.00000000000E+00 0.  1.
         22    1    1    2    0    0 -0.18555245303E+02 -0.42091526725E+02 -0.17944143946E+03  0.18524368801E+03  0.00000000000E+00 0.  1.
         22    1    1    2    0    0  0.57491014719E+02  0.31352532384E+02 -0.57965277361E+02  0.87453824615E+02  0.00000000000E+00 0. -1.
</event>
<event>
 6    1  0.1715574E-005  0.1333089E+03  0.7818608E-02  0.1222962E+00
          2   -1    0    0  502    0  0.00000000000E+00  0.00000000000E+00  0.10304912735E+03  0.10304912735E+03  0.00000000000E+00 0.  1.
          1   -1    0    0  501    0 -0.00000000000E+00 -0.00000000000E+00 -0.50335105221E+03  0.50335105221E+03  0.00000000000E+00 0. -1.
          2    1    1    2  501    0 -0.88059988398E+01 -0.91749844557E+02  0.30747637886E+02  0.97164792119E+02  0.00000000000E+00 0.  1.
          1    1    1    2  502    0  0.28953299785E+01  0.10678990259E+03 -0.34346896962E+03  0.35969903992E+03  0.00000000000E+00 0. -1.
         22    1    1    2    0    0 -0.78482357458E+01  0.23712110676E+02 -0.10272206354E+03  0.10571509512E+03  0.00000000000E+00 0. -1.
         22    1    1    2    0    0  0.13758904607E+02 -0.38752168711E+02  0.15141470417E+02  0.43821252403E+02  0.00000000000E+00 0.  1.
</event>
<event>
 6    1  0.1715574E-005  0.1755353E+03  0.7818608E-02  0.1172306E+00
          2   -1    0    0  502    0  0.00000000000E+00  0.00000000000E+00  0.50320193458E+03  0.50320193458E+03  0.00000000000E+00 0.  1.
          1   -1    0    0  501    0 -0.00000000000E+00 -0.00000000000E+00 -0.14743724587E+03  0.14743724587E+03  0.00000000000E+00 0. -1.
          2    1    1    2  501    0 -0.87053397068E+02  0.98169802756E+02  0.34227516370E+03  0.36656226184E+03  0.00000000000E+00 0.  1.
          1    1    1    2  502    0  0.96647273958E+02 -0.10138837742E+03 -0.47183874814E+02  0.14780601030E+03  0.00000000000E+00 0. -1.
         22    1    1    2    0    0 -0.43087833402E+02  0.32869493887E+01  0.84675477698E+02  0.95064725040E+02  0.00000000000E+00 0.  1.
         22    1    1    2    0    0  0.33493956512E+02 -0.68374722037E-01 -0.24002077876E+02  0.41206183277E+02  0.00000000000E+00 0. -1.
</event>
<event>
 6    1  0.1715574E-005  0.6618331E+02  0.7818608E-02  0.1486867E+00
          2   -1    0    0  502    0  0.00000000000E+00  0.00000000000E+00  0.34463259315E+03  0.34463259315E+03  0.00000000000E+00 0.  1.
          1   -1    0    0  501    0 -0.00000000000E+00 -0.00000000000E+00 -0.93527067516E+03  0.93527067516E+03  0.00000000000E+00 0. -1.
          2    1    1    2  501    0 -0.46367644048E+02 -0.55148537682E+01  0.26351565143E+03  0.26762075887E+03  0.00000000000E+00 0.  1.
          1    1    1    2  502    0  0.62058153714E+02  0.28506735407E+02 -0.87922258105E+03  0.88187084963E+03  0.00000000000E+00 0. -1.
         22    1    1    2    0    0 -0.60180947262E+00 -0.11837539645E+02 -0.50847530224E+02  0.52210735001E+02  0.00000000000E+00 0.  1.
         22    1    1    2    0    0 -0.15088700193E+02 -0.11154341994E+02  0.75916377830E+02  0.78200924814E+02  0.00000000000E+00 0.  1.
</event>
<event>
 6    1  0.1715574E-005  0.1169709E+03  0.7818608E-02  0.1323870E+00
          2   -1    0    0  502    0  0.00000000000E+00  0.00000000000E+00  0.35615492516E+03  0.35615492516E+03  0.00000000000E+00 0. -1.
          1   -1    0    0  501    0 -0.00000000000E+00 -0.00000000000E+00 -0.47066907282E+03  0.47066907282E+03  0.00000000000E+00 0. -1.
          2    1    1    2  501    0 -0.13310712553E+03  0.39952180332E+02  0.15687052862E+03  0.20957587249E+03  0.00000000000E+00 0. -1.
          1    1    1    2  502    0  0.94080141363E+02 -0.42619781027E+02 -0.41036266227E+03  0.42316076533E+03  0.00000000000E+00 0. -1.
         22    1    1    2    0    0  0.27832575171E+02  0.34839585299E+01  0.16414841734E+03  0.16652775481E+03  0.00000000000E+00 0. -1.
         22    1    1    2    0    0  0.11194409000E+02 -0.81635783552E+00 -0.25170431344E+02  0.27559605349E+02  0.00000000000E+00 0. -1.
</event>
<event>
 6    1  0.1715574E-005  0.8357261E+02  0.7818608E-02  0.1355987E+00
          2   -1    0    0  502    0  0.00000000000E+00  0.00000000000E+00  0.93919166561E+02  0.93919166561E+02  0.00000000000E+00 0.  1.
          1   -1    0    0  501    0 -0.00000000000E+00 -0.00000000000E+00 -0.14391292193E+03  0.14391292193E+03  0.00000000000E+00 0.  1.
          2    1    1    2  501    0  0.23380717320E+02 -0.53195182532E+01  0.42518994408E+02  0.48814138344E+02  0.00000000000E+00 0.  1.
          1    1    1    2  502    0 -0.11845028449E+02 -0.27849538181E+02 -0.16065493224E+02  0.34263705993E+02  0.00000000000E+00 0.  1.
         22    1    1    2    0    0  0.18814409182E+02  0.70040310117E+01  0.32762905731E+02  0.38424555108E+02  0.00000000000E+00 0. -1.
         22    1    1    2    0    0 -0.30350098054E+02  0.26165025423E+02 -0.10921016229E+03  0.11632968905E+03  0.00000000000E+00 0.  1.
</event>
<event>
 6    1  0.1715574E-005  0.1252138E+03  0.7818608E-02  0.1237093E+00
          2   -1    0    0  502    0  0.00000000000E+00  0.00000000000E+00  0.92854921846E+02  0.92854921846E+02  0.00000000000E+00 0. -1.
          1   -1    0    0  501    0 -0.00000000000E+00 -0.00000000000E+00 -0.34757102934E+03  0.34757102934E+03  0.00000000000E+00 0.  1.
          2    1    1    2  501    0 -0.56945840988E+02 -0.79440847120E+02  0.20180749756E+02  0.99804507201E+02  0.00000000000E+00 0. -1.
          1    1    1    2  502    0  0.29856062791E+02  0.64781475415E+02 -0.12098621928E+03  0.14044817300E+03  0.00000000000E+00 0.  1.
         22    1    1    2    0    0  0.33461830776E+02  0.32991948932E+02 -0.16911263530E+03  0.17551993115E+03  0.00000000000E+00 0.  1.
         22    1    1    2    0    0 -0.63720525786E+01 -0.18332577227E+02  0.15201997336E+02  0.24653339832E+02  0.00000000000E+00 0. -1.
</event>
<event>
 6    1  0.1715574E-005  0.1926583E+03  0.7818608E-02  0.1164798E+00
          2   -1    0    0  502    0  0.00000000000E+00  0.00000000000E+00  0.43429023192E+02  0.43429023192E+02  0.00000000000E+00 0.  1.
          1   -1    0    0  501    0 -0.00000000000E+00 -0.00000000000E+00 -0.71004786588E+03  0.71004786588E+03  0.00000000000E+00 0.  1.
          2    1    1    2  501    0  0.10158600513E+03 -0.17552028761E+02 -0.32002140339E+03  0.33621643145E+03  0.00000000000E+00 0.  1.
          1    1    1    2  502    0 -0.83495020495E+02  0.41512042946E+01 -0.21667890571E+03  0.23224641897E+03  0.00000000000E+00 0.  1.
         22    1    1    2    0    0 -0.50540142266E+02  0.48983483328E+02 -0.11458585187E+03  0.13447529538E+03  0.00000000000E+00 0. -1.
         22    1    1    2    0    0  0.32449157628E+02 -0.35582658862E+02 -0.15332681722E+02  0.50538743269E+02  0.00000000000E+00 0.  1.
</event>
<event>
 6    1  0.1715574E-005  0.8720017E+02  0.7818608E-02  0.1312898E+00
          2   -1    0    0  502    0  0.00000000000E+00  0.00000000000E+00  0.22815505163E+03  0.22815505163E+03  0.00000000000E+00 0. -1.
          1   -1    0    0  501    0 -0.00000000000E+00 -0.00000000000E+00 -0.66414906595E+02  0.66414906595E+02  0.00000000000E+00 0. -1.
          2    1    1    2  501    0  0.14822182266E+02 -0.14093616701E+02 -0.86045120103E+01  0.22189293494E+02  0.00000000000E+00 0. -1.
          1    1    1    2  502    0  0.47874462422E+01  0.53298732516E+02  0.11652615802E+03  0.12822644045E+03  0.00000000000E+00 0. -1.
         22    1    1    2    0    0 -0.10732922248E+02  0.26725260042E+02  0.69996751001E+02  0.75690027712E+02  0.00000000000E+00 0. -1.
         22    1    1    2    0    0 -0.88767062599E+01 -0.65930375857E+02 -0.16178251971E+02  0.68464196567E+02  0.00000000000E+00 0. -1.
</event>
<event>
 6    1  0.1715574E-005  0.7357712E+02  0.7818608E-02  0.1424190E+00
          2   -1    0    0  502    0  0.00000000000E+00  0.00000000000E+00  0.19380875784E+03  0.19380875784E+03  0.00000000000E+00 0.  1.
          1   -1    0    0  501    0 -0.00000000000E+00 -0.00000000000E+00 -0.62051139031E+03  0.62051139031E+03  0.00000000000E+00 0. -1.
          2    1    1    2  501    0 -0.31653886066E+02 -0.94954722604E+02  0.14730171875E+03  0.17809032595E+03  0.00000000000E+00 0.  1.
          1    1    1    2  502    0  0.41254652982E+02  0.58493400586E+02 -0.45642856306E+03  0.46200698857E+03  0.00000000000E+00 0. -1.
         22    1    1    2    0    0 -0.19688932340E+02  0.47527158686E+02 -0.13892602217E+03  0.14814494424E+03  0.00000000000E+00 0. -1.
         22    1    1    2    0    0  0.10088165424E+02 -0.11065836667E+02  0.21350234014E+02  0.26077889393E+02  0.00000000000E+00 0.  1.
</event>
<event>
 6    1  0.1715574E-005  0.6863120E+02  0.7818608E-02  0.1365014E+00
          2   -1    0    0  502    0  0.00000000000E+00  0.00000000000E+00  0.20902288272E+03  0.20902288272E+03  0.00000000000E+00 0.  1.
          1   -1    0    0  501    0 -0.00000000000E+00 -0.00000000000E+00 -0.14802571880E+03  0.14802571880E+03  0.00000000000E+00 0.  1.
          2    1    1    2  501    0  0.31586546877E+02  0.21957063987E+02  0.91371969753E+02  0.99139595818E+02  0.00000000000E+00 0.  1.
          1    1    1    2  502    0 -0.50036206658E+02 -0.20042235406E+02 -0.99621895887E+02  0.11326886296E+03  0.00000000000E+00 0.  1.
         22    1    1    2    0    0 -0.90330535418E+01 -0.10906755196E+02 -0.34312053940E+02  0.37119676868E+02  0.00000000000E+00 0.  1.
         22    1    1    2    0    0  0.27482713322E+02  0.89919266149E+01  0.10355914399E+03  0.10752046587E+03  0.00000000000E+00 0.  1.
</event>
<event>
 6    1  0.1715574E-005  0.7711096E+02  0.7818608E-02  0.1338537E+00
          2   -1    0    0  502    0  0.00000000000E+00  0.00000000000E+00  0.23183089535E+04  0.23183089535E+04  0.00000000000E+00 0.  1.
          1   -1    0    0  501    0 -0.00000000000E+00 -0.00000000000E+00 -0.42578633195E+03  0.42578633195E+03  0.00000000000E+00 0.  1.
          2    1    1    2  501    0 -0.13739956498E+03  0.73474488109E+02  0.21093610577E+04  0.21151078490E+04  0.00000000000E+00 0.  1.
          1    1    1    2  502    0  0.18779045077E+03 -0.43589281237E+02 -0.37170738864E+03  0.41872623707E+03  0.00000000000E+00 0.  1.
         22    1    1    2    0    0 -0.31751521849E+02 -0.33419300481E+01  0.17105751445E+03  0.17401149642E+03  0.00000000000E+00 0.  1.
         22    1    1    2    0    0 -0.18639363940E+02 -0.26543276824E+02 -0.16188561953E+02  0.36249703043E+02  0.00000000000E+00 0. -1.
</event>
<event>
 6    1  0.1715574E-005  0.6665778E+02  0.7818608E-02  0.1389770E+00
          2   -1    0    0  502    0  0.00000000000E+00  0.00000000000E+00  0.19175850800E+03  0.19175850800E+03  0.00000000000E+00 0.  1.
          1   -1    0    0  501    0 -0.00000000000E+00 -0.00000000000E+00 -0.57613701838E+02  0.57613701838E+02  0.00000000000E+00 0. -1.
          2    1    1    2  501    0 -0.23314854903E+02 -0.24089899117E+02  0.90770861385E+02  0.96763913600E+02  0.00000000000E+00 0.  1.
          1    1    1    2  502    0  0.21297883192E+02  0.15807362300E+01  0.48454759537E+01  0.21899250962E+02  0.00000000000E+00 0. -1.
         22    1    1    2    0    0 -0.47291497290E+01 -0.13043358521E+02  0.76797191718E+02  0.78040391557E+02  0.00000000000E+00 0.  1.
         22    1    1    2    0    0  0.67461214397E+01  0.35552521409E+02 -0.38268722892E+02  0.52668653721E+02  0.00000000000E+00 0. -1.
</event>
<event>
 6    1  0.1715574E-005  0.6210363E+02  0.7818608E-02  0.1389805E+00
          2   -1    0    0  502    0  0.00000000000E+00  0.00000000000E+00  0.14641575353E+03  0.14641575353E+03  0.00000000000E+00 0. -1.
          1   -1    0    0  501    0 -0.00000000000E+00 -0.00000000000E+00 -0.20959554200E+03  0.20959554200E+03  0.00000000000E+00 0. -1.
          2    1    1    2  501    0  0.47648516831E+01 -0.49031342724E+02  0.98126207456E+02  0.10979767288E+03  0.00000000000E+00 0. -1.
          1    1    1    2  502    0  0.73770467576E+01  0.29492104980E+02 -0.10124654885E+03  0.10571219764E+03  0.00000000000E+00 0. -1.
         22    1    1    2    0    0 -0.89805782993E+01  0.30352304258E+02 -0.96919944403E+02  0.10195777942E+03  0.00000000000E+00 0. -1.
         22    1    1    2    0    0 -0.31613201415E+01 -0.10813066514E+02  0.36860497325E+02  0.38543645592E+02  0.00000000000E+00 0. -1.
</event>
<event>
 6    1  0.1715574E-005  0.7238702E+02  0.7818608E-02  0.1382829E+00
          2   -1    0    0  502    0  0.00000000000E+00  0.00000000000E+00  0.91930990592E+03  0.91930990592E+03  0.00000000000E+00 0.  1.
          1   -1    0    0  501    0 -0.00000000000E+00 -0.00000000000E+00 -0.38154665959E+02  0.38154665959E+02  0.00000000000E+00 0.  1.
          2    1    1    2  501    0 -0.29476396408E+02  0.50120870354E+02  0.63971231852E+03  0.64234944544E+03  0.00000000000E+00 0.  1.
          1    1    1    2  502    0  0.32598183180E+02 -0.16091810146E+02 -0.64683284783E+01  0.36924614740E+02  0.00000000000E+00 0.  1.
         22    1    1    2    0    0 -0.36807290455E+02 -0.23145463861E+02  0.23727674852E+03  0.24122757827E+03  0.00000000000E+00 0.  1.
         22    1    1    2    0    0  0.33685503683E+02 -0.10883596347E+02  0.10634501398E+02  0.36962933431E+02  0.00000000000E+00 0.  1.
</event>
<event>
 6    1  0.1715574E-005  0.1310078E+03  0.7818608E-02  0.1228128E+00
          2   -1    0    0  502    0  0.00000000000E+00  0.00000000000E+00  0.21361888210E+02  0.21361888210E+02  0.00000000000E+00 0. -1.
          1   -1    0    0  501    0 -0.00000000000E+00 -0.00000000000E+00 -0.99647733861E+03  0.99647733861E+03  0.00000000000E+00 0. -1.
          2    1    1    2  501    0 -0.20727680591E+02  0.86658110506E+02 -0.18853142262E+03  0.20852664620E+03  0.00000000000E+00 0. -1.
          1    1    1    2  502    0 -0.64150605682E+01 -0.56736257653E+02 -0.32362703939E+03  0.32862534376E+03  0.00000000000E+00 0. -1.
         22    1    1    2    0    0  0.41207014310E+02 -0.61355801401E+02 -0.41567055286E+03  0.42219019519E+03  0.00000000000E+00 0. -1.
         22    1    1    2    0    0 -0.14064273150E+02  0.31433948548E+02 -0.47286435527E+02  0.58497041681E+02  0.00000000000E+00 0.  1.
</event>
<event>
 6    1  0.1715574E-005  0.4760778E+02  0.7818608E-02  0.1485737E+00
          2   -1    0    0  502    0  0.00000000000E+00  0.00000000000E+00  0.77854995575E+02  0.77854995575E+02  0.00000000000E+00 0. -1.
          1   -1    0    0  501    0 -0.00000000000E+00 -0.00000000000E+00 -0.35904395092E+03  0.35904395092E+03  0.00000000000E+00 0. -1.
          2    1    1    2  501    0 -0.50257261540E+02  0.15649467187E+02  0.35380608373E+02  0.63423068434E+02  0.00000000000E+00 0. -1.
          1    1    1    2  502    0  0.19867710938E+02  0.10574609524E+02 -0.18547327688E+03  0.18683384260E+03  0.00000000000E+00 0. -1.
         22    1    1    2    0    0  0.24048868429E+02  0.55005610010E+01 -0.14806762895E+03  0.15010871722E+03  0.00000000000E+00 0. -1.
         22    1    1    2    0    0  0.63406821734E+01 -0.31724637713E+02  0.16971342110E+02  0.36533318237E+02  0.00000000000E+00 0. -1.
</event>
<event>
 6    1  0.1715574E-005  0.8239125E+02  0.7818608E-02  0.1324268E+00
          2   -1    0    0  502    0  0.00000000000E+00  0.00000000000E+00  0.44500384237E+03  0.44500384237E+03  0.00000000000E+00 0.  1.
          1   -1    0    0  501    0 -0.00000000000E+00 -0.00000000000E+00 -0.38469009127E+02  0.38469009127E+02  0.00000000000E+00 0.  1.
          2    1    1    2  501    0 -0.30057113210E+02 -0.23701824017E+02  0.15053285744E+03  0.15532336491E+03  0.00000000000E+00 0.  1.
          1    1    1    2  502    0  0.23772737701E+02  0.49152907001E+02  0.14690192143E+02  0.56541604767E+02  0.00000000000E+00 0.  1.
         22    1    1    2    0    0  0.18135613220E+02  0.15654777111E+02 -0.24848883444E+01  0.24086244691E+02  0.00000000000E+00 0.  1.
         22    1    1    2    0    0 -0.11851237711E+02 -0.41105860095E+02  0.24379667201E+03  0.24752163714E+03  0.00000000000E+00 0.  1.
</event>
<event>
 6    1  0.1715574E-005  0.5007849E+02  0.7818608E-02  0.1473506E+00
          2   -1    0    0  502    0  0.00000000000E+00  0.00000000000E+00  0.13708103345E+03  0.13708103345E+03  0.00000000000E+00 0.  1.
          1   -1    0    0  501    0 -0.00000000000E+00 -0.00000000000E+00 -0.12430430576E+03  0.12430430576E+03  0.00000000000E+00 0. -1.
          2    1    1    2  501    0 -0.10382783403E+02  0.37511420109E+02  0.35784013409E+02  0.52871584480E+02  0.00000000000E+00 0.  1.
          1    1    1    2  502    0 -0.12460573771E+02 -0.36713365849E+02 -0.67758147796E+02  0.78066021568E+02  0.00000000000E+00 0. -1.
         22    1    1    2    0    0 -0.95420886237E+01 -0.73514287817E+01 -0.38786103857E+02  0.40613505301E+02  0.00000000000E+00 0. -1.
         22    1    1    2    0    0  0.32385445798E+02  0.65533745223E+01  0.83536965938E+02  0.89834227860E+02  0.00000000000E+00 0.  1.
</event>
<event>
 6    1  0.1715574E-005  0.7418018E+02  0.7818608E-02  0.1347926E+00
          2   -1    0    0  502    0  0.00000000000E+00  0.00000000000E+00  0.75693610031E+02  0.75693610031E+02  0.00000000000E+00 0.  1.
          1   -1    0    0  501    0 -0.00000000000E+00 -0.00000000000E+00 -0.14917686647E+03  0.14917686647E+03  0.00000000000E+00 0.  1.
          2    1    1    2  501    0 -0.15919501161E+02 -0.25968643271E+02  0.55788562390E+01  0.30966507512E+02  0.00000000000E+00 0.  1.
          1    1    1    2  502    0  0.13580793421E+02  0.33820048068E+02 -0.58614735189E+02  0.69021161845E+02  0.00000000000E+00 0.  1.
         22    1    1    2    0    0 -0.35140720587E+02 -0.12225689713E+02  0.39362857352E+02  0.54164308093E+02  0.00000000000E+00 0.  1.
         22    1    1    2    0    0  0.37479428327E+02  0.43742849160E+01 -0.59810234840E+02  0.70718499050E+02  0.00000000000E+00 0.  1.
</event>
<event>
 6    1  0.1715574E-005  0.3006695E+02  0.7818608E-02  0.1667583E+00
          2   -1    0    0  502    0  0.00000000000E+00  0.00000000000E+00  0.34494053529E+03  0.34494053529E+03  0.00000000000E+00 0. -1.
          1   -1    0    0  501    0 -0.00000000000E+00 -0.00000000000E+00 -0.12462251250E+03  0.12462251250E+03  0.00000000000E+00 0. -1.
          2    1    1    2  501    0 -0.21741694610E+02 -0.11491373768E+02  0.29125998654E+03  0.29229630979E+03  0.00000000000E+00 0. -1.
          1    1    1    2  502    0  0.31533030017E+02 -0.15914860593E+02 -0.16493724348E+02  0.38982787390E+02  0.00000000000E+00 0. -1.
         22    1    1    2    0    0  0.19729825731E+01  0.26484686960E+02 -0.93650874377E+02  0.97343811181E+02  0.00000000000E+00 0. -1.
         22    1    1    2    0    0 -0.11764317981E+02  0.92154740117E+00  0.39202634984E+02  0.40940139434E+02  0.00000000000E+00 0. -1.
</event>
<event>
 6    1  0.1715574E-005  0.3934505E+02  0.7818608E-02  0.1572935E+00
          2   -1    0    0  502    0  0.00000000000E+00  0.00000000000E+00  0.86316595443E+02  0.86316595443E+02  0.00000000000E+00 0.  1.
          1   -1    0    0  501    0 -0.00000000000E+00 -0.00000000000E+00 -0.12782676376E+03  0.12782676376E+03  0.00000000000E+00 0.  1.
          2    1    1    2  501    0  0.95147162481E+01 -0.20719720153E+02  0.12480621814E+02  0.25992355594E+02  0.00000000000E+00 0.  1.
          1    1    1    2  502    0 -0.13433974106E+02  0.19443260150E+02 -0.55256529160E+02  0.60098219943E+02  0.00000000000E+00 0.  1.
         22    1    1    2    0    0  0.82740999478E+01 -0.16101731391E+02  0.62074171467E+02  0.64660105529E+02  0.00000000000E+00 0.  1.
         22    1    1    2    0    0 -0.43548420903E+01  0.17378191394E+02 -0.60808432443E+02  0.63392678141E+02  0.00000000000E+00 0.  1.
</event>
<event>
 6    1  0.1715574E-005  0.4851386E+02  0.7818608E-02  0.1458410E+00
          2   -1    0    0  502    0  0.00000000000E+00  0.00000000000E+00  0.22127072906E+03  0.22127072906E+03  0.00000000000E+00 0.  1.
          1   -1    0    0  501    0 -0.00000000000E+00 -0.00000000000E+00 -0.10491615894E+03  0.10491615894E+03  0.00000000000E+00 0.  1.
          2    1    1    2  501    0  0.22479416207E+02  0.67227032124E+01  0.13229797725E+03  0.13436247123E+03  0.00000000000E+00 0.  1.
          1    1    1    2  502    0 -0.17768188861E+02 -0.18525708258E+02 -0.53782654125E+02  0.59594330994E+02  0.00000000000E+00 0.  1.
         22    1    1    2    0    0 -0.22762107199E+02  0.11725429481E+01 -0.43028913614E+02  0.48692666675E+02  0.00000000000E+00 0. -1.
         22    1    1    2    0    0  0.18050879853E+02  0.10630462097E+02  0.80868160617E+02  0.83537419098E+02  0.00000000000E+00 0. -1.
</event>
<event>
 6    1  0.1715574E-005  0.3049477E+03  0.7818608E-02  0.1110431E+00
          2   -1    0    0  502    0  0.00000000000E+00  0.00000000000E+00  0.69225675963E+03  0.69225675963E+03  0.00000000000E+00 0. -1.
          1   -1    0    0  501    0 -0.00000000000E+00 -0.00000000000E+00 -0.78814247029E+02  0.78814247029E+02  0.00000000000E+00 0. -1.
          2    1    1    2  501    0 -0.22480273567E+02 -0.77193038063E+02  0.18270840850E+03  0.19961585699E+03  0.00000000000E+00 0. -1.
          1    1    1    2  502    0  0.32900636367E+01 -0.12922769488E+03  0.12100270774E+03  0.17706574181E+03  0.00000000000E+00 0. -1.
         22    1    1    2    0    0  0.18497788208E+02  0.21882420522E+03  0.31222320683E+03  0.38171917929E+03  0.00000000000E+00 0. -1.
         22    1    1    2    0    0  0.69242172167E+00 -0.12403472281E+02 -0.24918104655E+01  0.12670228564E+02  0.00000000000E+00 0.  1.
</event>
<event>
 6    1  0.1715574E-005  0.5167497E+02  0.7818608E-02  0.1515197E+00
          2   -1    0    0  502    0  0.00000000000E+00  0.00000000000E+00  0.23214059395E+03  0.23214059395E+03  0.00000000000E+00 0. -1.
          1   -1    0    0  501    0 -0.00000000000E+00 -0.00000000000E+00 -0.11275165162E+03  0.11275165162E+03  0.00000000000E+00 0.  1.
          2    1    1    2  501    0 -0.11587745949E+02 -0.19264262810E+02  0.12319682147E+03  0.12523116425E+03  0.00000000000E+00 0. -1.
          1    1    1    2  502    0  0.80069396432E+01  0.61255263254E+02 -0.54236362316E+02  0.82206455684E+02  0.00000000000E+00 0.  1.
         22    1    1    2    0    0 -0.13298322554E+02 -0.41825619095E+02 -0.31360637781E+02  0.53941796387E+02  0.00000000000E+00 0.  1.
         22    1    1    2    0    0  0.16879128860E+02 -0.16538134969E+00  0.81789120958E+02  0.83512829249E+02  0.00000000000E+00 0. -1.
</event>
<event>
 6    1  0.1715574E-005  0.6309211E+02  0.7818608E-02  0.1388332E+00
          2   -1    0    0  502    0  0.00000000000E+00  0.00000000000E+00  0.34451053430E+03  0.34451053430E+03  0.00000000000E+00 0.  1.
          1   -1    0    0  501    0 -0.00000000000E+00 -0.00000000000E+00 -0.15041952584E+03  0.15041952584E+03  0.00000000000E+00 0. -1.
          2    1    1    2  501    0  0.39993716626E+02 -0.28880220483E+02  0.28892924477E+03  0.29311034269E+03  0.00000000000E+00 0.  1.
          1    1    1    2  502    0 -0.23072204045E+02  0.25848951343E+02 -0.56933112159E+02  0.66647386634E+02  0.00000000000E+00 0. -1.
         22    1    1    2    0    0 -0.22486490355E+02  0.11840029055E+02 -0.84079920460E+02  0.87836561642E+02  0.00000000000E+00 0. -1.
         22    1    1    2    0    0  0.55649777746E+01 -0.88087599147E+01  0.46174796312E+02  0.47335769174E+02  0.00000000000E+00 0.  1.
</event>
<event>
 6    1  0.1934268E-005  0.1697755E+03  0.7818608E-02  0.1274911E+00
          2   -1    0    0  502    0  0.00000000000E+00  0.00000000000E+00  0.64680370052E+03  0.64680370052E+03  0.00000000000E+00 0.  1.
          1   -1    0    0  501    0 -0.00000000000E+00 -0.00000000000E+00 -0.90780828271E+03  0.90780828271E+03  0.00000000000E+00 0. -1.
          2    1    1    2  501    0 -0.14859808777E+03  0.12073469928E+02  0.56300692359E+03  0.58241218769E+03  0.00000000000E+00 0.  1.
          1    1    1    2  502    0  0.18167337659E+03  0.13525653898E+02 -0.81973218687E+03  0.83973151499E+03  0.00000000000E+00 0. -1.
         22    1    1    2    0    0 -0.18175155689E+02 -0.85413600622E+01  0.60551622726E+02  0.63794906777E+02  0.00000000000E+00 0. -1.
         22    1    1    2    0    0 -0.14900133135E+02 -0.17057763763E+02 -0.64830941638E+02  0.68673373775E+02  0.00000000000E+00 0. -1.
</event>
<event>
 6    1  0.1715574E-005  0.6202631E+02  0.7818608E-02  0.1394364E+00
          2   -1    0    0  502    0  0.00000000000E+00  0.00000000000E+00  0.28874110518E+03  0.28874110518E+03  0.00000000000E+00 0.  1.
          1   -1    0    0  501    0 -0.00000000000E+00 -0.00000000000E+00 -0.10567019456E+03  0.10567019456E+03  0.00000000000E+00 0.  1.
          2    1    1    2  501    0 -0.91194196926E+02  0.46036046191E+02  0.42797257311E+01  0.10224487838E+03  0.00000000000E+00 0.  1.
          1    1    1    2  502    0  0.95088166746E+02 -0.44215405148E+02  0.71284678368E+02  0.12680010598E+03  0.00000000000E+00 0.  1.
         22    1    1    2    0    0 -0.11192053875E+02  0.38501661324E+02  0.11667802512E+03  0.12337504424E+03  0.00000000000E+00 0. -1.
         22    1    1    2    0    0  0.72980840554E+01 -0.40322302368E+02 -0.91715185926E+01  0.41991271145E+02  0.00000000000E+00 0.  1.
</event>
<event>
 6    1  0.1715574E-005  0.5062813E+02  0.7818608E-02  0.1443031E+00
          2   -1    0    0  502    0  0.00000000000E+00  0.00000000000E+00  0.20145900075E+03  0.20145900075E+03  0.00000000000E+00 0.  1.
          1   -1    0    0  501    0 -0.00000000000E+00 -0.00000000000E+00 -0.17484628098E+03  0.17484628098E+03  0.00000000000E+00 0.  1.
          2    1    1    2  501    0  0.30550067692E+02  0.87238564960E+01  0.10437974174E+03  0.10910794102E+03  0.00000000000E+00 0.  1.
          1    1    1    2  502    0 -0.33700545574E+02 -0.39102660517E+01 -0.12592012539E+03  0.13041048628E+03  0.00000000000E+00 0.  1.
         22    1    1    2    0    0 -0.13008724593E+02 -0.94717789630E+01 -0.42052947028E+02  0.45026568446E+02  0.00000000000E+00 0.  1.
         22    1    1    2    0    0  0.16159202475E+02  0.46581885187E+01  0.90206050452E+02  0.91760285980E+02  0.00000000000E+00 0.  1.
</event>
<event>
 6    1  0.1715574E-005  0.5325767E+02  0.7818608E-02  0.1483292E+00
          2   -1    0    0  502    0  0.00000000000E+00  0.00000000000E+00  0.15503000669E+03  0.15503000669E+03  0.00000000000E+00 0. -1.
          1   -1    0    0  501    0 -0.00000000000E+00 -0.00000000000E+00 -0.76047481526E+02  0.76047481526E+02  0.00000000000E+00 0. -1.
          2    1    1    2  501    0  0.24027513613E+02 -0.26469439361E+02  0.57228207849E+02  0.67476072826E+02  0.00000000000E+00 0. -1.
          1    1    1    2  502    0 -0.92667392985E+01  0.36374486362E+02  0.32698393518E+01  0.37678476147E+02  0.00000000000E+00 0. -1.
         22    1    1    2    0    0 -0.22987144857E+02  0.66029995586E+01 -0.49771070623E+02  0.55219271118E+02  0.00000000000E+00 0. -1.
         22    1    1    2    0    0  0.82263705428E+01 -0.16508046560E+02  0.68255548587E+02  0.70703668126E+02  0.00000000000E+00 0. -1.
</event>
<event>
 6    1  0.1715574E-005  0.1623250E+03  0.7818608E-02  0.1187597E+00
          2   -1    0    0  502    0  0.00000000000E+00  0.00000000000E+00  0.13655944367E+04  0.13655944367E+04  0.00000000000E+00 0.  1.
          1   -1    0    0  501    0 -0.00000000000E+00 -0.00000000000E+00 -0.24582896779E+02  0.24582896779E+02  0.00000000000E+00 0.  1.
          2    1    1    2  501    0 -0.43222396566E+02 -0.44487735005E+02  0.54429460607E+03  0.54781744434E+03  0.00000000000E+00 0.  1.
          1    1    1    2  502    0  0.96065655985E+02  0.66269026612E+02  0.20596692908E+03  0.23673311982E+03  0.00000000000E+00 0.  1.
         22    1    1    2    0    0 -0.66355641545E+02 -0.60378348666E+02  0.45864727851E+03  0.46733921539E+03  0.00000000000E+00 0.  1.
         22    1    1    2    0    0  0.13512382126E+02  0.38597057060E+02  0.13210272625E+03  0.13828755391E+03  0.00000000000E+00 0.  1.
</event>
<event>
 6    1  0.1715574E-005  0.1405022E+03  0.7818608E-02  0.1226663E+00
          2   -1    0    0  502    0  0.00000000000E+00  0.00000000000E+00  0.36315437809E+03  0.36315437809E+03  0.00000000000E+00 0. -1.
          1   -1    0    0  501    0 -0.00000000000E+00 -0.00000000000E+00 -0.11948103772E+03  0.11948103772E+03  0.00000000000E+00 0. -1.
          2    1    1    2  501    0  0.83685376290E+01  0.60145814860E+02  0.76625296396E+02  0.97770074742E+02  0.00000000000E+00 0. -1.
          1    1    1    2  502    0 -0.52163737209E+02 -0.60868741527E+02 -0.74132266706E+02  0.10918631847E+03  0.00000000000E+00 0. -1.
         22    1    1    2    0    0 -0.19506539000E+02  0.85469700845E+01 -0.45738963578E+01  0.21782476656E+02  0.00000000000E+00 0. -1.
         22    1    1    2    0    0  0.63301738581E+02 -0.78240434173E+01  0.24575420704E+03  0.25389654594E+03  0.00000000000E+00 0. -1.
</event>
<event>
 6    1  0.1715574E-005  0.4849484E+02  0.7818608E-02  0.1511087E+00
          2   -1    0    0  502    0  0.00000000000E+00  0.00000000000E+00  0.19089743136E+03  0.19089743136E+03  0.00000000000E+00 0. -1.
          1   -1    0    0  501    0 -0.00000000000E+00 -0.00000000000E+00 -0.29940984082E+03  0.29940984082E+03  0.00000000000E+00 0.  1.
          2    1    1    2  501    0 -0.97682687447E+01 -0.36448245523E+02  0.12979555991E+03  0.13516945308E+03  0.00000000000E+00 0. -1.
          1    1    1    2  502    0 -0.39266576283E+01  0.29922543754E+02 -0.22725245568E+03  0.22924758641E+03  0.00000000000E+00 0.  1.
         22    1    1    2    0    0  0.13604299713E+02  0.16762072935E+02 -0.66289235718E+02  0.69715900853E+02  0.00000000000E+00 0.  1.
         22    1    1    2    0    0  0.90626659932E-01 -0.10236371166E+02  0.55233722029E+02  0.56174331834E+02  0.00000000000E+00 0. -1.
</event>
<event>
 6    1  0.1715574E-005  0.7469187E+02  0.7818608E-02  0.1364399E+00
          2   -1    0    0  502    0  0.00000000000E+00  0.00000000000E+00  0.44060348584E+02  0.44060348584E+02  0.00000000000E+00 0. -1.
          1   -1    0    0  501    0 -0.00000000000E+00 -0.00000000000E+00 -0.35584687441E+03  0.35584687441E+03  0.00000000000E+00 0. -1.
          2    1    1    2  501    0 -0.28747502845E+02  0.40555513071E+00  0.15188915004E+02  0.32515942763E+02  0.00000000000E+00 0. -1.
          1    1    1    2  502    0  0.88898627136E+00  0.21819761331E+02 -0.12933338338E+03  0.13116408174E+03  0.00000000000E+00 0. -1.
         22    1    1    2    0    0  0.30082409980E+01 -0.42020570543E+02 -0.66970557592E+01  0.42657102791E+02  0.00000000000E+00 0.  1.
         22    1    1    2    0    0  0.24850275575E+02  0.19795254082E+02 -0.19094500169E+03  0.19357009570E+03  0.00000000000E+00 0. -1.
</event>
<event>
 6    1  0.1715574E-005  0.6688649E+02  0.7818608E-02  0.1462661E+00
          2   -1    0    0  502    0  0.00000000000E+00  0.00000000000E+00  0.68834162087E+02  0.68834162087E+02  0.00000000000E+00 0.  1.
          1   -1    0    0  501    0 -0.00000000000E+00 -0.00000000000E+00 -0.42186011157E+03  0.42186011157E+03  0.00000000000E+00 0.  1.
          2    1    1    2  501    0 -0.31022287998E+01 -0.30144303140E+02  0.10765325940E+02  0.32158903556E+02  0.00000000000E+00 0.  1.
          1    1    1    2  502    0 -0.77792417738E+01  0.54219015841E+02 -0.32364340034E+03  0.32824574462E+03  0.00000000000E+00 0.  1.
         22    1    1    2    0    0 -0.18394456384E+01 -0.34114273614E+02  0.37639548128E+02  0.50832104105E+02  0.00000000000E+00 0.  1.
         22    1    1    2    0    0  0.12720916212E+02  0.10039560913E+02 -0.77787423213E+02  0.79457521373E+02  0.00000000000E+00 0.  1.
</event>
<event>
 6    1  0.1715574E-005  0.2702365E+03  0.7818608E-02  0.1181927E+00
          2   -1    0    0  502    0  0.00000000000E+00  0.00000000000E+00  0.30345588205E+03  0.30345588205E+03  0.00000000000E+00 0.  1.
          1   -1    0    0  501    0 -0.00000000000E+00 -0.00000000000E+00 -0.38662488480E+03  0.38662488480E+03  0.00000000000E+00 0.  1.
          2    1    1    2  501    0  0.42326153156E+02 -0.22435475291E+03  0.12213634801E+03  0.25892826400E+03  0.00000000000E+00 0.  1.
          1    1    1    2  502    0  0.13076506690E+02  0.23305835669E+03 -0.16384892959E+03  0.28519057554E+03  0.00000000000E+00 0.  1.
         22    1    1    2    0    0 -0.30648073144E+02 -0.38338150971E+02  0.35016588036E+02  0.60293280264E+02  0.00000000000E+00 0.  1.
         22    1    1    2    0    0 -0.24754586702E+02  0.29634547192E+02 -0.76473009212E+02  0.85668647054E+02  0.00000000000E+00 0.  1.
</event>
<event>
 6    1  0.1715574E-005  0.1314719E+03  0.7818608E-02  0.1227471E+00
          2   -1    0    0  502    0  0.00000000000E+00  0.00000000000E+00  0.78517270655E+03  0.78517270655E+03  0.00000000000E+00 0. -1.
          1   -1    0    0  501    0 -0.00000000000E+00 -0.00000000000E+00 -0.42821163522E+02  0.42821163522E+02  0.00000000000E+00 0. -1.
          2    1    1    2  501    0 -0.40116733196E+02  0.41799216159E+02  0.32556900245E+03  0.33068368891E+03  0.00000000000E+00 0. -1.
          1    1    1    2  502    0  0.54354366863E+02 -0.64934775015E+02  0.31465925062E+02  0.90338400713E+02  0.00000000000E+00 0. -1.
         22    1    1    2    0    0 -0.25085629043E+02  0.62659209201E+02  0.33663514770E+03  0.34333465882E+03  0.00000000000E+00 0. -1.
         22    1    1    2    0    0  0.10847995375E+02 -0.39523650345E+02  0.48681467815E+02  0.63637121626E+02  0.00000000000E+00 0.  1.
</event>
<event>
 6    1  0.1715574E-005  0.2283971E+03  0.7818608E-02  0.1138583E+00
          2   -1    0    0  502    0  0.00000000000E+00  0.00000000000E+00  0.16030286496E+02  0.16030286496E+02  0.00000000000E+00 0. -1.
          1   -1    0    0  501    0 -0.00000000000E+00 -0.00000000000E+00 -0.25459761455E+04  0.25459761455E+04  0.00000000000E+00 0. -1.
          2    1    1    2  501    0 -0.45360003337E+02  0.93830763235E+02 -0.97077353068E+03  0.97635187811E+03  0.00000000000E+00 0. -1.
          1    1    1    2  502    0 -0.17179729587E+02 -0.13720603292E+03 -0.88399518368E+03  0.89474472524E+03  0.00000000000E+00 0. -1.
         22    1    1    2    0    0  0.83444514415E+02  0.72623481571E+02 -0.50352431532E+03  0.51553263056E+03  0.00000000000E+00 0. -1.
         22    1    1    2    0    0 -0.20904781491E+02 -0.29248211886E+02 -0.17165282928E+03  0.17537719803E+03  0.00000000000E+00 0. -1.
</event>
<event>
 6    1  0.1715574E-005  0.1231192E+03  0.7818608E-02  0.1319982E+00
          2   -1    0    0  502    0  0.00000000000E+00  0.00000000000E+00  0.23649280852E+03  0.23649280852E+03  0.00000000000E+00 0. -1.
          1   -1    0    0  501    0 -0.00000000000E+00 -0.00000000000E+00 -0.12223471254E+03  0.12223471254E+03  0.00000000000E+00 0.  1.
          2    1    1    2  501    0  0.14777607629E+02  0.10868800387E+03  0.11699934636E+03  0.16037551846E+03  0.00000000000E+00 0. -1.
          1    1    1    2  502    0 -0.23918549653E+02 -0.36301939506E+02 -0.25697176242E+02  0.50500224715E+02  0.00000000000E+00 0.  1.
         22    1    1    2    0    0 -0.15086821042E+02 -0.81193710936E+02 -0.30875190868E+02  0.88166367033E+02  0.00000000000E+00 0.  1.
         22    1    1    2    0    0  0.24227763067E+02  0.88076465723E+01  0.53831116729E+02  0.59685410861E+02  0.00000000000E+00 0. -1.
</event>
<event>
 6    1  0.1715574E-005  0.2315419E+02  0.7818608E-02  0.1740111E+00
          2   -1    0    0  502    0  0.00000000000E+00  0.00000000000E+00  0.26301495365E+03  0.26301495365E+03  0.00000000000E+00 0. -1.
          1   -1    0    0  501    0 -0.00000000000E+00 -0.00000000000E+00 -0.72642225996E+02  0.72642225996E+02  0.00000000000E+00 0. -1.
          2    1    1    2  501    0  0.84708802827E+01 -0.27079212810E+02  0.17643000384E+03  0.17869691054E+03  0.00000000000E+00 0. -1.
          1    1    1    2  502    0 -0.14030662905E+02  0.19101725648E+02 -0.79314991351E+01  0.24992881043E+02  0.00000000000E+00 0. -1.
         22    1    1    2    0    0  0.16138428314E+02  0.12537634149E+02  0.74934389863E+02  0.77671126698E+02  0.00000000000E+00 0. -1.
         22    1    1    2    0    0 -0.10578645692E+02 -0.45601469873E+01 -0.53060166918E+02  0.54296261368E+02  0.00000000000E+00 0. -1.
</event>
<event>
 6    1  0.1715574E-005  0.1129907E+03  0.7818608E-02  0.1307042E+00
          2   -1    0    0  502    0  0.00000000000E+00  0.00000000000E+00  0.51449439079E+02  0.51449439079E+02  0.00000000000E+00 0.  1.
          1   -1    0    0  501    0 -0.00000000000E+00 -0.00000000000E+00 -0.30142040492E+03  0.30142040492E+03  0.00000000000E+00 0.  1.
          2    1    1    2  501    0  0.93392540098E+00 -0.30407355771E+02  0.17770369916E+02  0.35231598723E+02  0.00000000000E+00 0.  1.
          1    1    1    2  502    0  0.34570170702E+01 -0.28432273829E+02 -0.19484369879E+02  0.34640811649E+02  0.00000000000E+00 0.  1.
         22    1    1    2    0    0 -0.15521101850E+02  0.57898814166E+02 -0.25998234688E+03  0.26680329454E+03  0.00000000000E+00 0.  1.
         22    1    1    2    0    0  0.11130159379E+02  0.94081543446E+00  0.11725381000E+02  0.16194139097E+02  0.00000000000E+00 0.  1.
</event>
<event>
 6    1  0.1715574E-005  0.4292787E+02  0.7818608E-02  0.1488665E+00
          2   -1    0    0  502    0  0.00000000000E+00  0.00000000000E+00  0.18418355655E+03  0.18418355655E+03  0.00000000000E+00 0. -1.
          1   -1    0    0  501    0 -0.00000000000E+00 -0.00000000000E+00 -0.83187310252E+02  0.83187310252E+02  0.00000000000E+00 0.  1.
          2    1    1    2  501    0  0.96993931950E+01 -0.18410697032E+02  0.74315684397E+02  0.77174172758E+02  0.00000000000E+00 0. -1.
          1    1    1    2  502    0 -0.10966581241E+02  0.23589013745E+02 -0.41762171089E+02  0.49201487860E+02  0.00000000000E+00 0.  1.
         22    1    1    2    0    0  0.14767823433E+02 -0.15077872318E+02  0.10164398228E+03  0.10381199342E+03  0.00000000000E+00 0. -1.
         22    1    1    2    0    0 -0.13500635387E+02  0.98995556059E+01 -0.33201249294E+02  0.37183212768E+02  0.00000000000E+00 0. -1.
</event>
<event>
 6    1  0.1715574E-005  0.8355137E+02  0.7818608E-02  0.1321603E+00
          2   -1    0    0  502    0  0.00000000000E+00  0.00000000000E+00  0.50297331907E+03  0.50297331907E+03  0.00000000000E+00 0. -1.
          1   -1    0    0  501    0 -0.00000000000E+00 -0.00000000000E+00 -0.42208981255E+02  0.42208981255E+02  0.00000000000E+00 0. -1.
          2    1    1    2  501    0  0.23165287007E+02 -0.14220810979E+02  0.30674651558E+03  0.30794851324E+03  0.00000000000E+00 0. -1.
          1    1    1    2  502    0 -0.36883318919E+02  0.13150929927E+02  0.25463550772E+01  0.39240414073E+02  0.00000000000E+00 0. -1.
         22    1    1    2    0    0 -0.65101181726E+01  0.40435587077E+02  0.80860040874E+00  0.40964279262E+02  0.00000000000E+00 0. -1.
         22    1    1    2    0    0  0.20228150084E+02 -0.39365706025E+02  0.15066286674E+03  0.15702909375E+03  0.00000000000E+00 0.  1.
</event>
<event>
 6    1  0.1715574E-005  0.8456097E+02  0.7818608E-02  0.1316723E+00
          2   -1    0    0  502    0  0.00000000000E+00  0.00000000000E+00  0.46094637420E+02  0.46094637420E+02  0.00000000000E+00 0. -1.
          1   -1    0    0  501    0 -0.00000000000E+00 -0.00000000000E+00 -0.57131505694E+03  0.57131505694E+03  0.00000000000E+00 0. -1.
          2    1    1    2  501    0 -0.22832766484E+02 -0.26822903164E+02  0.18060763594E+01  0.35271309463E+02  0.00000000000E+00 0. -1.
          1    1    1    2  502    0  0.42220159294E+02  0.26344787370E+02 -0.40315382406E+03  0.40621373134E+03  0.00000000000E+00 0. -1.
         22    1    1    2    0    0  0.29550751269E+02  0.63256459970E+01 -0.12297127392E+03  0.12663015007E+03  0.00000000000E+00 0. -1.
         22    1    1    2    0    0 -0.48938144080E+02 -0.58475302034E+01 -0.90139789484E+00  0.49294503483E+02  0.00000000000E+00 0. -1.
</event>
<event>
 6    1  0.1715574E-005  0.9875439E+02  0.7818608E-02  0.1364959E+00
          2   -1    0    0  502    0  0.00000000000E+00  0.00000000000E+00  0.19295275546E+03  0.19295275546E+03  0.00000000000E+00 0. -1.
          1   -1    0    0  501    0 -0.00000000000E+00 -0.00000000000E+00 -0.10978149149E+03  0.10978149149E+03  0.00000000000E+00 0. -1.
          2    1    1    2  501    0  0.46494820919E+02  0.39224381915E+02  0.70824046886E+02  0.93361480956E+02  0.00000000000E+00 0. -1.
          1    1    1    2  502    0 -0.60029668376E+02 -0.53761731625E+02 -0.20699774081E+02  0.83200754321E+02  0.00000000000E+00 0. -1.
         22    1    1    2    0    0  0.20313858258E+02  0.36494370189E+02  0.70667895308E+02  0.82088021782E+02  0.00000000000E+00 0. -1.
         22    1    1    2    0    0 -0.67790108006E+01 -0.21957020480E+02 -0.37620904142E+02  0.44083989886E+02  0.00000000000E+00 0. -1.
</event>
<event>
 6    1  0.1715574E-005  0.3337689E+02  0.7818608E-02  0.1599944E+00
          2   -1    0    0  502    0  0.00000000000E+00  0.00000000000E+00  0.44400640596E+03  0.44400640596E+03  0.00000000000E+00 0.  1.
          1   -1    0    0  501    0 -0.00000000000E+00 -0.00000000000E+00 -0.95987647666E+02  0.95987647666E+02  0.00000000000E+00 0.  1.
          2    1    1    2  501    0  0.38203547560E+02  0.22029907711E+02  0.36784504613E+03  0.37047915710E+03  0.00000000000E+00 0.  1.
          1    1    1    2  502    0 -0.13487162536E+02 -0.28362548288E+02  0.20253747939E+02  0.37370469682E+02  0.00000000000E+00 0.  1.
         22    1    1    2    0    0 -0.19849881847E+01  0.15508058165E+02  0.42878499091E+02  0.45639957608E+02  0.00000000000E+00 0. -1.
         22    1    1    2    0    0 -0.22731396839E+02 -0.91754175884E+01 -0.82958534870E+02  0.86504469237E+02  0.00000000000E+00 0.  1.
</event>
<event>
 6    1  0.1715574E-005  0.8568366E+02  0.7818608E-02  0.1365321E+00
          2   -1    0    0  502    0  0.00000000000E+00  0.00000000000E+00  0.36508900510E+02  0.36508900510E+02  0.00000000000E+00 0. -1.
          1   -1    0    0  501    0 -0.00000000000E+00 -0.00000000000E+00 -0.50178719769E+03  0.50178719769E+03  0.00000000000E+00 0.  1.
          2    1    1    2  501    0  0.13047477341E+02 -0.31063687340E+02 -0.14877198225E+02  0.36830970163E+02  0.00000000000E+00 0. -1.
          1    1    1    2  502    0 -0.21342968377E+02  0.70016827784E+02 -0.27288235755E+03  0.28252904193E+03  0.00000000000E+00 0.  1.
         22    1    1    2    0    0  0.43037362999E+02 -0.34966935549E+02 -0.22202096398E+02  0.59731350897E+02  0.00000000000E+00 0. -1.
         22    1    1    2    0    0 -0.34741871963E+02 -0.39862048956E+01 -0.15531664501E+03  0.15920473521E+03  0.00000000000E+00 0.  1.
</event>
<event>
 6    1  0.1715574E-005  0.8731361E+02  0.7818608E-02  0.1311775E+00
          2   -1    0    0  502    0  0.00000000000E+00  0.00000000000E+00  0.17474581550E+03  0.17474581550E+03  0.00000000000E+00 0. -1.
          1   -1    0    0  501    0 -0.00000000000E+00 -0.00000000000E+00 -0.95476725158E+02  0.95476725158E+02  0.00000000000E+00 0.  1.
          2    1    1    2  501    0  0.17516753720E+02 -0.27926422022E+02  0.29655809502E+02  0.44341726907E+02  0.00000000000E+00 0. -1.
          1    1    1    2  502    0 -0.26894673540E+02  0.54823913794E+02 -0.35526669281E+02  0.70647924377E+02  0.00000000000E+00 0.  1.
         22    1    1    2    0    0 -0.12294177759E+02  0.16603863469E+02 -0.26424290186E+02  0.33542185389E+02  0.00000000000E+00 0.  1.
         22    1    1    2    0    0  0.21672097579E+02 -0.43501355241E+02  0.11156424031E+03  0.12169070399E+03  0.00000000000E+00 0.  1.
</event>
<event>
 6    1  0.1715574E-005  0.6750599E+02  0.7818608E-02  0.1394239E+00
          2   -1    0    0  502    0  0.00000000000E+00  0.00000000000E+00  0.10041984239E+04  0.10041984239E+04  0.00000000000E+00 0. -1.
          1   -1    0    0  501    0 -0.00000000000E+00 -0.00000000000E+00 -0.10972673228E+02  0.10972673228E+02  0.00000000000E+00 0. -1.
          2    1    1    2  501    0  0.13162216439E+02  0.15166280510E+02  0.12099346537E+03  0.12264859832E+03  0.00000000000E+00 0. -1.
          1    1    1    2  502    0 -0.43077573324E+02 -0.24377768432E+02  0.36376216030E+03  0.36711423588E+03  0.00000000000E+00 0. -1.
         22    1    1    2    0    0  0.74299171642E+02  0.47297257706E+01  0.41753506806E+03  0.42412058459E+03  0.00000000000E+00 0. -1.
         22    1    1    2    0    0 -0.44383814756E+02  0.44817621510E+01  0.90935056955E+02  0.10128767836E+03  0.00000000000E+00 0. -1.
</event>
<event>
 6    1  0.1715574E-005  0.9377197E+02  0.7818608E-02  0.1300737E+00
          2   -1    0    0  502    0  0.00000000000E+00  0.00000000000E+00  0.50488603801E+02  0.50488603801E+02  0.00000000000E+00 0. -1.
          1   -1    0    0  501    0 -0.00000000000E+00 -0.00000000000E+00 -0.40232805213E+03  0.40232805213E+03  0.00000000000E+00 0. -1.
          2    1    1    2  501    0 -0.15934436331E+02  0.38467369664E+02 -0.93265392796E+02  0.10213754590E+03  0.00000000000E+00 0. -1.
          1    1    1    2  502    0 -0.35699088767E+02 -0.86601551886E+02 -0.86253600394E+02  0.12733395976E+03  0.00000000000E+00 0. -1.
         22    1    1    2    0    0 -0.31083620801E+02  0.49265597103E+02 -0.57711779089E+02  0.81999634058E+02  0.00000000000E+00 0. -1.
         22    1    1    2    0    0  0.82717145899E+02 -0.11314148808E+01 -0.11460867605E+03  0.14134551621E+03  0.00000000000E+00 0. -1.
</event>
<event>
 6    1  0.1715574E-005  0.7882423E+02  0.7818608E-02  0.1336699E+00
          2   -1    0    0  502    0  0.00000000000E+00  0.00000000000E+00  0.22418004356E+03  0.22418004356E+03  0.00000000000E+00 0. -1.
          1   -1    0    0  501    0 -0.00000000000E+00 -0.00000000000E+00 -0.59495422316E+02  0.59495422316E+02  0.00000000000E+00 0. -1.
          2    1    1    2  501    0  0.37746501317E+02  0.17649409276E+02  0.10394274802E+03  0.11198390454E+03  0.00000000000E+00 0. -1.
          1    1    1    2  502    0 -0.29116717107E+02 -0.22730561582E+02  0.52628798458E+01  0.37311654335E+02  0.00000000000E+00 0. -1.
         22    1    1    2    0    0  0.20663535760E+02  0.23703125557E+02  0.83847937739E+02  0.89550525037E+02  0.00000000000E+00 0. -1.
         22    1    1    2    0    0 -0.29293319970E+02 -0.18621973251E+02 -0.28368944367E+02  0.44829381962E+02  0.00000000000E+00 0. -1.
</event>
<event>
 6    1  0.1715574E-005  0.1560377E+03  0.7818608E-02  0.1217644E+00
          2   -1    0    0  502    0  0.00000000000E+00  0.00000000000E+00  0.45030915992E+03  0.45030915992E+03  0.00000000000E+00 0.  1.
          1   -1    0    0  501    0 -0.00000000000E+00 -0.00000000000E+00 -0.52800848601E+02  0.52800848601E+02  0.00000000000E+00 0. -1.
          2    1    1    2  501    0  0.32950915344E+02  0.66655335547E+02  0.24512429571E+03  0.25615350267E+03  0.00000000000E+00 0.  1.
          1    1    1    2  502    0  0.27933829823E+02 -0.41310134412E+02  0.19972017820E+02  0.53718782092E+02  0.00000000000E+00 0. -1.
         22    1    1    2    0    0  0.13367762651E+02 -0.38401117191E+02 -0.23587665573E+00  0.40662003364E+02  0.00000000000E+00 0. -1.
         22    1    1    2    0    0 -0.74252507818E+02  0.13055916055E+02  0.13264787444E+03  0.15257572039E+03  0.00000000000E+00 0. -1.
</event>
<event>
 6    1  0.1715574E-005  0.1751973E+03  0.7818608E-02  0.1200476E+00
          2   -1    0    0  502    0  0.00000000000E+00  0.00000000000E+00  0.10700128980E+03  0.10700128980E+03  0.00000000000E+00 0.  1.
          1   -1    0    0  501    0 -0.00000000000E+00 -0.00000000000E+00 -0.26126415073E+03  0.26126415073E+03  0.00000000000E+00 0.  1.
          2    1    1    2  501    0  0.57020172718E+02 -0.55019123789E+02  0.32778247461E+02  0.85748571917E+02  0.00000000000E+00 0.  1.
          1    1    1    2  502    0 -0.20280984771E+01 -0.43056089729E+02 -0.24636827461E+02  0.49647893344E+02  0.00000000000E+00 0.  1.
         22    1    1    2    0    0  0.57358537963E+01 -0.13129584715E+02  0.11029584245E+02  0.18081419806E+02  0.00000000000E+00 0.  1.
         22    1    1    2    0    0 -0.60727928037E+02  0.11120479823E+03 -0.17343386517E+03  0.21478755547E+03  0.00000000000E+00 0.  1.
</event>
<event>
 6    1  0.1715574E-005  0.9296981E+02  0.7818608E-02  0.1333299E+00
          2   -1    0    0  502    0  0.00000000000E+00  0.00000000000E+00  0.29369926127E+03  0.29369926127E+03  0.00000000000E+00 0.  1.
          1   -1    0    0  501    0 -0.00000000000E+00 -0.00000000000E+00 -0.19132874746E+03  0.19132874746E+03  0.00000000000E+00 0.  1.
          2    1    1    2  501    0 -0.41537432313E+02 -0.36816767995E+02  0.86688556203E+02  0.10293560349E+03  0.00000000000E+00 0.  1.
          1    1    1    2  502    0  0.78239595017E+02  0.38047948934E+02 -0.14857948075E+03  0.17217706801E+03  0.00000000000E+00 0.  1.
         22    1    1    2    0    0  0.10553129824E+02 -0.34671021119E+01 -0.18254137246E+02  0.21368267893E+02  0.00000000000E+00 0.  1.
         22    1    1    2    0    0 -0.47255292527E+02  0.22359211728E+01  0.18251557561E+03  0.18854706934E+03  0.00000000000E+00 0.  1.
</event>
<event>
 6    1  0.1715574E-005  0.3961408E+02  0.7818608E-02  0.1526243E+00
          2   -1    0    0  502    0  0.00000000000E+00  0.00000000000E+00  0.18966120234E+03  0.18966120234E+03  0.00000000000E+00 0. -1.
          1   -1    0    0  501    0 -0.00000000000E+00 -0.00000000000E+00 -0.12537813907E+03  0.12537813907E+03  0.00000000000E+00 0. -1.
          2    1    1    2  501    0 -0.13701874932E+02 -0.23719476370E+02  0.11589328556E+03  0.11908655916E+03  0.00000000000E+00 0. -1.
          1    1    1    2  502    0 -0.54374651293E+01  0.60389750318E+02 -0.10933147762E+02  0.61611863229E+02  0.00000000000E+00 0. -1.
         22    1    1    2    0    0 -0.75664248611E+00 -0.11190722657E+02  0.43103952543E+02  0.44539370295E+02  0.00000000000E+00 0. -1.
         22    1    1    2    0    0  0.19895982547E+02 -0.25479551291E+02 -0.83781027075E+02  0.89801548724E+02  0.00000000000E+00 0. -1.
</event>
<event>
 6    1  0.1715574E-005  0.2296911E+03  0.7818608E-02  0.1170922E+00
          2   -1    0    0  502    0  0.00000000000E+00  0.00000000000E+00  0.46752950175E+03  0.46752950175E+03  0.00000000000E+00 0. -1.
          1   -1    0    0  501    0 -0.00000000000E+00 -0.00000000000E+00 -0.25950315100E+03  0.25950315100E+03  0.00000000000E+00 0. -1.
          2    1    1    2  501    0  0.20652297994E+03 -0.29802210939E+02  0.28358538703E+03  0.35208036690E+03  0.00000000000E+00 0. -1.
          1    1    1    2  502    0 -0.20475704381E+03 -0.35673229156E+02  0.15730995728E+02  0.20843581864E+03  0.00000000000E+00 0. -1.
         22    1    1    2    0    0 -0.27841789468E+02  0.75699692180E+02 -0.10731579988E+03  0.13424712116E+03  0.00000000000E+00 0. -1.
         22    1    1    2    0    0  0.26075853335E+02 -0.10224252084E+02  0.16025767879E+02  0.32269346041E+02  0.00000000000E+00 0. -1.
</event>
<event>
 6    1  0.1715574E-005  0.8375538E+02  0.7818608E-02  0.1352647E+00
          2   -1    0    0  502    0  0.00000000000E+00  0.00000000000E+00  0.24890602952E+02  0.24890602952E+02  0.00000000000E+00 0. -1.
          1   -1    0    0  501    0 -0.00000000000E+00 -0.00000000000E+00 -0.76951372634E+03  0.76951372634E+03  0.00000000000E+00 0. -1.
          2    1    1    2  501    0  0.21901584321E+02 -0.17479769099E+01 -0.11831284359E+02  0.24954240294E+02  0.00000000000E+00 0. -1.
          1    1    1    2  502    0 -0.54146158990E+02 -0.36647844161E+02 -0.46651779657E+03  0.47107719700E+03  0.00000000000E+00 0. -1.
         22    1    1    2    0    0 -0.33249080856E+02  0.32284798959E+02 -0.19884368343E+03  0.20417301501E+03  0.00000000000E+00 0.  1.
         22    1    1    2    0    0  0.65493655524E+02  0.61110221116E+01 -0.67430359036E+02  0.94199876990E+02  0.00000000000E+00 0. -1.
</event>
<event>
 6    1  0.1715574E-005  0.7231364E+02  0.7818608E-02  0.1419703E+00
          2   -1    0    0  502    0  0.00000000000E+00  0.00000000000E+00  0.21232829334E+03  0.21232829334E+03  0.00000000000E+00 0.  1.
          1   -1    0    0  501    0 -0.00000000000E+00 -0.00000000000E+00 -0.15221007884E+03  0.15221007884E+03  0.00000000000E+00 0.  1.
          2    1    1    2  501    0  0.24424505350E+02 -0.43098890331E+02  0.81712289748E+02  0.95556104490E+02  0.00000000000E+00 0.  1.
          1    1    1    2  502    0 -0.36443770732E+02  0.50130422008E+02 -0.10369976055E+03  0.12080913862E+03  0.00000000000E+00 0.  1.
         22    1    1    2    0    0 -0.41312936969E+01  0.11186909994E+02 -0.30613681290E+02  0.32854406477E+02  0.00000000000E+00 0.  1.
         22    1    1    2    0    0  0.16150559079E+02 -0.18218441671E+02  0.11271936659E+03  0.11531872259E+03  0.00000000000E+00 0.  1.
</event>
<event>
 6    1  0.1715574E-005  0.2075915E+03  0.7818608E-02  0.1146843E+00
          2   -1    0    0  502    0  0.00000000000E+00  0.00000000000E+00  0.13020394143E+03  0.13020394143E+03  0.00000000000E+00 0. -1.
          1   -1    0    0  501    0 -0.00000000000E+00 -0.00000000000E+00 -0.54784349679E+03  0.54784349679E+03  0.00000000000E+00 0. -1.
          2    1    1    2  501    0  0.14967058129E+03 -0.80416755946E+02 -0.39383710527E+03  0.42892400612E+03  0.00000000000E+00 0. -1.
          1    1    1    2  502    0 -0.73071135369E+02  0.50261185957E+02  0.30509073344E+02  0.93789024913E+02  0.00000000000E+00 0. -1.
         22    1    1    2    0    0 -0.74623343524E+02  0.64293058300E+02 -0.94864922899E+01  0.98955718785E+02  0.00000000000E+00 0.  1.
         22    1    1    2    0    0 -0.19761023952E+01 -0.34137488311E+02 -0.44825031142E+02  0.56378688400E+02  0.00000000000E+00 0. -1.
</event>
<event>
 6    1  0.1715574E-005  0.1226254E+03  0.7818608E-02  0.1245336E+00
          2   -1    0    0  502    0  0.00000000000E+00  0.00000000000E+00  0.53175214505E+03  0.53175214505E+03  0.00000000000E+00 0. -1.
          1   -1    0    0  501    0 -0.00000000000E+00 -0.00000000000E+00 -0.14686617419E+03  0.14686617419E+03  0.00000000000E+00 0.  1.
          2    1    1    2  501    0  0.84019440532E+02 -0.40528100454E+02  0.44153196048E+03  0.45127847881E+03  0.00000000000E+00 0. -1.
          1    1    1    2  502    0 -0.12646194240E+02  0.46872443070E+02 -0.67771865288E+02  0.83366527292E+02  0.00000000000E+00 0.  1.
         22    1    1    2    0    0 -0.69872811000E+02  0.76657230111E+01 -0.46742232307E+02  0.84414508868E+02  0.00000000000E+00 0.  1.
         22    1    1    2    0    0 -0.15004352917E+01 -0.14010065627E+02  0.57868107976E+02  0.59558804266E+02  0.00000000000E+00 0.  1.
</event>
<event>
 6    1  0.1715574E-005  0.6676187E+02  0.7818608E-02  0.1372906E+00
          2   -1    0    0  502    0  0.00000000000E+00  0.00000000000E+00  0.30889358008E+03  0.30889358008E+03  0.00000000000E+00 0.  1.
          1   -1    0    0  501    0 -0.00000000000E+00 -0.00000000000E+00 -0.11382852127E+03  0.11382852127E+03  0.00000000000E+00 0. -1.
          2    1    1    2  501    0  0.29724644035E+02  0.39018040168E+02  0.23106096290E+03  0.23620992887E+03  0.00000000000E+00 0.  1.
          1    1    1    2  502    0 -0.10080279753E+02 -0.35578814848E+02 -0.50257916092E+02  0.62396492175E+02  0.00000000000E+00 0. -1.
         22    1    1    2    0    0  0.27724624889E+01  0.15751486911E+02  0.64171773861E+02  0.66134805123E+02  0.00000000000E+00 0.  1.
         22    1    1    2    0    0 -0.22416826770E+02 -0.19190712231E+02 -0.49909761854E+02  0.57980875181E+02  0.00000000000E+00 0. -1.
</event>
<event>
 6    1  0.1715574E-005  0.6350727E+02  0.7818608E-02  0.1384142E+00
          2   -1    0    0  502    0  0.00000000000E+00  0.00000000000E+00  0.13590994932E+03  0.13590994932E+03  0.00000000000E+00 0. -1.
          1   -1    0    0  501    0 -0.00000000000E+00 -0.00000000000E+00 -0.11998983389E+03  0.11998983389E+03  0.00000000000E+00 0.  1.
          2    1    1    2  501    0  0.17370606813E+02  0.32740343668E+02  0.72351284645E+02  0.81291921335E+02  0.00000000000E+00 0. -1.
          1    1    1    2  502    0 -0.21919880336E+02 -0.17527757325E+02 -0.36602352278E+02  0.46124132762E+02  0.00000000000E+00 0.  1.
         22    1    1    2    0    0  0.20971337493E+02  0.15248116290E+02  0.46744071681E+02  0.53453814494E+02  0.00000000000E+00 0. -1.
         22    1    1    2    0    0 -0.16422063971E+02 -0.30460702633E+02 -0.66572888619E+02  0.75029914627E+02  0.00000000000E+00 0.  1.
</event>
<event>
 6    1  0.1715574E-005  0.2846173E+03  0.7818608E-02  0.1093591E+00
          2   -1    0    0  502    0  0.00000000000E+00  0.00000000000E+00  0.15207464257E+04  0.15207464257E+04  0.00000000000E+00 0.  1.
          1   -1    0    0  501    0 -0.00000000000E+00 -0.00000000000E+00 -0.55837997548E+02  0.55837997548E+02  0.00000000000E+00 0.  1.
          2    1    1    2  501    0  0.89359838562E+02  0.22717698100E+03  0.76225849789E+03  0.80039526426E+03  0.00000000000E+00 0.  1.
          1    1    1    2  502    0 -0.61648313377E+02 -0.16466290660E+03  0.27639366331E+03  0.32757876071E+03  0.00000000000E+00 0.  1.
         22    1    1    2    0    0  0.29532915523E+02  0.20921323316E+02  0.15297887524E+03  0.15720188020E+03  0.00000000000E+00 0.  1.
         22    1    1    2    0    0 -0.57244440708E+02 -0.83435397715E+02  0.27327739167E+03  0.29140851803E+03  0.00000000000E+00 0.  1.
</event>
<event>
 6    1  0.1715574E-005  0.5625312E+02  0.7818608E-02  0.1437982E+00
          2   -1    0    0  502    0  0.00000000000E+00  0.00000000000E+00  0.33644629711E+03  0.33644629711E+03  0.00000000000E+00 0. -1.
          1   -1    0    0  501    0 -0.00000000000E+00 -0.00000000000E+00 -0.80933150048E+02  0.80933150048E+02  0.00000000000E+00 0. -1.
          2    1    1    2  501    0 -0.25747293777E+02  0.34831196298E+02  0.22147032099E+03  0.22566621026E+03  0.00000000000E+00 0. -1.
          1    1    1    2  502    0  0.54157224147E+02 -0.54900180186E+01  0.19137775752E+02  0.57700950477E+02  0.00000000000E+00 0. -1.
         22    1    1    2    0    0 -0.13079223171E+02  0.67179908262E+01  0.67130676003E+02  0.68722086261E+02  0.00000000000E+00 0. -1.
         22    1    1    2    0    0 -0.15330707199E+02 -0.36059169106E+02 -0.52225625681E+02  0.65290200165E+02  0.00000000000E+00 0. -1.
</event>
<event>
 6    1  0.1715574E-005  0.8694117E+02  0.7818608E-02  0.1310587E+00
          2   -1    0    0  502    0  0.00000000000E+00  0.00000000000E+00  0.15919716618E+03  0.15919716618E+03  0.00000000000E+00 0.  1.
          1   -1    0    0  501    0 -0.00000000000E+00 -0.00000000000E+00 -0.84111448388E+02  0.84111448388E+02  0.00000000000E+00 0. -1.
          2    1    1    2  501    0 -0.54135408533E+02 -0.25960838206E+02  0.66089541217E+02  0.89288493299E+02  0.00000000000E+00 0.  1.
          1    1    1    2  502    0  0.23566405847E+02 -0.39348429379E+00 -0.16555192823E+01  0.23627760336E+02  0.00000000000E+00 0. -1.
         22    1    1    2    0    0 -0.23887316775E+02 -0.29594895880E+00  0.51851883706E+02  0.57090361116E+02  0.00000000000E+00 0.  1.
         22    1    1    2    0    0  0.54456319461E+02  0.26650271459E+02 -0.41200187850E+02  0.73301999816E+02  0.00000000000E+00 0. -1.
</event>
<event>
 6    1  0.1715574E-005  0.3093463E+02  0.7818608E-02  0.1591572E+00
          2   -1    0    0  502    0  0.00000000000E+00  0.00000000000E+00  0.10552111537E+04  0.10552111537E+04  0.00000000000E+00 0.  1.
          1   -1    0    0  501    0 -0.00000000000E+00 -0.00000000000E+00 -0.69805176160E+02  0.69805176160E+02  0.00000000000E+00 0. -1.
          2    1    1    2  501    0  0.67193652658E+02  0.26026324030E+02  0.92794427251E+03  0.93073784139E+03  0.00000000000E+00 0.  1.
          1    1    1    2  502    0 -0.47760040982E+02 -0.32604067146E+02  0.27640006863E+02  0.64093811624E+02  0.00000000000E+00 0. -1.
         22    1    1    2    0    0 -0.65945403365E+01  0.11323651092E+02  0.78516551496E+02  0.79602524426E+02  0.00000000000E+00 0. -1.
         22    1    1    2    0    0 -0.12839071339E+02 -0.47459079763E+01 -0.48694853369E+02  0.50582152386E+02  0.00000000000E+00 0. -1.
</event>
<event>
 6    1  0.1715574E-005  0.1283767E+03  0.7818608E-02  0.1250506E+00
          2   -1    0    0  502    0  0.00000000000E+00  0.00000000000E+00  0.33257687746E+02  0.33257687746E+02  0.00000000000E+00 0. -1.
          1   -1    0    0  501    0 -0.00000000000E+00 -0.00000000000E+00 -0.57565867869E+03  0.57565867869E+03  0.00000000000E+00 0. -1.
          2    1    1    2  501    0 -0.52653784063E+02  0.25146049186E+02 -0.31483752740E+02  0.66302122534E+02  0.00000000000E+00 0. -1.
          1    1    1    2  502    0  0.58501012015E+01 -0.48945146122E+02 -0.16518198351E+03  0.17238021548E+03  0.00000000000E+00 0. -1.
         22    1    1    2    0    0 -0.25050012714E+02 -0.73547675350E+01 -0.14495208260E+02  0.29861460195E+02  0.00000000000E+00 0.  1.
         22    1    1    2    0    0  0.71853695576E+02  0.31153864471E+02 -0.33124004643E+03  0.34037256823E+03  0.00000000000E+00 0. -1.
</event>
<event>
 6    1  0.1715574E-005  0.7047174E+02  0.7818608E-02  0.1366507E+00
          2   -1    0    0  502    0  0.00000000000E+00  0.00000000000E+00  0.12423462485E+03  0.12423462485E+03  0.00000000000E+00 0. -1.
          1   -1    0    0  501    0 -0.00000000000E+00 -0.00000000000E+00 -0.21877481078E+03  0.21877481078E+03  0.00000000000E+00 0.  1.
          2    1    1    2  501    0 -0.25371861242E+02  0.81062537127E+01  0.20089544120E+02  0.33362141344E+02  0.00000000000E+00 0. -1.
          1    1    1    2  502    0 -0.21942952314E+01 -0.40257798903E+02 -0.16436386186E+03  0.16923647477E+03  0.00000000000E+00 0.  1.
         22    1    1    2    0    0  0.92108840120E+01  0.36123943301E+02  0.89215074692E+02  0.96690791786E+02  0.00000000000E+00 0. -1.
         22    1    1    2    0    0  0.18355272461E+02 -0.39723981105E+01 -0.39480942883E+02  0.43720027731E+02  0.00000000000E+00 0.  1.
</event>
<event>
 6    1  0.1715574E-005  0.6400448E+02  0.7818608E-02  0.1429783E+00
          2   -1    0    0  502    0  0.00000000000E+00  0.00000000000E+00  0.55654520004E+02  0.55654520004E+02  0.00000000000E+00 0.  1.
          1   -1    0    0  501    0 -0.00000000000E+00 -0.00000000000E+00 -0.60934788736E+03  0.60934788736E+03  0.00000000000E+00 0.  1.
          2    1    1    2  501    0  0.33855348995E+02 -0.19152654441E+02  0.15103566258E+02  0.41726808426E+02  0.00000000000E+00 0.  1.
          1    1    1    2  502    0 -0.30563078920E+02  0.70109253992E+01 -0.45706218650E+03  0.45813654863E+03  0.00000000000E+00 0.  1.
         22    1    1    2    0    0 -0.28738091894E+02  0.89565845936E+01 -0.13013842207E+03  0.13357435096E+03  0.00000000000E+00 0. -1.
         22    1    1    2    0    0  0.25445821819E+02  0.31851444484E+01  0.18403674956E+02  0.31564699351E+02  0.00000000000E+00 0.  1.
</event>
<event>
 6    1  0.1715574E-005  0.5142902E+02  0.7818608E-02  0.1534726E+00
          2   -1    0    0  502    0  0.00000000000E+00  0.00000000000E+00  0.22010333083E+03  0.22010333083E+03  0.00000000000E+00 0.  1.
          1   -1    0    0  501    0 -0.00000000000E+00 -0.00000000000E+00 -0.14333954076E+03  0.14333954076E+03  0.00000000000E+00 0.  1.
          2    1    1    2  501    0 -0.29831231131E+02  0.29761552431E+01  0.13638128782E+03  0.13963744311E+03  0.00000000000E+00 0.  1.
          1    1    1    2  502    0  0.34934450970E+02  0.17994317176E+02 -0.85012749844E+02  0.93655640253E+02  0.00000000000E+00 0.  1.
         22    1    1    2    0    0 -0.16241381746E+02 -0.13867026950E+02  0.75432874305E+02  0.78397674987E+02  0.00000000000E+00 0.  1.
         22    1    1    2    0    0  0.11138161908E+02 -0.71034454687E+01 -0.50037622209E+02  0.51752113237E+02  0.00000000000E+00 0.  1.
</event>
<event>
 6    1  0.1715574E-005  0.5923878E+02  0.7818608E-02  0.1490459E+00
          2   -1    0    0  502    0  0.00000000000E+00  0.00000000000E+00  0.28948037540E+03  0.28948037540E+03  0.00000000000E+00 0. -1.
          1   -1    0    0  501    0 -0.00000000000E+00 -0.00000000000E+00 -0.17454831699E+03  0.17454831699E+03  0.00000000000E+00 0.  1.
          2    1    1    2  501    0  0.46909593927E+01  0.44270034911E+02  0.24034604157E+03  0.24443416453E+03  0.00000000000E+00 0. -1.
          1    1    1    2  502    0  0.56515893514E+00 -0.37433508623E+02 -0.84136237161E+02  0.92089594287E+02  0.00000000000E+00 0.  1.
         22    1    1    2    0    0 -0.92608536034E+01  0.12703526001E+02  0.40439943738E+02  0.43388155433E+02  0.00000000000E+00 0. -1.
         22    1    1    2    0    0  0.40047352756E+01 -0.19540052289E+02 -0.81717689735E+02  0.84116778134E+02  0.00000000000E+00 0. -1.
</event>
<event>
 6    1  0.1715574E-005  0.4742134E+03  0.7818608E-02  0.1020950E+00
          2   -1    0    0  502    0  0.00000000000E+00  0.00000000000E+00  0.48489782395E+03  0.48489782395E+03  0.00000000000E+00 0. -1.
          1   -1    0    0  501    0 -0.00000000000E+00 -0.00000000000E+00 -0.93565600653E+03  0.93565600653E+03  0.00000000000E+00 0. -1.
          2    1    1    2  501    0 -0.43436806848E+03 -0.41474008050E+02  0.25728580986E+03  0.50654881326E+03  0.00000000000E+00 0. -1.
          1    1    1    2  502    0  0.41437255402E+03  0.77308038571E+02 -0.64829035883E+03  0.77327972669E+03  0.00000000000E+00 0. -1.
         22    1    1    2    0    0 -0.28372319872E+02 -0.25076867501E+02  0.22976472070E+02  0.44291715787E+02  0.00000000000E+00 0.  1.
         22    1    1    2    0    0  0.48367834333E+02 -0.10757163021E+02 -0.82730105677E+02  0.96433574753E+02  0.00000000000E+00 0.  1.
</event>
<event>
 6    1  0.1715574E-005  0.1161173E+03  0.7818608E-02  0.1251892E+00
          2   -1    0    0  502    0  0.00000000000E+00  0.00000000000E+00  0.43800373676E+03  0.43800373676E+03  0.00000000000E+00 0. -1.
          1   -1    0    0  501    0 -0.00000000000E+00 -0.00000000000E+00 -0.18604866174E+03  0.18604866174E+03  0.00000000000E+00 0.  1.
          2    1    1    2  501    0 -0.82750668014E+02  0.43738199950E+02  0.38702573384E+03  0.39818289999E+03  0.00000000000E+00 0. -1.
          1    1    1    2  502    0  0.29645788742E+02 -0.26595118068E+02 -0.26040619927E+02  0.47584524600E+02  0.00000000000E+00 0.  1.
         22    1    1    2    0    0  0.61831726446E+02 -0.27730117060E+02 -0.13379271724E+03  0.14997537456E+03  0.00000000000E+00 0.  1.
         22    1    1    2    0    0 -0.87268471747E+01  0.10587035179E+02  0.24762678354E+02  0.28309599340E+02  0.00000000000E+00 0. -1.
</event>
<event>
 6    1  0.1715574E-005  0.3442262E+02  0.7818608E-02  0.1556028E+00
          2   -1    0    0  502    0  0.00000000000E+00  0.00000000000E+00  0.81975501951E+02  0.81975501951E+02  0.00000000000E+00 0. -1.
          1   -1    0    0  501    0 -0.00000000000E+00 -0.00000000000E+00 -0.16457893195E+03  0.16457893195E+03  0.00000000000E+00 0. -1.
          2    1    1    2  501    0  0.30890278113E+02 -0.26317737819E+02  0.28620438553E+02  0.49658454555E+02  0.00000000000E+00 0. -1.
          1    1    1    2  502    0 -0.30333625888E+02  0.15984413852E+02 -0.13411464978E+02  0.36817084873E+02  0.00000000000E+00 0. -1.
         22    1    1    2    0    0  0.25731148066E+02  0.22908350605E+02  0.19235914133E+02  0.39457634252E+02  0.00000000000E+00 0. -1.
         22    1    1    2    0    0 -0.26287800291E+02 -0.12575026637E+02 -0.11704831771E+03  0.12062126023E+03  0.00000000000E+00 0. -1.
</event>
<event>
 6    1  0.1715574E-005  0.4924384E+02  0.7818608E-02  0.1454570E+00
          2   -1    0    0  502    0  0.00000000000E+00  0.00000000000E+00  0.46253604390E+02  0.46253604390E+02  0.00000000000E+00 0. -1.
          1   -1    0    0  501    0 -0.00000000000E+00 -0.00000000000E+00 -0.31855918027E+03  0.31855918027E+03  0.00000000000E+00 0. -1.
          2    1    1    2  501    0  0.48722564732E+00  0.23971569727E+02  0.86134353477E+01  0.25476750430E+02  0.00000000000E+00 0. -1.
          1    1    1    2  502    0  0.12254063233E+02 -0.17456492209E+02 -0.17662678770E+03  0.17790984604E+03  0.00000000000E+00 0. -1.
         22    1    1    2    0    0  0.45985870159E+01 -0.22914155562E+02 -0.12661106787E+03  0.12875002150E+03  0.00000000000E+00 0.  1.
         22    1    1    2    0    0 -0.17339875896E+02  0.16399078044E+02  0.22318844343E+02  0.32676166691E+02  0.00000000000E+00 0. -1.
</event>
<event>
 6    1  0.1715574E-005  0.2099396E+03  0.7818608E-02  0.1179422E+00
          2   -1    0    0  502    0  0.00000000000E+00  0.00000000000E+00  0.50131822476E+03  0.50131822476E+03  0.00000000000E+00 0.  1.
          1   -1    0    0  501    0 -0.00000000000E+00 -0.00000000000E+00 -0.72989282511E+02  0.72989282511E+02  0.00000000000E+00 0.  1.
          2    1    1    2  501    0  0.30082272650E+02 -0.69358580812E+02  0.27421439271E+03  0.28444523028E+03  0.00000000000E+00 0.  1.
          1    1    1    2  502    0 -0.56352118136E+02 -0.20079848661E+02  0.11942122652E+03  0.13356717742E+03  0.00000000000E+00 0.  1.
         22    1    1    2    0    0  0.10174626077E+02 -0.37208813851E+01  0.57936166771E+02  0.58940371514E+02  0.00000000000E+00 0. -1.
         22    1    1    2    0    0  0.16095219409E+02  0.93159310858E+02 -0.23242843758E+02  0.97354728048E+02  0.00000000000E+00 0.  1.
</event>
<event>
 6    1  0.1715574E-005  0.1428890E+03  0.7818608E-02  0.1251412E+00
          2   -1    0    0  502    0  0.00000000000E+00  0.00000000000E+00  0.43726141602E+03  0.43726141602E+03  0.00000000000E+00 0.  1.
          1   -1    0    0  501    0 -0.00000000000E+00 -0.00000000000E+00 -0.10966173420E+03  0.10966173420E+03  0.00000000000E+00 0.  1.
          2    1    1    2  501    0  0.10388351603E+03 -0.13976534303E+02  0.11673256050E+03  0.15688728149E+03  0.00000000000E+00 0.  1.
          1    1    1    2  502    0 -0.13124616496E+03 -0.34735105188E+02 -0.41639359701E+01  0.13582864835E+03  0.00000000000E+00 0.  1.
         22    1    1    2    0    0 -0.20560562024E+02  0.12355565136E+02 -0.63382530807E+01  0.24810686260E+02  0.00000000000E+00 0.  1.
         22    1    1    2    0    0  0.47923210955E+02  0.36356074355E+02  0.22136931037E+03  0.22939653412E+03  0.00000000000E+00 0.  1.
</event>
<event>
 6    1  0.1715574E-005  0.9355208E+02  0.7818608E-02  0.1317086E+00
          2   -1    0    0  502    0  0.00000000000E+00  0.00000000000E+00  0.29050113458E+03  0.29050113458E+03  0.00000000000E+00 0.  1.
          1   -1    0    0  501    0 -0.00000000000E+00 -0.00000000000E+00 -0.98446563343E+02  0.98446563343E+02  0.00000000000E+00 0.  1.
          2    1    1    2  501    0  0.47214621057E+02 -0.13741804023E+02  0.19689261125E+03  0.20294028182E+03  0.00000000000E+00 0.  1.
          1    1    1    2  502    0  0.17434608608E+01  0.35731890004E+02 -0.34182663744E+02  0.49479916326E+02  0.00000000000E+00 0.  1.
         22    1    1    2    0    0 -0.55932842608E+02 -0.11905277838E+02 -0.37619303109E+02  0.68450204448E+02  0.00000000000E+00 0.  1.
         22    1    1    2    0    0  0.69747606909E+01 -0.10084808144E+02  0.66963926840E+02  0.68077295333E+02  0.00000000000E+00 0.  1.
</event>
<event>
 6    1  0.1715574E-005  0.6960585E+02  0.7818608E-02  0.1363768E+00
          2   -1    0    0  502    0  0.00000000000E+00  0.00000000000E+00  0.33522911933E+03  0.33522911933E+03  0.00000000000E+00 0. -1.
          1   -1    0    0  501    0 -0.00000000000E+00 -0.00000000000E+00 -0.40905563680E+02  0.40905563680E+02  0.00000000000E+00 0.  1.
          2    1    1    2  501    0 -0.20878908367E+02  0.31307443047E+02  0.15970596890E+03  0.16407949691E+03  0.00000000000E+00 0. -1.
          1    1    1    2  502    0  0.21772254767E+02 -0.19571266633E+02  0.34693515171E+01  0.29480535192E+02  0.00000000000E+00 0.  1.
         22    1    1    2    0    0 -0.30542329059E+02  0.94188133870E+01  0.14121483391E+03  0.14478666108E+03  0.00000000000E+00 0.  1.
         22    1    1    2    0    0  0.29648982658E+02 -0.21154989801E+02 -0.10066598677E+02  0.37787989826E+02  0.00000000000E+00 0.  1.
</event>
<event>
 6    1  0.1715574E-005  0.1079894E+03  0.7818608E-02  0.1265088E+00
          2   -1    0    0  502    0  0.00000000000E+00  0.00000000000E+00  0.41395971229E+03  0.41395971229E+03  0.00000000000E+00 0. -1.
          1   -1    0    0  501    0 -0.00000000000E+00 -0.00000000000E+00 -0.76230356077E+02  0.76230356077E+02  0.00000000000E+00 0. -1.
          2    1    1    2  501    0  0.55043421907E+02  0.15326804673E+02  0.22528707041E+03  0.23241977827E+03  0.00000000000E+00 0. -1.
          1    1    1    2  502    0 -0.75184917924E+02 -0.31602072122E+02 -0.78741808156E+01  0.81935740486E+02  0.00000000000E+00 0. -1.
         22    1    1    2    0    0 -0.21159586754E+02 -0.83815510842E+01 -0.18239842591E+02  0.29166253924E+02  0.00000000000E+00 0.  1.
         22    1    1    2    0    0  0.41301082771E+02  0.24656818532E+02  0.13855630921E+03  0.14666829569E+03  0.00000000000E+00 0. -1.
</event>
<event>
 6    1  0.1715574E-005  0.1200497E+03  0.7818608E-02  0.1260256E+00
          2   -1    0    0  502    0  0.00000000000E+00  0.00000000000E+00  0.48231843136E+03  0.48231843136E+03  0.00000000000E+00 0. -1.
          1   -1    0    0  501    0 -0.00000000000E+00 -0.00000000000E+00 -0.29437335389E+02  0.29437335389E+02  0.00000000000E+00 0.  1.
          2    1    1    2  501    0  0.34649224347E+02 -0.38396488084E+02  0.15895081088E+03  0.16715328093E+03  0.00000000000E+00 0. -1.
          1    1    1    2  502    0 -0.37035684997E+02  0.19456776338E+02  0.11826741239E+03  0.12544875026E+03  0.00000000000E+00 0.  1.
         22    1    1    2    0    0  0.10061446971E+02 -0.28567722534E+02  0.16765471112E+03  0.17036857000E+03  0.00000000000E+00 0. -1.
         22    1    1    2    0    0 -0.76749863211E+01  0.47507434280E+02  0.80081615899E+01  0.48785165563E+02  0.00000000000E+00 0.  1.
</event>
<event>
 6    1  0.1715574E-005  0.2615332E+03  0.7818608E-02  0.1108004E+00
          2   -1    0    0  502    0  0.00000000000E+00  0.00000000000E+00  0.44533497485E+03  0.44533497485E+03  0.00000000000E+00 0. -1.
          1   -1    0    0  501    0 -0.00000000000E+00 -0.00000000000E+00 -0.24072691092E+03  0.24072691092E+03  0.00000000000E+00 0. -1.
          2    1    1    2  501    0 -0.21632701118E+03 -0.99016218176E+02  0.29369836735E+03  0.37796867358E+03  0.00000000000E+00 0. -1.
          1    1    1    2  502    0  0.11226606875E+03  0.54587345190E+02 -0.11426198986E+02  0.12535552031E+03  0.00000000000E+00 0. -1.
         22    1    1    2    0    0 -0.11264364388E+02 -0.60717762971E+00  0.21389800530E+02  0.24182186345E+02  0.00000000000E+00 0. -1.
         22    1    1    2    0    0  0.11532530681E+03  0.45036050616E+02 -0.99053904968E+02  0.15855550553E+03  0.00000000000E+00 0.  1.
</event>
<event>
 6    1  0.1715574E-005  0.1043145E+03  0.7818608E-02  0.1290190E+00
          2   -1    0    0  502    0  0.00000000000E+00  0.00000000000E+00  0.21452494412E+03  0.21452494412E+03  0.00000000000E+00 0.  1.
          1   -1    0    0  501    0 -0.00000000000E+00 -0.00000000000E+00 -0.25864956491E+03  0.25864956491E+03  0.00000000000E+00 0. -1.
          2    1    1    2  501    0 -0.67533378526E+01  0.23578055511E+02  0.18836935970E+01  0.24598385626E+02  0.00000000000E+00 0.  1.
          1    1    1    2  502    0  0.14615227223E+02 -0.44462089242E+02 -0.22451102016E+03  0.22933748150E+03  0.00000000000E+00 0. -1.
         22    1    1    2    0    0 -0.29069948389E+01 -0.14762429085E+02 -0.15690498129E+02  0.21738713463E+02  0.00000000000E+00 0.  1.
         22    1    1    2    0    0 -0.49548945314E+01  0.35646462816E+02  0.19419320390E+03  0.19749992844E+03  0.00000000000E+00 0.  1.
</event>
<event>
 6    1  0.1715574E-005  0.1611720E+03  0.7818608E-02  0.1189815E+00
          2   -1    0    0  502    0  0.00000000000E+00  0.00000000000E+00  0.29032563705E+02  0.29032563705E+02  0.00000000000E+00 0.  1.
          1   -1    0    0  501    0 -0.00000000000E+00 -0.00000000000E+00 -0.92705631756E+03  0.92705631756E+03  0.00000000000E+00 0. -1.
          2    1    1    2  501    0  0.91747577978E+02 -0.89286534192E+02 -0.29683623467E+03  0.32326684561E+03  0.00000000000E+00 0.  1.
          1    1    1    2  502    0  0.10429862744E+01  0.20289795922E+02 -0.21502246209E+02  0.29582262101E+02  0.00000000000E+00 0. -1.
         22    1    1    2    0    0  0.11899722764E+02  0.20309797330E+01 -0.18757397804E+01  0.12216655855E+02  0.00000000000E+00 0.  1.
         22    1    1    2    0    0 -0.10469028702E+03  0.66965758537E+02 -0.57780953319E+03  0.59102311770E+03  0.00000000000E+00 0. -1.
</event>
<event>
 6    1  0.1715574E-005  0.1933168E+03  0.7818608E-02  0.1213401E+00
          2   -1    0    0  502    0  0.00000000000E+00  0.00000000000E+00  0.44699906255E+02  0.44699906255E+02  0.00000000000E+00 0.  1.
          1   -1    0    0  501    0 -0.00000000000E+00 -0.00000000000E+00 -0.43632413343E+03  0.43632413343E+03  0.00000000000E+00 0. -1.
          2    1    1    2  501    0  0.74786461649E+01 -0.32207929106E+02 -0.90563540625E+01  0.34282625260E+02  0.00000000000E+00 0.  1.
          1    1    1    2  502    0 -0.20939314141E+02 -0.27919584416E+02  0.52333719739E+01  0.35289463766E+02  0.00000000000E+00 0. -1.
         22    1    1    2    0    0  0.18714409142E+02 -0.66416918756E+01 -0.20885196643E+01  0.19967551049E+02  0.00000000000E+00 0.  1.
         22    1    1    2    0    0 -0.52537411660E+01  0.66769205398E+02 -0.38571272542E+03  0.39148439961E+03  0.00000000000E+00 0. -1.
</event>
<event>
 6    1  0.1715574E-005  0.4826259E+02  0.7818608E-02  0.1492507E+00
          2   -1    0    0  502    0  0.00000000000E+00  0.00000000000E+00  0.67972306116E+02  0.67972306116E+02  0.00000000000E+00 0. -1.
          1   -1    0    0  501    0 -0.00000000000E+00 -0.00000000000E+00 -0.30129756262E+03  0.30129756262E+03  0.00000000000E+00 0.  1.
          2    1    1    2  501    0  0.24451206979E+02 -0.16402276856E+02  0.22657316517E+02  0.37151718675E+02  0.00000000000E+00 0. -1.
          1    1    1    2  502    0 -0.27577349678E+02 -0.62494108944E+01 -0.17960032711E+03  0.18181265866E+03  0.00000000000E+00 0.  1.
         22    1    1    2    0    0  0.16999168388E+02 -0.19627808295E+01  0.33086192724E+02  0.37249434673E+02  0.00000000000E+00 0. -1.
         22    1    1    2    0    0 -0.13873025689E+02  0.24614468580E+02 -0.10946843863E+03  0.11305605673E+03  0.00000000000E+00 0.  1.
</event>
<event>
 6    1  0.1715574E-005  0.1330675E+03  0.7818608E-02  0.1225926E+00
          2   -1    0    0  502    0  0.00000000000E+00  0.00000000000E+00  0.72989530527E+02  0.72989530527E+02  0.00000000000E+00 0. -1.
          1   -1    0    0  501    0 -0.00000000000E+00 -0.00000000000E+00 -0.25238970625E+03  0.25238970625E+03  0.00000000000E+00 0. -1.
          2    1    1    2  501    0  0.73485297378E+02 -0.51211915098E+01 -0.25102185160E+02  0.77823102181E+02  0.00000000000E+00 0. -1.
          1    1    1    2  502    0 -0.54395965948E+02 -0.14905717594E+01 -0.94139433706E+02  0.10873534795E+03  0.00000000000E+00 0. -1.
         22    1    1    2    0    0  0.22715894382E+02  0.54837996905E+02 -0.16889957958E+02  0.61712951979E+02  0.00000000000E+00 0. -1.
         22    1    1    2    0    0 -0.41805225812E+02 -0.48226233636E+02 -0.43268598896E+02  0.77107834663E+02  0.00000000000E+00 0.  1.
</event>
<event>
 6    1  0.1715574E-005  0.1956258E+03  0.7818608E-02  0.1155678E+00
          2   -1    0    0  502    0  0.00000000000E+00  0.00000000000E+00  0.20900783558E+03  0.20900783558E+03  0.00000000000E+00 0.  1.
          1   -1    0    0  501    0 -0.00000000000E+00 -0.00000000000E+00 -0.25919199311E+03  0.25919199311E+03  0.00000000000E+00 0. -1.
          2    1    1    2  501    0 -0.21708702973E+02  0.14667135023E+03  0.86843389239E+02  0.17182993633E+03  0.00000000000E+00 0.  1.
          1    1    1    2  502    0  0.49385295224E+00 -0.13335525793E+03 -0.94702259328E+02  0.16356156831E+03  0.00000000000E+00 0. -1.
         22    1    1    2    0    0  0.31807539638E+02  0.34796477037E+02  0.21803177721E+02  0.51941245179E+02  0.00000000000E+00 0.  1.
         22    1    1    2    0    0 -0.10592689618E+02 -0.48112569341E+02 -0.64128465157E+02  0.80867078872E+02  0.00000000000E+00 0. -1.
</event>
<event>
 6    1  0.2445212E-005  0.4893485E+03  0.7818608E-02  0.1020296E+00
          2   -1    0    0  502    0  0.00000000000E+00  0.00000000000E+00  0.18065013502E+04  0.18065013502E+04  0.00000000000E+00 0. -1.
          1   -1    0    0  501    0 -0.00000000000E+00 -0.00000000000E+00 -0.15899275998E+03  0.15899275998E+03  0.00000000000E+00 0. -1.
          2    1    1    2  501    0 -0.40904799419E+03  0.70938948271E+02  0.27209531714E+03  0.49637531923E+03  0.00000000000E+00 0. -1.
          1    1    1    2  502    0  0.22928510725E+03 -0.99645866298E+02  0.10325659709E+04  0.10623998510E+04  0.00000000000E+00 0. -1.
         22    1    1    2    0    0  0.19651425501E+03  0.16237813286E+02  0.31897253304E+03  0.37499999445E+03  0.00000000000E+00 0.  1.
         22    1    1    2    0    0 -0.16751368068E+02  0.12469104741E+02  0.23874769202E+02  0.31718945594E+02  0.00000000000E+00 0. -1.
</event>
<event>
 6    1  0.1715574E-005  0.4877448E+02  0.7818608E-02  0.1456521E+00
          2   -1    0    0  502    0  0.00000000000E+00  0.00000000000E+00  0.16280052037E+03  0.16280052037E+03  0.00000000000E+00 0. -1.
          1   -1    0    0  501    0 -0.00000000000E+00 -0.00000000000E+00 -0.93988382966E+02  0.93988382966E+02  0.00000000000E+00 0.  1.
          2    1    1    2  501    0  0.12751957285E+02  0.20767732463E+02  0.62898585648E+02  0.67454749298E+02  0.00000000000E+00 0. -1.
          1    1    1    2  502    0  0.36986312397E+02 -0.29985779815E+02 -0.25726518438E+02  0.54120126078E+02  0.00000000000E+00 0.  1.
         22    1    1    2    0    0 -0.42771512788E+02 -0.16077708962E+02 -0.38864166396E+02  0.59985985540E+02  0.00000000000E+00 0.  1.
         22    1    1    2    0    0 -0.69667568940E+01  0.25295756313E+02  0.70504236587E+02  0.75228042417E+02  0.00000000000E+00 0. -1.
</event>
<event>
 6    1  0.1715574E-005  0.1603380E+03  0.7818608E-02  0.1209176E+00
          2   -1    0    0  502    0  0.00000000000E+00  0.00000000000E+00  0.26482552321E+02  0.26482552321E+02  0.00000000000E+00 0.  1.
          1   -1    0    0  501    0 -0.00000000000E+00 -0.00000000000E+00 -0.69888609469E+03  0.69888609469E+03  0.00000000000E+00 0.  1.
          2    1    1    2  501    0 -0.11475585737E+02  0.41335216391E+02 -0.13407944424E+03  0.14077495001E+03  0.00000000000E+00 0.  1.
          1    1    1    2  502    0 -0.70536461877E+02  0.36095600491E+01 -0.21232075261E+03  0.22375996820E+03  0.00000000000E+00 0.  1.
         22    1    1    2    0    0  0.10687654647E+03 -0.31783513173E+02 -0.17696629350E+03  0.20916466463E+03  0.00000000000E+00 0.  1.
         22    1    1    2    0    0 -0.24864498854E+02 -0.13161263267E+02 -0.14903705202E+03  0.15166906418E+03  0.00000000000E+00 0.  1.
</event>
<event>
 6    1  0.1715574E-005  0.4462795E+02  0.7818608E-02  0.1522092E+00
          2   -1    0    0  502    0  0.00000000000E+00  0.00000000000E+00  0.48633547369E+02  0.48633547369E+02  0.00000000000E+00 0. -1.
          1   -1    0    0  501    0 -0.00000000000E+00 -0.00000000000E+00 -0.44071745353E+03  0.44071745353E+03  0.00000000000E+00 0.  1.
          2    1    1    2  501    0 -0.25473515656E+02 -0.27852986879E+02 -0.37139736611E+01  0.37927331548E+02  0.00000000000E+00 0. -1.
          1    1    1    2  502    0  0.69135474852E+02 -0.63750561570E+01 -0.23895635689E+03  0.24883829231E+03  0.00000000000E+00 0.  1.
         22    1    1    2    0    0 -0.21525355331E+02  0.20212447266E+01  0.19557693974E+02  0.29153554602E+02  0.00000000000E+00 0.  1.
         22    1    1    2    0    0 -0.22136603865E+02  0.32206798310E+02 -0.16897126958E+03  0.17343182243E+03  0.00000000000E+00 0.  1.
</event>
<event>
 6    1  0.1715574E-005  0.5139294E+02  0.7818608E-02  0.1510135E+00
          2   -1    0    0  502    0  0.00000000000E+00  0.00000000000E+00  0.51350198355E+03  0.51350198355E+03  0.00000000000E+00 0. -1.
          1   -1    0    0  501    0 -0.00000000000E+00 -0.00000000000E+00 -0.74887833663E+02  0.74887833663E+02  0.00000000000E+00 0.  1.
          2    1    1    2  501    0  0.56965932907E+02 -0.25073711412E+02  0.32237636539E+03  0.32832960494E+03  0.00000000000E+00 0. -1.
          1    1    1    2  502    0 -0.85314886436E+02 -0.96697047398E+01  0.18646298139E+01  0.85881370982E+02  0.00000000000E+00 0.  1.
         22    1    1    2    0    0  0.50559242436E+01  0.10959597381E+02 -0.26662714476E+02  0.29267310910E+02  0.00000000000E+00 0.  1.
         22    1    1    2    0    0  0.23293029286E+02  0.23783818771E+02  0.14103586916E+03  0.14491153038E+03  0.00000000000E+00 0. -1.
</event>
<event>
 6    1  0.1715574E-005  0.5001485E+02  0.7818608E-02  0.1445573E+00
          2   -1    0    0  502    0  0.00000000000E+00  0.00000000000E+00  0.15890824028E+03  0.15890824028E+03  0.00000000000E+00 0. -1.
          1   -1    0    0  501    0 -0.00000000000E+00 -0.00000000000E+00 -0.13066246770E+03  0.13066246770E+03  0.00000000000E+00 0.  1.
          2    1    1    2  501    0 -0.21651508573E+02 -0.11508485455E+02  0.57472892110E+02  0.62484929291E+02  0.00000000000E+00 0. -1.
          1    1    1    2  502    0  0.27190163156E+02  0.17826554367E+02 -0.81363696899E+02  0.87619302588E+02  0.00000000000E+00 0.  1.
         22    1    1    2    0    0 -0.22655594789E+02 -0.84510909365E+01  0.92480641012E+02  0.95589569908E+02  0.00000000000E+00 0. -1.
         22    1    1    2    0    0  0.17116940206E+02  0.21330220245E+01 -0.40344063646E+02  0.43876906186E+02  0.00000000000E+00 0.  1.
</event>
<event>
 6    1  0.1715574E-005  0.6979987E+02  0.7818608E-02  0.1361354E+00
          2   -1    0    0  502    0  0.00000000000E+00  0.00000000000E+00  0.33945173355E+03  0.33945173355E+03  0.00000000000E+00 0. -1.
          1   -1    0    0  501    0 -0.00000000000E+00 -0.00000000000E+00 -0.34733411187E+02  0.34733411187E+02  0.00000000000E+00 0.  1.
          2    1    1    2  501    0  0.36002442849E+02 -0.26489326236E+01  0.16016112135E+03  0.16417910198E+03  0.00000000000E+00 0. -1.
          1    1    1    2  502    0 -0.25226298079E+02  0.15619926064E+01  0.10199778596E+02  0.27255117300E+02  0.00000000000E+00 0.  1.
         22    1    1    2    0    0  0.31277388953E+02  0.10454236386E+02  0.13569608797E+03  0.13964596094E+03  0.00000000000E+00 0. -1.
         22    1    1    2    0    0 -0.42053533724E+02 -0.93672963690E+01 -0.13386655533E+01  0.43104964510E+02  0.00000000000E+00 0.  1.
</event>
<event>
 6    1  0.1715574E-005  0.1859733E+03  0.7818608E-02  0.1162862E+00
          2   -1    0    0  502    0  0.00000000000E+00  0.00000000000E+00  0.10125776892E+04  0.10125776892E+04  0.00000000000E+00 0.  1.
          1   -1    0    0  501    0 -0.00000000000E+00 -0.00000000000E+00 -0.14362429009E+03  0.14362429009E+03  0.00000000000E+00 0. -1.
          2    1    1    2  501    0  0.93193025622E+02  0.11428573291E+03  0.77569327401E+03  0.78958610937E+03  0.00000000000E+00 0.  1.
          1    1    1    2  502    0 -0.66169313259E+02 -0.11998586486E+03 -0.72003903999E+02  0.15478872044E+03  0.00000000000E+00 0. -1.
         22    1    1    2    0    0 -0.31635761004E+00  0.37994234486E+02  0.16561615843E+03  0.16991872725E+03  0.00000000000E+00 0. -1.
         22    1    1    2    0    0 -0.26707354752E+02 -0.32294102539E+02 -0.35212936012E+00  0.41908422205E+02  0.00000000000E+00 0. -1.
</event>
<event>
 6    1  0.1715574E-005  0.2164833E+03  0.7818608E-02  0.1187003E+00
          2   -1    0    0  502    0  0.00000000000E+00  0.00000000000E+00  0.25436519258E+03  0.25436519258E+03  0.00000000000E+00 0. -1.
          1   -1    0    0  501    0 -0.00000000000E+00 -0.00000000000E+00 -0.35287730266E+03  0.35287730266E+03  0.00000000000E+00 0.  1.
          2    1    1    2  501    0 -0.48757818043E+02  0.19031375668E+03 -0.62998960134E+02  0.20631412889E+03  0.00000000000E+00 0. -1.
          1    1    1    2  502    0  0.60281296427E+02 -0.18544994241E+03  0.95480090769E+02  0.21712200159E+03  0.00000000000E+00 0.  1.
         22    1    1    2    0    0  0.45212951254E+01  0.60257808579E+02 -0.48463914358E+02  0.77460935957E+02  0.00000000000E+00 0.  1.
         22    1    1    2    0    0 -0.16044773510E+02 -0.65121622848E+02 -0.82529326355E+02  0.10634542881E+03  0.00000000000E+00 0.  1.
</event>
<event>
 6    1  0.1715574E-005  0.1597935E+03  0.7818608E-02  0.1314166E+00
          2   -1    0    0  502    0  0.00000000000E+00  0.00000000000E+00  0.30680902132E+03  0.30680902132E+03  0.00000000000E+00 0. -1.
          1   -1    0    0  501    0 -0.00000000000E+00 -0.00000000000E+00 -0.29225954035E+03  0.29225954035E+03  0.00000000000E+00 0. -1.
          2    1    1    2  501    0 -0.12892826433E+03 -0.90311581006E+02  0.18118929827E+03  0.24001716775E+03  0.00000000000E+00 0. -1.
          1    1    1    2  502    0  0.92074652538E+02  0.90707456158E+02 -0.18209019776E+03  0.22329895737E+03  0.00000000000E+00 0. -1.
         22    1    1    2    0    0  0.86058107846E+01 -0.98621159269E+01  0.71279772966E+02  0.72471562311E+02  0.00000000000E+00 0. -1.
         22    1    1    2    0    0  0.28247801009E+02  0.94662407748E+01 -0.55829392512E+02  0.63280874239E+02  0.00000000000E+00 0. -1.
</event>
<event>
 6    1  0.1715574E-005  0.5009883E+02  0.7818608E-02  0.1490677E+00
          2   -1    0    0  502    0  0.00000000000E+00  0.00000000000E+00  0.10059015667E+03  0.10059015667E+03  0.00000000000E+00 0. -1.
          1   -1    0    0  501    0 -0.00000000000E+00 -0.00000000000E+00 -0.40248316208E+03  0.40248316208E+03  0.00000000000E+00 0. -1.
          2    1    1    2  501    0 -0.76304976873E+01  0.19211252505E+02  0.45282049566E+02  0.49777110509E+02  0.00000000000E+00 0. -1.
          1    1    1    2  502    0  0.31757693080E+02 -0.36797726470E+02 -0.32062746862E+03  0.32429091473E+03  0.00000000000E+00 0. -1.
         22    1    1    2    0    0 -0.85285330804E+00  0.28975155941E+02  0.44652683789E+02  0.53236727831E+02  0.00000000000E+00 0.  1.
         22    1    1    2    0    0 -0.23274342085E+02 -0.11388681975E+02 -0.71200270141E+02  0.75768565677E+02  0.00000000000E+00 0.  1.
</event>
<event>
 6    1  0.1715574E-005  0.1328033E+03  0.7818608E-02  0.1224871E+00
          2   -1    0    0  502    0  0.00000000000E+00  0.00000000000E+00  0.14786372801E+03  0.14786372801E+03  0.00000000000E+00 0.  1.
          1   -1    0    0  501    0 -0.00000000000E+00 -0.00000000000E+00 -0.39237805987E+03  0.39237805987E+03  0.00000000000E+00 0. -1.
          2    1    1    2  501    0  0.14196094580E+02 -0.96035399142E+02  0.90704024003E+02  0.13285912449E+03  0.00000000000E+00 0.  1.
          1    1    1    2  502    0 -0.27554843987E+02  0.91612049447E+02 -0.21178928799E+03  0.23239350150E+03  0.00000000000E+00 0. -1.
         22    1    1    2    0    0  0.11003901018E+02 -0.27931867472E+02  0.14469373019E+02  0.33326233115E+02  0.00000000000E+00 0. -1.
         22    1    1    2    0    0  0.23548483896E+01  0.32355217166E+02 -0.13789844089E+03  0.14166292878E+03  0.00000000000E+00 0. -1.
</event>
<event>
 6    1  0.1715574E-005  0.6026604E+02  0.7818608E-02  0.1399090E+00
          2   -1    0    0  502    0  0.00000000000E+00  0.00000000000E+00  0.55278406859E+02  0.55278406859E+02  0.00000000000E+00 0. -1.
          1   -1    0    0  501    0 -0.00000000000E+00 -0.00000000000E+00 -0.33103496226E+03  0.33103496226E+03  0.00000000000E+00 0. -1.
          2    1    1    2  501    0 -0.27214175371E+01 -0.20411458913E+02 -0.19284634963E+01  0.20682184117E+02  0.00000000000E+00 0. -1.
          1    1    1    2  502    0 -0.94273820618E+01  0.34294546223E+02 -0.22209200116E+03  0.22492187179E+03  0.00000000000E+00 0. -1.
         22    1    1    2    0    0  0.18418972979E+02  0.14062312077E+02 -0.89987874118E+02  0.92923757322E+02  0.00000000000E+00 0.  1.
         22    1    1    2    0    0 -0.62701733803E+01 -0.27945399386E+02  0.38251783367E+02  0.47785555891E+02  0.00000000000E+00 0. -1.
</event>
<event>
 6    1  0.1715574E-005  0.4117427E+02  0.7818608E-02  0.1501347E+00
          2   -1    0    0  502    0  0.00000000000E+00  0.00000000000E+00  0.31407770185E+03  0.31407770185E+03  0.00000000000E+00 0. -1.
          1   -1    0    0  501    0 -0.00000000000E+00 -0.00000000000E+00 -0.15124383854E+03  0.15124383854E+03  0.00000000000E+00 0.  1.
          2    1    1    2  501    0  0.13383298220E+02 -0.20114900091E+02  0.24648024870E+03  0.24766153290E+03  0.00000000000E+00 0. -1.
          1    1    1    2  502    0 -0.17660522236E+02  0.12174339040E+02 -0.90751157207E+02  0.93251708355E+02  0.00000000000E+00 0.  1.
         22    1    1    2    0    0  0.81775239724E+01 -0.10771043149E+02  0.63467763355E+02  0.64892559312E+02  0.00000000000E+00 0.  1.
         22    1    1    2    0    0 -0.39002999558E+01  0.18711604201E+02 -0.56362991541E+02  0.59515739826E+02  0.00000000000E+00 0.  1.
</event>
<event>
 6    1  0.1715574E-005  0.1273461E+03  0.7818608E-02  0.1250671E+00
          2   -1    0    0  502    0  0.00000000000E+00  0.00000000000E+00  0.42141995241E+03  0.42141995241E+03  0.00000000000E+00 0.  1.
          1   -1    0    0  501    0 -0.00000000000E+00 -0.00000000000E+00 -0.54975117589E+02  0.54975117589E+02  0.00000000000E+00 0. -1.
          2    1    1    2  501    0 -0.12686672140E+02 -0.24893388919E+02  0.17249840756E+02  0.32835795528E+02  0.00000000000E+00 0.  1.
          1    1    1    2  502    0  0.56003713646E+02  0.10259561735E+02 -0.11540445642E+02  0.58093514567E+02  0.00000000000E+00 0. -1.
         22    1    1    2    0    0 -0.63992013868E+02 -0.21400408838E+01  0.35150283882E+03  0.35728672423E+03  0.00000000000E+00 0.  1.
         22    1    1    2    0    0  0.20674972361E+02  0.16773868068E+02  0.92326008832E+01  0.28179035668E+02  0.00000000000E+00 0. -1.
</event>
<event>
 6    1  0.1715574E-005  0.4429066E+02  0.7818608E-02  0.1560881E+00
          2   -1    0    0  502    0  0.00000000000E+00  0.00000000000E+00  0.17010601575E+03  0.17010601575E+03  0.00000000000E+00 0.  1.
          1   -1    0    0  501    0 -0.00000000000E+00 -0.00000000000E+00 -0.98583101861E+02  0.98583101861E+02  0.00000000000E+00 0. -1.
          2    1    1    2  501    0  0.22332648351E+02  0.23141915426E+02  0.92458319871E+02  0.97891962618E+02  0.00000000000E+00 0.  1.
          1    1    1    2  502    0 -0.31128257065E+02 -0.17205699246E+02 -0.23839988630E+02  0.42817631092E+02  0.00000000000E+00 0. -1.
         22    1    1    2    0    0  0.66092143751E+01  0.86667349450E+01  0.64104026100E+02  0.65023996890E+02  0.00000000000E+00 0. -1.
         22    1    1    2    0    0  0.21863943392E+01 -0.14602951125E+02 -0.61199443455E+02  0.62955527009E+02  0.00000000000E+00 0. -1.
</event>
<event>
 6    1  0.1715574E-005  0.1392762E+03  0.7818608E-02  0.1224864E+00
          2   -1    0    0  502    0  0.00000000000E+00  0.00000000000E+00  0.93801766570E+03  0.93801766570E+03  0.00000000000E+00 0. -1.
          1   -1    0    0  501    0 -0.00000000000E+00 -0.00000000000E+00 -0.22263073742E+02  0.22263073742E+02  0.00000000000E+00 0. -1.
          2    1    1    2  501    0 -0.24501406312E+01  0.21033153514E+02  0.52431360091E+00  0.21181870565E+02  0.00000000000E+00 0. -1.
          1    1    1    2  502    0  0.37801293656E+02 -0.56146247181E+02  0.42103082756E+03  0.42643674399E+03  0.00000000000E+00 0. -1.
         22    1    1    2    0    0 -0.38656242047E+02  0.78618463809E+02  0.25805244487E+03  0.27251831536E+03  0.00000000000E+00 0. -1.
         22    1    1    2    0    0  0.33050890225E+01 -0.43505370142E+02  0.23614700593E+03  0.24014380952E+03  0.00000000000E+00 0. -1.
</event>
<event>
 6    1  0.1715574E-005  0.7785413E+02  0.7818608E-02  0.1452081E+00
          2   -1    0    0  502    0  0.00000000000E+00  0.00000000000E+00  0.25822308893E+03  0.25822308893E+03  0.00000000000E+00 0.  1.
          1   -1    0    0  501    0 -0.00000000000E+00 -0.00000000000E+00 -0.23676044156E+03  0.23676044156E+03  0.00000000000E+00 0.  1.
          2    1    1    2  501    0 -0.11734940467E+02  0.16533248785E+02  0.56612436129E+02  0.60133393947E+02  0.00000000000E+00 0.  1.
          1    1    1    2  502    0  0.28543905231E+02 -0.62569116507E+02 -0.20574076353E+03  0.21693065861E+03  0.00000000000E+00 0.  1.
         22    1    1    2    0    0 -0.57286597365E+01 -0.10533360051E+02 -0.17488746396E+02  0.21204373766E+02  0.00000000000E+00 0. -1.
         22    1    1    2    0    0 -0.11080305027E+02  0.56569227773E+02  0.18807972117E+03  0.19671510417E+03  0.00000000000E+00 0.  1.
</event>
<event>
 6    1  0.1715574E-005  0.4036072E+02  0.7818608E-02  0.1533941E+00
          2   -1    0    0  502    0  0.00000000000E+00  0.00000000000E+00  0.41011998125E+03  0.41011998125E+03  0.00000000000E+00 0. -1.
          1   -1    0    0  501    0 -0.00000000000E+00 -0.00000000000E+00 -0.44569648895E+03  0.44569648895E+03  0.00000000000E+00 0.  1.
          2    1    1    2  501    0 -0.26361290597E+02  0.54838700858E+02  0.32986279320E+03  0.33542758249E+03  0.00000000000E+00 0. -1.
          1    1    1    2  502    0  0.13829493410E+02 -0.68397263250E+02 -0.38950251192E+03  0.39570398949E+03  0.00000000000E+00 0.  1.
         22    1    1    2    0    0  0.28416493835E+02  0.23564191582E+01  0.69577642000E+02  0.75193737102E+02  0.00000000000E+00 0. -1.
         22    1    1    2    0    0 -0.15884696649E+02  0.11202143234E+02 -0.45514430987E+02  0.49491161117E+02  0.00000000000E+00 0.  1.
</event>
<event>
 6    1  0.1715574E-005  0.8286115E+02  0.7818608E-02  0.1321693E+00
          2   -1    0    0  502    0  0.00000000000E+00  0.00000000000E+00  0.72366606806E+02  0.72366606806E+02  0.00000000000E+00 0. -1.
          1   -1    0    0  501    0 -0.00000000000E+00 -0.00000000000E+00 -0.33063559271E+03  0.33063559271E+03  0.00000000000E+00 0. -1.
          2    1    1    2  501    0  0.19157186571E+02 -0.24522348089E+02  0.19673538675E+02  0.36815641745E+02  0.00000000000E+00 0. -1.
          1    1    1    2  502    0 -0.29830036837E+02  0.58266362219E+02 -0.21018202725E+03  0.22013923922E+03  0.00000000000E+00 0. -1.
         22    1    1    2    0    0  0.14912818282E+02 -0.48357730962E+02  0.21874195591E+02  0.55130234224E+02  0.00000000000E+00 0. -1.
         22    1    1    2    0    0 -0.42399680163E+01  0.14613716831E+02 -0.89634692911E+02  0.90917084322E+02  0.00000000000E+00 0.  1.
</event>
<event>
 6    1  0.1715574E-005  0.1105239E+03  0.7818608E-02  0.1268040E+00
          2   -1    0    0  502    0  0.00000000000E+00  0.00000000000E+00  0.12139328374E+03  0.12139328374E+03  0.00000000000E+00 0. -1.
          1   -1    0    0  501    0 -0.00000000000E+00 -0.00000000000E+00 -0.14726082651E+03  0.14726082651E+03  0.00000000000E+00 0.  1.
          2    1    1    2  501    0 -0.29093894071E+02 -0.45581300935E+02  0.21429025667E+01  0.54117480526E+02  0.00000000000E+00 0. -1.
          1    1    1    2  502    0  0.33157962886E+02  0.15645709988E+02 -0.67386704791E+02  0.76715101032E+02  0.00000000000E+00 0.  1.
         22    1    1    2    0    0  0.26787578043E+02  0.42818102503E+02 -0.31451607656E+02  0.59499309773E+02  0.00000000000E+00 0.  1.
         22    1    1    2    0    0 -0.30851646858E+02 -0.12882511556E+02  0.70827867103E+02  0.78322218918E+02  0.00000000000E+00 0. -1.
</event>
<event>
 6    1  0.1715574E-005  0.7667017E+02  0.7818608E-02  0.1359503E+00
          2   -1    0    0  502    0  0.00000000000E+00  0.00000000000E+00  0.52709379095E+03  0.52709379095E+03  0.00000000000E+00 0.  1.
          1   -1    0    0  501    0 -0.00000000000E+00 -0.00000000000E+00 -0.41937739652E+02  0.41937739652E+02  0.00000000000E+00 0. -1.
          2    1    1    2  501    0  0.87558997791E+01  0.26064940820E+02  0.27032262485E+03  0.27171744226E+03  0.00000000000E+00 0.  1.
          1    1    1    2  502    0  0.20911032926E+02 -0.16793277760E+02 -0.17037334387E+02  0.31773514740E+02  0.00000000000E+00 0. -1.
         22    1    1    2    0    0  0.14405455554E+02 -0.21130669925E+02 -0.34762127136E+01  0.25809037487E+02  0.00000000000E+00 0. -1.
         22    1    1    2    0    0 -0.44072388259E+02  0.11859006865E+02  0.23534697355E+03  0.23973153612E+03  0.00000000000E+00 0.  1.
</event>
<event>
 6    1  0.1715574E-005  0.3471973E+03  0.7818608E-02  0.1093853E+00
          2   -1    0    0  502    0  0.00000000000E+00  0.00000000000E+00  0.87030975101E+03  0.87030975101E+03  0.00000000000E+00 0.  1.
          1   -1    0    0  501    0 -0.00000000000E+00 -0.00000000000E+00 -0.37042529366E+03  0.37042529366E+03  0.00000000000E+00 0. -1.
          2    1    1    2  501    0 -0.31434401869E+03 -0.17647751107E+03  0.64646247021E+03  0.74018254464E+03  0.00000000000E+00 0.  1.
          1    1    1    2  502    0  0.17097924502E+03  0.22040671274E+03 -0.56836363450E+02  0.28468121374E+03  0.00000000000E+00 0. -1.
         22    1    1    2    0    0 -0.64639717714E+01 -0.79063089398E+01  0.22846285302E+02  0.25024895688E+02  0.00000000000E+00 0.  1.
         22    1    1    2    0    0  0.14982874544E+03 -0.36022892731E+02 -0.11258793471E+03  0.19084639060E+03  0.00000000000E+00 0.  1.
</event>
<event>
 6    1  0.1715574E-005  0.1211239E+03  0.7818608E-02  0.1243168E+00
          2   -1    0    0  502    0  0.00000000000E+00  0.00000000000E+00  0.34135425732E+03  0.34135425732E+03  0.00000000000E+00 0. -1.
          1   -1    0    0  501    0 -0.00000000000E+00 -0.00000000000E+00 -0.64049321509E+02  0.64049321509E+02  0.00000000000E+00 0. -1.
          2    1    1    2  501    0  0.22118456854E+02  0.88550376668E+01  0.19647438870E+02  0.30881380796E+02  0.00000000000E+00 0. -1.
          1    1    1    2  502    0 -0.79913741294E+02 -0.31064578615E+02  0.51244215740E+01  0.85892221933E+02  0.00000000000E+00 0. -1.
         22    1    1    2    0    0  0.86613115009E+02  0.14873379675E+02  0.24136342903E+03  0.25686446618E+03  0.00000000000E+00 0. -1.
         22    1    1    2    0    0 -0.28817830568E+02  0.73361612730E+01  0.11169646335E+02  0.31765509915E+02  0.00000000000E+00 0.  1.
</event>
<event>
 6    1  0.1715574E-005  0.7418903E+02  0.7818608E-02  0.1396321E+00
          2   -1    0    0  502    0  0.00000000000E+00  0.00000000000E+00  0.23908023897E+03  0.23908023897E+03  0.00000000000E+00 0. -1.
          1   -1    0    0  501    0 -0.00000000000E+00 -0.00000000000E+00 -0.64907757944E+02  0.64907757944E+02  0.00000000000E+00 0.  1.
          2    1    1    2  501    0  0.21122489530E+02 -0.29115372447E+02  0.53037536685E+02  0.64084668793E+02  0.00000000000E+00 0. -1.
          1    1    1    2  502    0 -0.62280542308E+02  0.59675704140E+01  0.72609418109E+02  0.95846781088E+02  0.00000000000E+00 0.  1.
         22    1    1    2    0    0 -0.32394354353E+01  0.32348217938E+02 -0.35772749146E+02  0.48338294624E+02  0.00000000000E+00 0.  1.
         22    1    1    2    0    0  0.44397488214E+02 -0.92004159056E+01  0.84298275382E+02  0.95718252413E+02  0.00000000000E+00 0. -1.
</event>
<event>
 6    1  0.1715574E-005  0.1077761E+03  0.7818608E-02  0.1289224E+00
          2   -1    0    0  502    0  0.00000000000E+00  0.00000000000E+00  0.22615636170E+02  0.22615636170E+02  0.00000000000E+00 0.  1.
          1   -1    0    0  501    0 -0.00000000000E+00 -0.00000000000E+00 -0.53989713080E+03  0.53989713080E+03  0.00000000000E+00 0. -1.
          2    1    1    2  501    0  0.14055770056E+02  0.27370492734E+02 -0.14194831237E+03  0.14524473115E+03  0.00000000000E+00 0.  1.
          1    1    1    2  502    0  0.20841320456E+02 -0.25192652548E+02 -0.19211513737E+03  0.19487754203E+03  0.00000000000E+00 0. -1.
         22    1    1    2    0    0 -0.29915736947E+02 -0.17736252978E+02 -0.19759283734E+03  0.20063014568E+03  0.00000000000E+00 0. -1.
         22    1    1    2    0    0 -0.49813535647E+01  0.15558412792E+02  0.14374792446E+02  0.21760348109E+02  0.00000000000E+00 0.  1.
</event>
<event>
 6    1  0.1715574E-005  0.1106681E+03  0.7818608E-02  0.1261296E+00
          2   -1    0    0  502    0  0.00000000000E+00  0.00000000000E+00  0.43006626709E+03  0.43006626709E+03  0.00000000000E+00 0. -1.
          1   -1    0    0  501    0 -0.00000000000E+00 -0.00000000000E+00 -0.94960314697E+02  0.94960314697E+02  0.00000000000E+00 0.  1.
          2    1    1    2  501    0  0.49798403525E+01  0.32434766583E+02  0.15179365208E+03  0.15530011496E+03  0.00000000000E+00 0. -1.
          1    1    1    2  502    0  0.27741651874E+02 -0.90061621149E+02 -0.41311673585E+02  0.10289484548E+03  0.00000000000E+00 0.  1.
         22    1    1    2    0    0  0.68538720994E+01 -0.74869192377E+01 -0.13456214967E+02  0.16855243803E+02  0.00000000000E+00 0.  1.
         22    1    1    2    0    0 -0.39575364325E+02  0.65113773804E+02  0.23808018886E+03  0.24997637754E+03  0.00000000000E+00 0. -1.
</event>
<event>
 6    1  0.2057528E-005  0.6461152E+02  0.7818608E-02  0.1425823E+00
          2   -1    0    0  502    0  0.00000000000E+00  0.00000000000E+00  0.26731819116E+03  0.26731819116E+03  0.00000000000E+00 0. -1.
          1   -1    0    0  501    0 -0.00000000000E+00 -0.00000000000E+00 -0.57331840845E+03  0.57331840845E+03  0.00000000000E+00 0. -1.
          2    1    1    2  501    0  0.90059887118E+02  0.77569566271E+02  0.19789030048E+03  0.23084278612E+03  0.00000000000E+00 0. -1.
          1    1    1    2  502    0 -0.10523502522E+03 -0.65600885989E+02 -0.46046572914E+03  0.47687165411E+03  0.00000000000E+00 0. -1.
         22    1    1    2    0    0 -0.36176264045E+01  0.15484465501E+02  0.40034138278E+02  0.43076537934E+02  0.00000000000E+00 0. -1.
         22    1    1    2    0    0  0.18792764512E+02 -0.27453145783E+02 -0.83458926910E+02  0.89845621443E+02  0.00000000000E+00 0.  1.
</event>
<event>
 6    1  0.1715574E-005  0.1243464E+03  0.7818608E-02  0.1261987E+00
          2   -1    0    0  502    0  0.00000000000E+00  0.00000000000E+00  0.10676220051E+04  0.10676220051E+04  0.00000000000E+00 0. -1.
          1   -1    0    0  501    0 -0.00000000000E+00 -0.00000000000E+00 -0.11981583032E+02  0.11981583032E+02  0.00000000000E+00 0. -1.
          2    1    1    2  501    0  0.15823878384E+00 -0.26936372076E+02  0.47429867339E+03  0.47506296926E+03  0.00000000000E+00 0. -1.
          1    1    1    2  502    0 -0.30956811720E+02 -0.14679432904E+02  0.13669570644E+03  0.14092383085E+03  0.00000000000E+00 0. -1.
         22    1    1    2    0    0  0.54903252061E+02  0.59576701826E+02  0.40918765858E+03  0.41713102309E+03  0.00000000000E+00 0. -1.
         22    1    1    2    0    0 -0.24104679125E+02 -0.17960896846E+02  0.35458383700E+02  0.46485764981E+02  0.00000000000E+00 0. -1.
</event>
<event>
 6    1  0.1715574E-005  0.5839024E+02  0.7818608E-02  0.1410620E+00
          2   -1    0    0  502    0  0.00000000000E+00  0.00000000000E+00  0.14712562454E+03  0.14712562454E+03  0.00000000000E+00 0.  1.
          1   -1    0    0  501    0 -0.00000000000E+00 -0.00000000000E+00 -0.55194441166E+03  0.55194441166E+03  0.00000000000E+00 0.  1.
          2    1    1    2  501    0  0.47829571003E+02 -0.12129002911E+03  0.23365503192E+02  0.13245710915E+03  0.00000000000E+00 0.  1.
          1    1    1    2  502    0 -0.11324457940E+02  0.13171687743E+03 -0.41546546403E+03  0.43599212258E+03  0.00000000000E+00 0.  1.
         22    1    1    2    0    0 -0.15797854540E+02 -0.18533675341E+02  0.54567409119E+02  0.59755095746E+02  0.00000000000E+00 0.  1.
         22    1    1    2    0    0 -0.20707258524E+02  0.81068270270E+01 -0.67286235396E+02  0.70865708730E+02  0.00000000000E+00 0.  1.
</event>
<event>
 6    1  0.1715574E-005  0.4674175E+02  0.7818608E-02  0.1508138E+00
          2   -1    0    0  502    0  0.00000000000E+00  0.00000000000E+00  0.12910246053E+03  0.12910246053E+03  0.00000000000E+00 0. -1.
          1   -1    0    0  501    0 -0.00000000000E+00 -0.00000000000E+00 -0.12726072615E+03  0.12726072615E+03  0.00000000000E+00 0.  1.
          2    1    1    2  501    0 -0.95656721224E+00 -0.32575869097E+02  0.36885237216E+02  0.49220148240E+02  0.00000000000E+00 0. -1.
          1    1    1    2  502    0  0.12762447295E+02  0.29981444596E+02 -0.66260081513E+02  0.73838780347E+02  0.00000000000E+00 0.  1.
         22    1    1    2    0    0  0.12748494858E+02  0.77672669524E+01 -0.47968791529E+02  0.50238028602E+02  0.00000000000E+00 0.  1.
         22    1    1    2    0    0 -0.24554374940E+02 -0.51728424514E+01  0.79185370206E+02  0.83066229495E+02  0.00000000000E+00 0. -1.
</event>
<event>
 6    1  0.1715574E-005  0.1245431E+03  0.7818608E-02  0.1298714E+00
          2   -1    0    0  502    0  0.00000000000E+00  0.00000000000E+00  0.76336126566E+02  0.76336126566E+02  0.00000000000E+00 0.  1.
          1   -1    0    0  501    0 -0.00000000000E+00 -0.00000000000E+00 -0.64810939727E+03  0.64810939727E+03  0.00000000000E+00 0. -1.
          2    1    1    2  501    0 -0.15240762152E+02  0.39309416857E+02 -0.13982977326E+02  0.44418855676E+02  0.00000000000E+00 0.  1.
          1    1    1    2  502    0  0.60221186510E+02 -0.78748783697E+02 -0.52447733263E+03  0.53376439998E+03  0.00000000000E+00 0. -1.
         22    1    1    2    0    0 -0.12364199105E+02 -0.34503672108E+02 -0.51705736604E+02  0.63378703096E+02  0.00000000000E+00 0. -1.
         22    1    1    2    0    0 -0.32616225253E+02  0.73943038948E+02  0.18392775854E+02  0.82883565091E+02  0.00000000000E+00 0.  1.
</event>
<event>
 6    1  0.1715574E-005  0.3583130E+02  0.7818608E-02  0.1621400E+00
          2   -1    0    0  502    0  0.00000000000E+00  0.00000000000E+00  0.23866145201E+03  0.23866145201E+03  0.00000000000E+00 0.  1.
          1   -1    0    0  501    0 -0.00000000000E+00 -0.00000000000E+00 -0.18174010047E+03  0.18174010047E+03  0.00000000000E+00 0.  1.
          2    1    1    2  501    0 -0.35121774509E+02 -0.24143725649E+02  0.18909857834E+03  0.19384202553E+03  0.00000000000E+00 0.  1.
          1    1    1    2  502    0  0.32014633344E+02  0.50112909140E+01 -0.91308932486E+02  0.96888445837E+02  0.00000000000E+00 0.  1.
         22    1    1    2    0    0  0.45897975091E+01 -0.96570983055E+01  0.41263876302E+02  0.42626673297E+02  0.00000000000E+00 0. -1.
         22    1    1    2    0    0 -0.14826563450E+01  0.28789533041E+02 -0.82132170608E+02  0.87044407812E+02  0.00000000000E+00 0. -1.
</event>
<event>
 6    1  0.1715574E-005  0.6325935E+02  0.7818608E-02  0.1389015E+00
          2   -1    0    0  502    0  0.00000000000E+00  0.00000000000E+00  0.16260681793E+03  0.16260681793E+03  0.00000000000E+00 0. -1.
          1   -1    0    0  501    0 -0.00000000000E+00 -0.00000000000E+00 -0.71649114632E+02  0.71649114632E+02  0.00000000000E+00 0.  1.
          2    1    1    2  501    0 -0.18597536235E+02 -0.15934900542E+02  0.69820602923E+02  0.73991256253E+02  0.00000000000E+00 0. -1.
          1    1    1    2  502    0  0.13058311876E+02  0.26372077997E+02 -0.85716350016E+01  0.30650920598E+02  0.00000000000E+00 0.  1.
         22    1    1    2    0    0 -0.12530333797E+02 -0.31510185217E+02  0.71678089660E+02  0.79294700799E+02  0.00000000000E+00 0. -1.
         22    1    1    2    0    0  0.18069558156E+02  0.21073007762E+02 -0.41969354284E+02  0.50319054911E+02  0.00000000000E+00 0.  1.
</event>
<event>
 6    1  0.1715574E-005  0.8256519E+02  0.7818608E-02  0.1323750E+00
          2   -1    0    0  502    0  0.00000000000E+00  0.00000000000E+00  0.10007967930E+03  0.10007967930E+03  0.00000000000E+00 0.  1.
          1   -1    0    0  501    0 -0.00000000000E+00 -0.00000000000E+00 -0.12184035122E+03  0.12184035122E+03  0.00000000000E+00 0. -1.
          2    1    1    2  501    0 -0.22181528365E+02  0.40643380587E+02  0.27580546221E+02  0.53894258655E+02  0.00000000000E+00 0.  1.
          1    1    1    2  502    0  0.73757333918E+01 -0.27452978021E+02 -0.17432959699E+02  0.33346297083E+02  0.00000000000E+00 0. -1.
         22    1    1    2    0    0 -0.20837423672E+02  0.24233895144E+02  0.36775737647E+02  0.48723041557E+02  0.00000000000E+00 0.  1.
         22    1    1    2    0    0  0.35643218646E+02 -0.37424297710E+02 -0.68683996085E+02  0.85956433224E+02  0.00000000000E+00 0. -1.
</event>
<event>
 6    1  0.1715574E-005  0.4202680E+02  0.7818608E-02  0.1528232E+00
          2   -1    0    0  502    0  0.00000000000E+00  0.00000000000E+00  0.91009566467E+02  0.91009566467E+02  0.00000000000E+00 0. -1.
          1   -1    0    0  501    0 -0.00000000000E+00 -0.00000000000E+00 -0.16027410730E+03  0.16027410730E+03  0.00000000000E+00 0. -1.
          2    1    1    2  501    0  0.10777978934E+02 -0.33960030715E+02  0.45418420483E+02  0.57725916495E+02  0.00000000000E+00 0. -1.
          1    1    1    2  502    0  0.24036485379E+01  0.27833580273E+02 -0.41238060528E+01  0.28239891882E+02  0.00000000000E+00 0. -1.
         22    1    1    2    0    0 -0.22728453515E+02  0.13370018620E+02 -0.13529033664E+03  0.13783618968E+03  0.00000000000E+00 0. -1.
         22    1    1    2    0    0  0.95468260424E+01 -0.72435681775E+01  0.24731181378E+02  0.27481675709E+02  0.00000000000E+00 0. -1.
</event>
<event>
 6    1  0.1715574E-005  0.5668680E+02  0.7818608E-02  0.1412977E+00
          2   -1    0    0  502    0  0.00000000000E+00  0.00000000000E+00  0.22610577528E+03  0.22610577528E+03  0.00000000000E+00 0. -1.
          1   -1    0    0  501    0 -0.00000000000E+00 -0.00000000000E+00 -0.12566706458E+03  0.12566706458E+03  0.00000000000E+00 0. -1.
          2    1    1    2  501    0 -0.24100183405E+02  0.12826891834E+02  0.12689632612E+03  0.12979994444E+03  0.00000000000E+00 0. -1.
          1    1    1    2  502    0  0.33477790285E+02 -0.14287482888E+02 -0.75445756162E+02  0.83767277218E+02  0.00000000000E+00 0. -1.
         22    1    1    2    0    0  0.12170844354E+02 -0.16216456393E+02 -0.40059327693E+02  0.44898247688E+02  0.00000000000E+00 0. -1.
         22    1    1    2    0    0 -0.21548451235E+02  0.17677047447E+02  0.89047468441E+02  0.93307370517E+02  0.00000000000E+00 0. -1.
</event>
<event>
 6    1  0.1715574E-005  0.5970906E+02  0.7818608E-02  0.1421921E+00
          2   -1    0    0  502    0  0.00000000000E+00  0.00000000000E+00  0.38054626636E+03  0.38054626636E+03  0.00000000000E+00 0. -1.
          1   -1    0    0  501    0 -0.00000000000E+00 -0.00000000000E+00 -0.72490440338E+02  0.72490440338E+02  0.00000000000E+00 0.  1.
          2    1    1    2  501    0 -0.17861942480E+02  0.24177401402E+02  0.25663407350E+03  0.25838855124E+03  0.00000000000E+00 0. -1.
          1    1    1    2  502    0  0.81529231910E+01  0.43100655591E+02  0.80176476632E+01  0.44591695897E+02  0.00000000000E+00 0.  1.
         22    1    1    2    0    0  0.60815158778E+01 -0.77913612155E+02 -0.23976019624E+02  0.81745735739E+02  0.00000000000E+00 0.  1.
         22    1    1    2    0    0  0.36275034111E+01  0.10635555162E+02  0.67380124479E+02  0.68310723825E+02  0.00000000000E+00 0. -1.
</event>
<event>
 6    1  0.1715574E-005  0.1492832E+03  0.7818608E-02  0.1202229E+00
          2   -1    0    0  502    0  0.00000000000E+00  0.00000000000E+00  0.16064012090E+03  0.16064012090E+03  0.00000000000E+00 0.  1.
          1   -1    0    0  501    0 -0.00000000000E+00 -0.00000000000E+00 -0.55165377021E+03  0.55165377021E+03  0.00000000000E+00 0.  1.
          2    1    1    2  501    0 -0.30323140723E+02 -0.10056510563E+03  0.91579153884E+02  0.13935413435E+03  0.00000000000E+00 0.  1.
          1    1    1    2  502    0  0.66555649356E+02  0.10132534016E+03 -0.39859872274E+03  0.41662623632E+03  0.00000000000E+00 0.  1.
         22    1    1    2    0    0 -0.29476828968E+02 -0.27739289875E+02  0.22457191200E+02  0.46289060105E+02  0.00000000000E+00 0. -1.
         22    1    1    2    0    0 -0.67556796649E+01  0.26979055344E+02 -0.10645127166E+03  0.11002446034E+03  0.00000000000E+00 0.  1.
</event>
<event>
 6    1  0.1715574E-005  0.3264279E+02  0.7818608E-02  0.1596942E+00
          2   -1    0    0  502    0  0.00000000000E+00  0.00000000000E+00  0.17254808414E+03  0.17254808414E+03  0.00000000000E+00 0. -1.
          1   -1    0    0  501    0 -0.00000000000E+00 -0.00000000000E+00 -0.12757992170E+03  0.12757992170E+03  0.00000000000E+00 0. -1.
          2    1    1    2  501    0 -0.48466357843E+02  0.35141827503E+02  0.78668453855E+02  0.98856772731E+02  0.00000000000E+00 0. -1.
          1    1    1    2  502    0  0.93274518416E+01 -0.43214482720E+02 -0.51387114803E+02  0.67787376719E+02  0.00000000000E+00 0. -1.
         22    1    1    2    0    0  0.27748422008E+02 -0.10186446942E+02  0.70504502245E+02  0.76450137097E+02  0.00000000000E+00 0. -1.
         22    1    1    2    0    0  0.11390483994E+02  0.18259102159E+02 -0.52817678854E+02  0.57033719296E+02  0.00000000000E+00 0.  1.
</event>
<event>
 6    1  0.1715574E-005  0.8399028E+02  0.7818608E-02  0.1318348E+00
          2   -1    0    0  502    0  0.00000000000E+00  0.00000000000E+00  0.46866365696E+02  0.46866365696E+02  0.00000000000E+00 0.  1.
          1   -1    0    0  501    0 -0.00000000000E+00 -0.00000000000E+00 -0.22037773808E+03  0.22037773808E+03  0.00000000000E+00 0.  1.
          2    1    1    2  501    0 -0.36551793158E+02 -0.13289856749E+02 -0.13927263477E+02  0.41311288330E+02  0.00000000000E+00 0.  1.
          1    1    1    2  502    0  0.29129078594E+02  0.63777938432E-02 -0.55616977757E+02  0.62783369416E+02  0.00000000000E+00 0.  1.
         22    1    1    2    0    0  0.49940500547E+02  0.21760888273E+02 -0.10660221856E+03  0.11971475621E+03  0.00000000000E+00 0.  1.
         22    1    1    2    0    0 -0.42517785983E+02 -0.84774093170E+01  0.26350874128E+01  0.43434689815E+02  0.00000000000E+00 0. -1.
</event>
<event>
 6    1  0.1715574E-005  0.4819101E+02  0.7818608E-02  0.1473997E+00
          2   -1    0    0  502    0  0.00000000000E+00  0.00000000000E+00  0.76575884749E+02  0.76575884749E+02  0.00000000000E+00 0. -1.
          1   -1    0    0  501    0 -0.00000000000E+00 -0.00000000000E+00 -0.51791702038E+03  0.51791702038E+03  0.00000000000E+00 0.  1.
          2    1    1    2  501    0  0.15040569321E+02  0.50291576045E+02  0.75477946670E+01  0.53032353813E+02  0.00000000000E+00 0. -1.
          1    1    1    2  502    0 -0.30576229715E+02 -0.74271586869E+02 -0.39247050119E+03  0.40060487858E+03  0.00000000000E+00 0.  1.
         22    1    1    2    0    0  0.22607364994E+02 -0.59363593197E+01 -0.91367969141E+02  0.94310333999E+02  0.00000000000E+00 0.  1.
         22    1    1    2    0    0 -0.70717046004E+01  0.29916370144E+02  0.34949540039E+02  0.46545338729E+02  0.00000000000E+00 0. -1.
</event>
<event>
 6    1  0.1715574E-005  0.9505094E+02  0.7818608E-02  0.1302839E+00
          2   -1    0    0  502    0  0.00000000000E+00  0.00000000000E+00  0.97692611139E+02  0.97692611139E+02  0.00000000000E+00 0. -1.
          1   -1    0    0  501    0 -0.00000000000E+00 -0.00000000000E+00 -0.27724204490E+03  0.27724204490E+03  0.00000000000E+00 0.  1.
          2    1    1    2  501    0 -0.40883377340E+01 -0.22113529289E+02  0.62546554917E+01  0.23341880781E+02  0.00000000000E+00 0. -1.
          1    1    1    2  502    0 -0.51375492894E+02  0.37531928804E+02 -0.20292958185E+03  0.21266993708E+03  0.00000000000E+00 0.  1.
         22    1    1    2    0    0 -0.12465145879E+02  0.27570597777E+01 -0.43960534216E+02  0.45776738732E+02  0.00000000000E+00 0.  1.
         22    1    1    2    0    0  0.67928976507E+02 -0.18175459292E+02  0.61086026811E+02  0.93146099443E+02  0.00000000000E+00 0. -1.
</event>
<event>
 6    1  0.1715574E-005  0.1466100E+03  0.7818608E-02  0.1233329E+00
          2   -1    0    0  502    0  0.00000000000E+00  0.00000000000E+00  0.12960404061E+04  0.12960404061E+04  0.00000000000E+00 0. -1.
          1   -1    0    0  501    0 -0.00000000000E+00 -0.00000000000E+00 -0.32989135113E+02  0.32989135113E+02  0.00000000000E+00 0. -1.
          2    1    1    2  501    0 -0.25973330918E+01 -0.14467594824E+03  0.55628614182E+03  0.57479748409E+03  0.00000000000E+00 0. -1.
          1    1    1    2  502    0  0.58090726149E+02  0.95671694047E+02  0.22603223411E+03  0.25222643866E+03  0.00000000000E+00 0. -1.
         22    1    1    2    0    0  0.22891274049E+02  0.31631141809E+02  0.47939541303E+02  0.61828304037E+02  0.00000000000E+00 0.  1.
         22    1    1    2    0    0 -0.78384667107E+02  0.17373112386E+02  0.43279335371E+03  0.44017731437E+03  0.00000000000E+00 0. -1.
</event>
<event>
 6    1  0.1715574E-005  0.1154025E+03  0.7818608E-02  0.1283393E+00
          2   -1    0    0  502    0  0.00000000000E+00  0.00000000000E+00  0.46774701024E+02  0.46774701024E+02  0.00000000000E+00 0. -1.
          1   -1    0    0  501    0 -0.00000000000E+00 -0.00000000000E+00 -0.83280374444E+03  0.83280374444E+03  0.00000000000E+00 0.  1.
          2    1    1    2  501    0  0.19869706231E+02 -0.14437937067E+02 -0.85945118873E+01  0.26021623451E+02  0.00000000000E+00 0. -1.
          1    1    1    2  502    0 -0.23033068901E+02 -0.30779336204E+02 -0.69630622225E+03  0.69736665030E+03  0.00000000000E+00 0.  1.
         22    1    1    2    0    0 -0.20088181845E+02  0.35014996966E+02 -0.11033589525E+03  0.11748870091E+03  0.00000000000E+00 0.  1.
         22    1    1    2    0    0  0.23251544515E+02  0.10202276304E+02  0.29207585970E+02  0.38701470803E+02  0.00000000000E+00 0. -1.
</event>
<event>
 6    1  0.1715574E-005  0.1103764E+03  0.7818608E-02  0.1288839E+00
          2   -1    0    0  502    0  0.00000000000E+00  0.00000000000E+00  0.73406000044E+03  0.73406000044E+03  0.00000000000E+00 0. -1.
          1   -1    0    0  501    0 -0.00000000000E+00 -0.00000000000E+00 -0.14153874820E+03  0.14153874820E+03  0.00000000000E+00 0.  1.
          2    1    1    2  501    0  0.48611281839E+02  0.65822961832E+02  0.62541068805E+03  0.63074103066E+03  0.00000000000E+00 0. -1.
          1    1    1    2  502    0 -0.42455748229E+01 -0.64430176574E+02 -0.82275205555E+02  0.10458719811E+03  0.00000000000E+00 0.  1.
         22    1    1    2    0    0  0.16383781286E+02  0.16329644590E+02  0.69994252322E+02  0.73717575515E+02  0.00000000000E+00 0. -1.
         22    1    1    2    0    0 -0.60749488302E+02 -0.17722429848E+02 -0.20608482585E+02  0.66552944361E+02  0.00000000000E+00 0.  1.
</event>
<event>
 6    1  0.1715574E-005  0.1323868E+03  0.7818608E-02  0.1280750E+00
          2   -1    0    0  502    0  0.00000000000E+00  0.00000000000E+00  0.10646080134E+04  0.10646080134E+04  0.00000000000E+00 0.  1.
          1   -1    0    0  501    0 -0.00000000000E+00 -0.00000000000E+00 -0.11361982450E+03  0.11361982450E+03  0.00000000000E+00 0. -1.
          2    1    1    2  501    0 -0.86733021882E+02  0.73710936903E+02  0.84881278303E+03  0.85641056739E+03  0.00000000000E+00 0.  1.
          1    1    1    2  502    0  0.97168477607E+02 -0.22147772442E+02 -0.57059103203E+02  0.11483892251E+03  0.00000000000E+00 0. -1.
         22    1    1    2    0    0 -0.32605026436E+02 -0.27615571721E+02  0.16786887020E+03  0.17322143382E+03  0.00000000000E+00 0.  1.
         22    1    1    2    0    0  0.22169570710E+02 -0.23947592740E+02 -0.86343611214E+01  0.33756914188E+02  0.00000000000E+00 0. -1.
</event>
<event>
 6    1  0.1715574E-005  0.6583821E+02  0.7818608E-02  0.1390620E+00
          2   -1    0    0  502    0  0.00000000000E+00  0.00000000000E+00  0.10849602156E+03  0.10849602156E+03  0.00000000000E+00 0.  1.
          1   -1    0    0  501    0 -0.00000000000E+00 -0.00000000000E+00 -0.21854709221E+03  0.21854709221E+03  0.00000000000E+00 0.  1.
          2    1    1    2  501    0 -0.74547447091E+02 -0.15155807843E+02  0.34996295946E+02  0.83736259225E+02  0.00000000000E+00 0.  1.
          1    1    1    2  502    0  0.23818470835E+02 -0.27368176214E+02 -0.81659581242E+02  0.89356722360E+02  0.00000000000E+00 0.  1.
         22    1    1    2    0    0  0.21986335488E+02  0.45967823895E+02  0.27962025196E+02  0.58123271027E+02  0.00000000000E+00 0. -1.
         22    1    1    2    0    0  0.28742640767E+02 -0.34438398382E+01 -0.91349810551E+02  0.95826861155E+02  0.00000000000E+00 0.  1.
</event>
<event>
 6    1  0.1715574E-005  0.2500978E+03  0.7818608E-02  0.1123645E+00
          2   -1    0    0  502    0  0.00000000000E+00  0.00000000000E+00  0.13219917228E+03  0.13219917228E+03  0.00000000000E+00 0.  1.
          1   -1    0    0  501    0 -0.00000000000E+00 -0.00000000000E+00 -0.48039123396E+03  0.48039123396E+03  0.00000000000E+00 0.  1.
          2    1    1    2  501    0 -0.20898166808E+02  0.17838488268E+03 -0.16858739488E+02  0.18039433706E+03  0.00000000000E+00 0.  1.
          1    1    1    2  502    0 -0.34435383770E+02 -0.42590210079E+02 -0.82379928274E+01  0.55385793989E+02  0.00000000000E+00 0.  1.
         22    1    1    2    0    0  0.66265366831E+00  0.11282575897E+02  0.55777451278E+01  0.12603446729E+02  0.00000000000E+00 0.  1.
         22    1    1    2    0    0  0.54670896909E+02 -0.14707724850E+03 -0.32867307450E+03  0.36420682846E+03  0.00000000000E+00 0.  1.
</event>
<event>
 6    1  0.1715574E-005  0.6270489E+02  0.7818608E-02  0.1441305E+00
          2   -1    0    0  502    0  0.00000000000E+00  0.00000000000E+00  0.38806945566E+03  0.38806945566E+03  0.00000000000E+00 0. -1.
          1   -1    0    0  501    0 -0.00000000000E+00 -0.00000000000E+00 -0.13227010229E+03  0.13227010229E+03  0.00000000000E+00 0.  1.
          2    1    1    2  501    0  0.16730280909E+02  0.63895054105E+02  0.25030958203E+03  0.25887712740E+03  0.00000000000E+00 0. -1.
          1    1    1    2  502    0  0.17131260679E+02 -0.44260395423E+02 -0.88939061758E+02  0.10080981798E+03  0.00000000000E+00 0.  1.
         22    1    1    2    0    0 -0.77667913032E+01 -0.13025670877E+02 -0.29855550263E+02  0.33486490268E+02  0.00000000000E+00 0.  1.
         22    1    1    2    0    0 -0.26094750285E+02 -0.66089878050E+01  0.12428438336E+03  0.12716612229E+03  0.00000000000E+00 0. -1.
</event>
<event>
 6    1  0.1715574E-005  0.1152588E+03  0.7818608E-02  0.1269599E+00
          2   -1    0    0  502    0  0.00000000000E+00  0.00000000000E+00  0.82089424267E+03  0.82089424267E+03  0.00000000000E+00 0. -1.
          1   -1    0    0  501    0 -0.00000000000E+00 -0.00000000000E+00 -0.58157601830E+02  0.58157601830E+02  0.00000000000E+00 0. -1.
          2    1    1    2  501    0 -0.40370953810E+02 -0.10309716646E+03  0.54959440414E+03  0.56063611078E+03  0.00000000000E+00 0. -1.
          1    1    1    2  502    0  0.79012396249E+02  0.52254694480E+02  0.11889009035E+03  0.15201435932E+03  0.00000000000E+00 0. -1.
         22    1    1    2    0    0 -0.47100687450E+02  0.64896681565E+02  0.10282159110E+02  0.80844151504E+02  0.00000000000E+00 0. -1.
         22    1    1    2    0    0  0.84592450107E+01 -0.14054209590E+02  0.83969987240E+02  0.85557222900E+02  0.00000000000E+00 0.  1.
</event>
<event>
 6    1  0.1715574E-005  0.3747389E+02  0.7818608E-02  0.1579510E+00
          2   -1    0    0  502    0  0.00000000000E+00  0.00000000000E+00  0.66582903393E+02  0.66582903393E+02  0.00000000000E+00 0. -1.
          1   -1    0    0  501    0 -0.00000000000E+00 -0.00000000000E+00 -0.35852532111E+03  0.35852532111E+03  0.00000000000E+00 0. -1.
          2    1    1    2  501    0  0.11504084267E+02  0.35646416476E+02  0.16703218150E+02  0.41012296436E+02  0.00000000000E+00 0. -1.
          1    1    1    2  502    0  0.50597288273E+01 -0.29295954498E+02 -0.23498321789E+03  0.23685642591E+03  0.00000000000E+00 0. -1.
         22    1    1    2    0    0  0.52520952015E+01  0.13968328107E+02  0.33144928027E+02  0.36349483463E+02  0.00000000000E+00 0. -1.
         22    1    1    2    0    0 -0.21815908296E+02 -0.20318790084E+02 -0.10680734600E+03  0.11089001869E+03  0.00000000000E+00 0. -1.
</event>
<event>
 6    1  0.1715574E-005  0.2966323E+03  0.7818608E-02  0.1123896E+00
          2   -1    0    0  502    0  0.00000000000E+00  0.00000000000E+00  0.30803526733E+03  0.30803526733E+03  0.00000000000E+00 0.  1.
          1   -1    0    0  501    0 -0.00000000000E+00 -0.00000000000E+00 -0.54083281875E+03  0.54083281875E+03  0.00000000000E+00 0. -1.
          2    1    1    2  501    0 -0.48907298693E+01 -0.97713704008E+02  0.21271743144E+03  0.23413797818E+03  0.00000000000E+00 0.  1.
          1    1    1    2  502    0 -0.57174969878E+02  0.13820285925E+02 -0.44892888658E+03  0.45276607944E+03  0.00000000000E+00 0. -1.
         22    1    1    2    0    0  0.94830065550E+01 -0.13903637311E+02  0.41335352797E+02  0.44630146030E+02  0.00000000000E+00 0. -1.
         22    1    1    2    0    0  0.52582693192E+02  0.97797055394E+02 -0.37921449067E+02  0.11733388243E+03  0.00000000000E+00 0.  1.
</event>
<event>
 6    1  0.1715574E-005  0.4708091E+02  0.7818608E-02  0.1464306E+00
          2   -1    0    0  502    0  0.00000000000E+00  0.00000000000E+00  0.18207515320E+03  0.18207515320E+03  0.00000000000E+00 0.  1.
          1   -1    0    0  501    0 -0.00000000000E+00 -0.00000000000E+00 -0.78457714780E+02  0.78457714780E+02  0.00000000000E+00 0. -1.
          2    1    1    2  501    0 -0.56614591538E+01  0.22044835461E+02  0.74045934608E+02  0.77465007082E+02  0.00000000000E+00 0.  1.
          1    1    1    2  502    0  0.10416090881E+02 -0.23304792704E+02 -0.35199759567E+02  0.43481391259E+02  0.00000000000E+00 0. -1.
         22    1    1    2    0    0 -0.52613900771E+01 -0.20856473083E+02 -0.32973742711E+02  0.39369307885E+02  0.00000000000E+00 0. -1.
         22    1    1    2    0    0  0.50675834992E+00  0.22116430326E+02  0.97745006088E+02  0.10021716175E+03  0.00000000000E+00 0. -1.
</event>
<event>
 6    1  0.1715574E-005  0.3204168E+02  0.7818608E-02  0.1640695E+00
          2   -1    0    0  502    0  0.00000000000E+00  0.00000000000E+00  0.43515558568E+02  0.43515558568E+02  0.00000000000E+00 0.  1.
          1   -1    0    0  501    0 -0.00000000000E+00 -0.00000000000E+00 -0.38546769136E+03  0.38546769136E+03  0.00000000000E+00 0.  1.
          2    1    1    2  501    0 -0.26659345492E+02  0.10498647006E+02  0.36834731700E+01  0.28887891332E+02  0.00000000000E+00 0.  1.
          1    1    1    2  502    0  0.31349127858E+02  0.93082418315E+01 -0.21819137151E+03  0.22062838844E+03  0.00000000000E+00 0.  1.
         22    1    1    2    0    0 -0.10234833019E+02  0.75081316591E+01  0.23103498393E+02  0.26360870356E+02  0.00000000000E+00 0.  1.
         22    1    1    2    0    0  0.55450506529E+01 -0.27315020496E+02 -0.15054773285E+03  0.15310609980E+03  0.00000000000E+00 0.  1.
</event>
<event>
 6    1  0.1715574E-005  0.1350908E+03  0.7818608E-02  0.1222437E+00
          2   -1    0    0  502    0  0.00000000000E+00  0.00000000000E+00  0.25559872125E+03  0.25559872125E+03  0.00000000000E+00 0. -1.
          1   -1    0    0  501    0 -0.00000000000E+00 -0.00000000000E+00 -0.21476644907E+03  0.21476644907E+03  0.00000000000E+00 0. -1.
          2    1    1    2  501    0 -0.45201164697E+02 -0.13806107877E+02 -0.55164890867E+02  0.72642405584E+02  0.00000000000E+00 0. -1.
          1    1    1    2  502    0  0.74558346004E+02  0.75790610745E+02  0.19754296836E+03  0.22433543631E+03  0.00000000000E+00 0. -1.
         22    1    1    2    0    0  0.40699336404E+01  0.19009583837E+02  0.17102211265E+02  0.25892359252E+02  0.00000000000E+00 0.  1.
         22    1    1    2    0    0 -0.33427114948E+02 -0.80994086705E+02 -0.11864801658E+03  0.14749496918E+03  0.00000000000E+00 0. -1.
</event>
<event>
 6    1  0.1715574E-005  0.5681896E+02  0.7818608E-02  0.1412133E+00
          2   -1    0    0  502    0  0.00000000000E+00  0.00000000000E+00  0.16781513219E+03  0.16781513219E+03  0.00000000000E+00 0.  1.
          1   -1    0    0  501    0 -0.00000000000E+00 -0.00000000000E+00 -0.23974828433E+03  0.23974828433E+03  0.00000000000E+00 0. -1.
          2    1    1    2  501    0 -0.90148708804E+01  0.44560824396E+02  0.11450909296E+03  0.12320416932E+03  0.00000000000E+00 0.  1.
          1    1    1    2  502    0  0.10529294733E+02 -0.34271060636E+02 -0.15280604572E+03  0.15695559644E+03  0.00000000000E+00 0. -1.
         22    1    1    2    0    0  0.92598344151E+00  0.10070223063E+02  0.45007980815E+02  0.46130089691E+02  0.00000000000E+00 0. -1.
         22    1    1    2    0    0 -0.24404072946E+01 -0.20359986823E+02 -0.78644180191E+02  0.81273561071E+02  0.00000000000E+00 0. -1.
</event>
<event>
 6    1  0.1715574E-005  0.7659022E+02  0.7818608E-02  0.1376808E+00
          2   -1    0    0  502    0  0.00000000000E+00  0.00000000000E+00  0.15867386897E+03  0.15867386897E+03  0.00000000000E+00 0.  1.
          1   -1    0    0  501    0 -0.00000000000E+00 -0.00000000000E+00 -0.11065142821E+03  0.11065142821E+03  0.00000000000E+00 0. -1.
          2    1    1    2  501    0 -0.64722781849E+02 -0.11867439697E+02  0.72986604659E+02  0.98269624375E+02  0.00000000000E+00 0.  1.
          1    1    1    2  502    0  0.45948528835E+02  0.16012182719E+01 -0.94086723739E+01  0.46929248001E+02  0.00000000000E+00 0. -1.
         22    1    1    2    0    0 -0.21388471011E+02  0.50847086648E+01  0.45689794650E+02  0.50703829142E+02  0.00000000000E+00 0.  1.
         22    1    1    2    0    0  0.40162724025E+02  0.51815127600E+01 -0.61245286174E+02  0.73422595664E+02  0.00000000000E+00 0. -1.
</event>
<event>
 6    1  0.1715574E-005  0.7171295E+02  0.7818608E-02  0.1385432E+00
          2   -1    0    0  502    0  0.00000000000E+00  0.00000000000E+00  0.15509445218E+03  0.15509445218E+03  0.00000000000E+00 0.  1.
          1   -1    0    0  501    0 -0.00000000000E+00 -0.00000000000E+00 -0.16046615575E+03  0.16046615575E+03  0.00000000000E+00 0. -1.
          2    1    1    2  501    0 -0.24447580388E+01 -0.22137256681E+02  0.39253208177E+02  0.45131467153E+02  0.00000000000E+00 0.  1.
          1    1    1    2  502    0  0.70878727082E+02  0.16105097810E+02 -0.98123343133E+02  0.12211207392E+03  0.00000000000E+00 0. -1.
         22    1    1    2    0    0 -0.73220785464E+02  0.23548482042E+02 -0.14209977643E+02  0.78215969565E+02  0.00000000000E+00 0. -1.
         22    1    1    2    0    0  0.47868164207E+01 -0.17516323171E+02  0.67708409034E+02  0.70101097301E+02  0.00000000000E+00 0.  1.
</event>
<event>
 6    1  0.1715574E-005  0.6446508E+02  0.7818608E-02  0.1392705E+00
          2   -1    0    0  502    0  0.00000000000E+00  0.00000000000E+00  0.32861389555E+03  0.32861389555E+03  0.00000000000E+00 0. -1.
          1   -1    0    0  501    0 -0.00000000000E+00 -0.00000000000E+00 -0.52244407410E+02  0.52244407410E+02  0.00000000000E+00 0.  1.
          2    1    1    2  501    0  0.17276624531E+02  0.20080167451E+02  0.11264152077E+03  0.11571433395E+03  0.00000000000E+00 0. -1.
          1    1    1    2  502    0 -0.49936852335E+01 -0.29245069519E+02 -0.23182751772E+02  0.37651705978E+02  0.00000000000E+00 0.  1.
         22    1    1    2    0    0 -0.32810006061E+02  0.18421998118E+02  0.19859165412E+03  0.20212499004E+03  0.00000000000E+00 0. -1.
         22    1    1    2    0    0  0.20527066763E+02 -0.92570960508E+01 -0.11680934977E+02  0.25367272993E+02  0.00000000000E+00 0. -1.
</event>
<event>
 6    1  0.1715574E-005  0.9959588E+02  0.7818608E-02  0.1282314E+00
          2   -1    0    0  502    0  0.00000000000E+00  0.00000000000E+00  0.38620984099E+03  0.38620984099E+03  0.00000000000E+00 0.  1.
          1   -1    0    0  501    0 -0.00000000000E+00 -0.00000000000E+00 -0.40322656343E+02  0.40322656343E+02  0.00000000000E+00 0. -1.
          2    1    1    2  501    0 -0.61437734221E+01  0.34055724749E+02  0.14162325981E+03  0.14578986954E+03  0.00000000000E+00 0.  1.
          1    1    1    2  502    0  0.34875177418E+01 -0.60325273345E+02  0.35559455499E+02  0.70112597010E+02  0.00000000000E+00 0. -1.
         22    1    1    2    0    0  0.19526701638E+02 -0.32230660072E+02  0.76519096465E+01  0.38453338565E+02  0.00000000000E+00 0.  1.
         22    1    1    2    0    0 -0.16870445958E+02  0.58500208668E+02  0.16105255970E+03  0.17217669223E+03  0.00000000000E+00 0.  1.
</event>
<event>
 6    1  0.1715574E-005  0.9397569E+02  0.7818608E-02  0.1347861E+00
          2   -1    0    0  502    0  0.00000000000E+00  0.00000000000E+00  0.26619915689E+03  0.26619915689E+03  0.00000000000E+00 0.  1.
          1   -1    0    0  501    0 -0.00000000000E+00 -0.00000000000E+00 -0.12200974225E+03  0.12200974225E+03  0.00000000000E+00 0.  1.
          2    1    1    2  501    0 -0.42918968297E+02  0.47271628003E+02  0.90418580253E+02  0.11068949502E+03  0.00000000000E+00 0.  1.
          1    1    1    2  502    0  0.36260487592E+02 -0.74367045009E+02 -0.61897763193E+02  0.10332769925E+03  0.00000000000E+00 0.  1.
         22    1    1    2    0    0  0.12216191195E+02 -0.80679176111E+01 -0.25063923638E+02  0.29026313752E+02  0.00000000000E+00 0. -1.
         22    1    1    2    0    0 -0.55577104901E+01  0.35163334617E+02  0.14073252122E+03  0.14516539111E+03  0.00000000000E+00 0.  1.
</event>
<event>
 6    1  0.1715574E-005  0.2183621E+03  0.7818608E-02  0.1193703E+00
          2   -1    0    0  502    0  0.00000000000E+00  0.00000000000E+00  0.58608773273E+02  0.58608773273E+02  0.00000000000E+00 0.  1.
          1   -1    0    0  501    0 -0.00000000000E+00 -0.00000000000E+00 -0.12475726378E+04  0.12475726378E+04  0.00000000000E+00 0. -1.
          2    1    1    2  501    0  0.20676562886E+03  0.10188949617E+03 -0.52042605594E+03  0.56918957686E+03  0.00000000000E+00 0.  1.
          1    1    1    2  502    0 -0.11835665693E+03 -0.22470743956E+01 -0.36387646709E+03  0.38264792027E+03  0.00000000000E+00 0. -1.
         22    1    1    2    0    0 -0.96002002401E+01 -0.55542145092E+02 -0.27257893202E+02  0.62610593895E+02  0.00000000000E+00 0.  1.
         22    1    1    2    0    0 -0.78808771696E+02 -0.44100276683E+02 -0.27740344829E+03  0.29173332005E+03  0.00000000000E+00 0. -1.
</event>
<event>
 6    1  0.1715574E-005  0.9345941E+02  0.7818608E-02  0.1297265E+00
          2   -1    0    0  502    0  0.00000000000E+00  0.00000000000E+00  0.26745835181E+03  0.26745835181E+03  0.00000000000E+00 0.  1.
          1   -1    0    0  501    0 -0.00000000000E+00 -0.00000000000E+00 -0.79075133322E+02  0.79075133322E+02  0.00000000000E+00 0.  1.
          2    1    1    2  501    0 -0.55101745098E+02  0.21385414767E+02  0.11765704278E+03  0.13166897126E+03  0.00000000000E+00 0.  1.
          1    1    1    2  502    0  0.47452918855E+02  0.13435740990E+02 -0.21503261303E+02  0.53802313059E+02  0.00000000000E+00 0.  1.
         22    1    1    2    0    0 -0.24453869738E+02 -0.45317803320E+01  0.11052161811E+03  0.11328528963E+03  0.00000000000E+00 0.  1.
         22    1    1    2    0    0  0.32102695981E+02 -0.30289375424E+02 -0.18292181092E+02  0.47776911180E+02  0.00000000000E+00 0. -1.
</event>
<event>
 6    1  0.1715574E-005  0.6199310E+02  0.7818608E-02  0.1494980E+00
          2   -1    0    0  502    0  0.00000000000E+00  0.00000000000E+00  0.31024243722E+03  0.31024243722E+03  0.00000000000E+00 0.  1.
          1   -1    0    0  501    0 -0.00000000000E+00 -0.00000000000E+00 -0.64053209432E+02  0.64053209432E+02  0.00000000000E+00 0.  1.
          2    1    1    2  501    0 -0.30994820523E+02  0.15968882866E+01  0.13841889763E+03  0.14185563145E+03  0.00000000000E+00 0.  1.
          1    1    1    2  502    0  0.46300334188E+02  0.11093450368E+02 -0.19364646513E+02  0.51398201541E+02  0.00000000000E+00 0.  1.
         22    1    1    2    0    0  0.12469807759E+02  0.32351760010E+01 -0.23630614933E+02  0.26914093546E+02  0.00000000000E+00 0.  1.
         22    1    1    2    0    0 -0.27775321424E+02 -0.15925514656E+02  0.15076559160E+03  0.15412772012E+03  0.00000000000E+00 0.  1.
</event>
<event>
 6    1  0.1715574E-005  0.1305008E+03  0.7818608E-02  0.1279676E+00
          2   -1    0    0  502    0  0.00000000000E+00  0.00000000000E+00  0.20923819720E+03  0.20923819720E+03  0.00000000000E+00 0. -1.
          1   -1    0    0  501    0 -0.00000000000E+00 -0.00000000000E+00 -0.68093574776E+02  0.68093574776E+02  0.00000000000E+00 0. -1.
          2    1    1    2  501    0 -0.39469091145E+02  0.38573925140E+02  0.23553597485E+02  0.60004406597E+02  0.00000000000E+00 0. -1.
          1    1    1    2  502    0  0.71232793987E+01  0.20541721103E+02 -0.10620693497E+02  0.24197159866E+02  0.00000000000E+00 0. -1.
         22    1    1    2    0    0  0.24225322207E+02 -0.38142218138E+02  0.15307457669E+03  0.15960426395E+03  0.00000000000E+00 0. -1.
         22    1    1    2    0    0  0.81204895393E+01 -0.20973428104E+02 -0.24862858260E+02  0.33525941562E+02  0.00000000000E+00 0. -1.
</event>
<event>
 6    1  0.1715574E-005  0.4299008E+02  0.7818608E-02  0.1494510E+00
          2   -1    0    0  502    0  0.00000000000E+00  0.00000000000E+00  0.17505262272E+03  0.17505262272E+03  0.00000000000E+00 0. -1.
          1   -1    0    0  501    0 -0.00000000000E+00 -0.00000000000E+00 -0.18828583570E+03  0.18828583570E+03  0.00000000000E+00 0. -1.
          2    1    1    2  501    0  0.61474003976E+01  0.26865972685E+02  0.10811013011E+03  0.11156778770E+03  0.00000000000E+00 0. -1.
          1    1    1    2  502    0  0.97366960959E+00 -0.27698012472E+02 -0.12392947097E+03  0.12699071503E+03  0.00000000000E+00 0. -1.
         22    1    1    2    0    0  0.55541351959E+01  0.92153889599E+01  0.62269488718E+02  0.63192254562E+02  0.00000000000E+00 0. -1.
         22    1    1    2    0    0 -0.12675205203E+02 -0.83833491727E+01 -0.59683360833E+02  0.61587701131E+02  0.00000000000E+00 0. -1.
</event>
<event>
 6    1  0.1715574E-005  0.1225148E+03  0.7818608E-02  0.1278326E+00
          2   -1    0    0  502    0  0.00000000000E+00  0.00000000000E+00  0.67314064226E+02  0.67314064226E+02  0.00000000000E+00 0. -1.
          1   -1    0    0  501    0 -0.00000000000E+00 -0.00000000000E+00 -0.49177686072E+03  0.49177686072E+03  0.00000000000E+00 0. -1.
          2    1    1    2  501    0 -0.22059693755E+02  0.11036971258E+03 -0.36851219907E+02  0.11843190428E+03  0.00000000000E+00 0. -1.
          1    1    1    2  502    0 -0.34183374983E+02 -0.38254249706E+02 -0.11468102664E+03  0.12563291216E+03  0.00000000000E+00 0. -1.
         22    1    1    2    0    0 -0.21533512912E+00 -0.71827279365E+02 -0.23807531441E+03  0.24867460618E+03  0.00000000000E+00 0. -1.
         22    1    1    2    0    0  0.56458403867E+02 -0.28818350429E+00 -0.34855235546E+02  0.66351502333E+02  0.00000000000E+00 0. -1.
</event>
<event>
 6    1  0.1715574E-005  0.1209942E+03  0.7818608E-02  0.1348350E+00
          2   -1    0    0  502    0  0.00000000000E+00  0.00000000000E+00  0.52780170411E+03  0.52780170411E+03  0.00000000000E+00 0.  1.
          1   -1    0    0  501    0 -0.00000000000E+00 -0.00000000000E+00 -0.61256269179E+02  0.61256269179E+02  0.00000000000E+00 0.  1.
          2    1    1    2  501    0  0.67342425086E+01 -0.79111869912E+02  0.26360521447E+03  0.27530300958E+03  0.00000000000E+00 0.  1.
          1    1    1    2  502    0 -0.34387648439E+02  0.99176350937E+02  0.72489150482E+02  0.12756620198E+03  0.00000000000E+00 0.  1.
         22    1    1    2    0    0  0.26796565648E+02 -0.36583251204E+02  0.15222991230E+03  0.15884060060E+03  0.00000000000E+00 0.  1.
         22    1    1    2    0    0  0.85684028276E+00  0.16518770179E+02 -0.21778842335E+02  0.27348161126E+02  0.00000000000E+00 0.  1.
</event>
<event>
 6    1  0.1715574E-005  0.5493895E+02  0.7818608E-02  0.1501559E+00
          2   -1    0    0  502    0  0.00000000000E+00  0.00000000000E+00  0.24536082983E+03  0.24536082983E+03  0.00000000000E+00 0. -1.
          1   -1    0    0  501    0 -0.00000000000E+00 -0.00000000000E+00 -0.44480020848E+02  0.44480020848E+02  0.00000000000E+00 0. -1.
          2    1    1    2  501    0  0.24414288592E+02  0.46762225944E+01  0.64105568802E+02  0.68756443310E+02  0.00000000000E+00 0. -1.
          1    1    1    2  502    0 -0.37850817366E+02 -0.11466523582E+02  0.13771922014E+02  0.41878769971E+02  0.00000000000E+00 0. -1.
         22    1    1    2    0    0 -0.16871752211E+02 -0.10719362320E+01 -0.23748149630E+02  0.29150980786E+02  0.00000000000E+00 0. -1.
         22    1    1    2    0    0  0.30308280984E+02  0.78622372201E+01  0.14675146780E+03  0.15005465661E+03  0.00000000000E+00 0. -1.
</event>
<event>
 6    1  0.1715574E-005  0.5174947E+02  0.7818608E-02  0.1516762E+00
          2   -1    0    0  502    0  0.00000000000E+00  0.00000000000E+00  0.38508987750E+03  0.38508987750E+03  0.00000000000E+00 0.  1.
          1   -1    0    0  501    0 -0.00000000000E+00 -0.00000000000E+00 -0.11847815607E+03  0.11847815607E+03  0.00000000000E+00 0.  1.
          2    1    1    2  501    0 -0.25463400452E+02 -0.22913041873E+02  0.32246864958E+03  0.32428293543E+03  0.00000000000E+00 0.  1.
          1    1    1    2  502    0  0.20991723296E+02  0.10806978881E+02 -0.52485429782E+02  0.57551399452E+02  0.00000000000E+00 0.  1.
         22    1    1    2    0    0  0.17103645908E+02  0.22654354742E+02 -0.58057399744E+02  0.64625197541E+02  0.00000000000E+00 0.  1.
         22    1    1    2    0    0 -0.12631968752E+02 -0.10548291751E+02  0.54685901379E+02  0.57108501145E+02  0.00000000000E+00 0.  1.
</event>
<event>
 6    1  0.1715574E-005  0.2613749E+02  0.7818608E-02  0.1672720E+00
          2   -1    0    0  502    0  0.00000000000E+00  0.00000000000E+00  0.19204407834E+03  0.19204407834E+03  0.00000000000E+00 0. -1.
          1   -1    0    0  501    0 -0.00000000000E+00 -0.00000000000E+00 -0.11801486938E+03  0.11801486938E+03  0.00000000000E+00 0. -1.
          2    1    1    2  501    0 -0.51357725582E+02  0.65289883711E+01  0.12056573014E+03  0.13121104737E+03  0.00000000000E+00 0. -1.
          1    1    1    2  502    0  0.34627038711E+02  0.16156763116E+02 -0.21597748867E+02  0.43892317783E+02  0.00000000000E+00 0. -1.
         22    1    1    2    0    0  0.15586886870E+02 -0.92029794591E+01  0.52919837633E+02  0.55929912287E+02  0.00000000000E+00 0. -1.
         22    1    1    2    0    0  0.11438000001E+01 -0.13482772028E+02 -0.77858609954E+02  0.79025670285E+02  0.00000000000E+00 0. -1.
</event>
<event>
 6    1  0.1715574E-005  0.7699475E+02  0.7818608E-02  0.1339172E+00
          2   -1    0    0  502    0  0.00000000000E+00  0.00000000000E+00  0.29923527813E+03  0.29923527813E+03  0.00000000000E+00 0.  1.
          1   -1    0    0  501    0 -0.00000000000E+00 -0.00000000000E+00 -0.99715332944E+02  0.99715332944E+02  0.00000000000E+00 0.  1.
          2    1    1    2  501    0 -0.20448994903E+02 -0.34384889879E+02  0.20827403507E+03  0.21208148370E+03  0.00000000000E+00 0.  1.
          1    1    1    2  502    0  0.29176203818E+02  0.36689355209E+02 -0.38623895178E+02  0.60738496307E+02  0.00000000000E+00 0.  1.
         22    1    1    2    0    0  0.46360377025E+01  0.26022737208E+02 -0.40923765734E+02  0.48717864272E+02  0.00000000000E+00 0.  1.
         22    1    1    2    0    0 -0.13363246617E+02 -0.28327202539E+02  0.70793571032E+02  0.77412766797E+02  0.00000000000E+00 0.  1.
</event>
<event>
 6    1  0.1715574E-005  0.4532653E+02  0.7818608E-02  0.1514324E+00
          2   -1    0    0  502    0  0.00000000000E+00  0.00000000000E+00  0.42222449797E+03  0.42222449797E+03  0.00000000000E+00 0.  1.
          1   -1    0    0  501    0 -0.00000000000E+00 -0.00000000000E+00 -0.72309651011E+02  0.72309651011E+02  0.00000000000E+00 0. -1.
          2    1    1    2  501    0  0.28166338335E+02 -0.81450101093E+01  0.31859494309E+03  0.31994127831E+03  0.00000000000E+00 0.  1.
          1    1    1    2  502    0 -0.38449907248E+02 -0.43317591343E+01 -0.10684081472E+02  0.40141114851E+02  0.00000000000E+00 0. -1.
         22    1    1    2    0    0  0.31360687820E+01  0.25113133496E+02 -0.42090525363E+02  0.49113304987E+02  0.00000000000E+00 0. -1.
         22    1    1    2    0    0  0.71475001314E+01 -0.12636364252E+02  0.84094510711E+02  0.85338450838E+02  0.00000000000E+00 0. -1.
</event>
<event>
 6    1  0.1715574E-005  0.1147065E+03  0.7818608E-02  0.1277214E+00
          2   -1    0    0  502    0  0.00000000000E+00  0.00000000000E+00  0.58034300016E+03  0.58034300016E+03  0.00000000000E+00 0. -1.
          1   -1    0    0  501    0 -0.00000000000E+00 -0.00000000000E+00 -0.18171932121E+02  0.18171932121E+02  0.00000000000E+00 0. -1.
          2    1    1    2  501    0  0.22937381397E+02  0.23183932801E+02  0.19781285001E+03  0.20048327071E+03  0.00000000000E+00 0. -1.
          1    1    1    2  502    0  0.67057021610E+01  0.22286590127E+02  0.54929584544E+02  0.59656666008E+02  0.00000000000E+00 0. -1.
         22    1    1    2    0    0 -0.44786792021E+02 -0.78790781726E+02  0.15394642696E+03  0.17864306983E+03  0.00000000000E+00 0. -1.
         22    1    1    2    0    0  0.15143708463E+02  0.33320258797E+02  0.15548220653E+03  0.15973192574E+03  0.00000000000E+00 0.  1.
</event>
<event>
 6    1  0.1715574E-005  0.8805806E+02  0.7818608E-02  0.1399751E+00
          2   -1    0    0  502    0  0.00000000000E+00  0.00000000000E+00  0.13699805897E+03  0.13699805897E+03  0.00000000000E+00 0.  1.
          1   -1    0    0  501    0 -0.00000000000E+00 -0.00000000000E+00 -0.17603997021E+03  0.17603997021E+03  0.00000000000E+00 0. -1.
          2    1    1    2  501    0  0.45321516158E+02 -0.81633641696E+01  0.12395545316E+02  0.47689934841E+02  0.00000000000E+00 0.  1.
          1    1    1    2  502    0 -0.69530895446E+02  0.74181272884E+02 -0.70195203442E+02  0.12355069103E+03  0.00000000000E+00 0. -1.
         22    1    1    2    0    0 -0.18217478846E+02 -0.26609364290E+01  0.54543541634E+02  0.57566961463E+02  0.00000000000E+00 0. -1.
         22    1    1    2    0    0  0.42426858133E+02 -0.63356972286E+02 -0.35785794744E+02  0.84230441847E+02  0.00000000000E+00 0.  1.
</event>
<event>
 6    1  0.1715574E-005  0.1210403E+03  0.7818608E-02  0.1338733E+00
          2   -1    0    0  502    0  0.00000000000E+00  0.00000000000E+00  0.16922660472E+03  0.16922660472E+03  0.00000000000E+00 0.  1.
          1   -1    0    0  501    0 -0.00000000000E+00 -0.00000000000E+00 -0.13223589835E+03  0.13223589835E+03  0.00000000000E+00 0.  1.
          2    1    1    2  501    0 -0.95258267114E+02  0.27654193815E+02  0.62570273643E+02  0.11727715478E+03  0.00000000000E+00 0.  1.
          1    1    1    2  502    0  0.48295267764E+02 -0.12347812984E+01 -0.19244554688E+00  0.48311433518E+02  0.00000000000E+00 0.  1.
         22    1    1    2    0    0  0.64270409659E+02 -0.17435471095E+02 -0.64160566188E+02  0.92473020193E+02  0.00000000000E+00 0.  1.
         22    1    1    2    0    0 -0.17307410310E+02 -0.89839414220E+01  0.38773444464E+02  0.43400894584E+02  0.00000000000E+00 0.  1.
</event>
<event>
 6    1  0.1715574E-005  0.1076865E+03  0.7818608E-02  0.1349191E+00
          2   -1    0    0  502    0  0.00000000000E+00  0.00000000000E+00  0.13320461200E+03  0.13320461200E+03  0.00000000000E+00 0.  1.
          1   -1    0    0  501    0 -0.00000000000E+00 -0.00000000000E+00 -0.64687622607E+03  0.64687622607E+03  0.00000000000E+00 0.  1.
          2    1    1    2  501    0 -0.64506423639E+02  0.53443339339E+02  0.10057457271E+03  0.13089122922E+03  0.00000000000E+00 0.  1.
          1    1    1    2  502    0  0.37620659716E+02 -0.40026305826E+02 -0.34909154344E+03  0.35338693368E+03  0.00000000000E+00 0.  1.
         22    1    1    2    0    0 -0.22363924184E+02  0.58934272163E+01  0.22305744298E+01  0.23234738035E+02  0.00000000000E+00 0. -1.
         22    1    1    2    0    0  0.49249688106E+02 -0.19310460729E+02 -0.26738521777E+03  0.27256793714E+03  0.00000000000E+00 0.  1.
</event>
<event>
 6    1  0.1715574E-005  0.1124806E+03  0.7818608E-02  0.1271065E+00
          2   -1    0    0  502    0  0.00000000000E+00  0.00000000000E+00  0.10660290797E+03  0.10660290797E+03  0.00000000000E+00 0.  1.
          1   -1    0    0  501    0 -0.00000000000E+00 -0.00000000000E+00 -0.15746119451E+04  0.15746119451E+04  0.00000000000E+00 0. -1.
          2    1    1    2  501    0  0.50329860243E+02  0.10905264018E+02  0.74484434561E+02  0.90553578655E+02  0.00000000000E+00 0.  1.
          1    1    1    2  502    0 -0.10390819574E+01  0.30218532767E+02 -0.13568214150E+04  0.13571582781E+04  0.00000000000E+00 0. -1.
         22    1    1    2    0    0 -0.14845863145E+02 -0.23541399304E+02  0.13272597219E+02  0.30834379686E+02  0.00000000000E+00 0.  1.
         22    1    1    2    0    0 -0.34444915141E+02 -0.17582397482E+02 -0.19894465392E+03  0.20266861672E+03  0.00000000000E+00 0. -1.
</event>
<event>
 6    1  0.1715574E-005  0.4861422E+02  0.7818608E-02  0.1459782E+00
          2   -1    0    0  502    0  0.00000000000E+00  0.00000000000E+00  0.20266342336E+03  0.20266342336E+03  0.00000000000E+00 0. -1.
          1   -1    0    0  501    0 -0.00000000000E+00 -0.00000000000E+00 -0.84082702449E+02  0.84082702449E+02  0.00000000000E+00 0. -1.
          2    1    1    2  501    0 -0.34936360062E+01  0.21467877617E+02  0.64001630217E+02  0.67596478698E+02  0.00000000000E+00 0. -1.
          1    1    1    2  502    0 -0.42027925809E+02 -0.28549239746E+02 -0.28828322131E+02  0.58416417169E+02  0.00000000000E+00 0. -1.
         22    1    1    2    0    0  0.62367646521E+01  0.26912837185E+02  0.10720281361E+03  0.11070519990E+03  0.00000000000E+00 0. -1.
         22    1    1    2    0    0  0.39284797163E+02 -0.19831475056E+02 -0.23795400789E+02  0.50028030041E+02  0.00000000000E+00 0.  1.
</event>
<event>
 6    1  0.1715574E-005  0.2608924E+02  0.7818608E-02  0.1662361E+00
          2   -1    0    0  502    0  0.00000000000E+00  0.00000000000E+00  0.14474550206E+03  0.14474550206E+03  0.00000000000E+00 0. -1.
          1   -1    0    0  501    0 -0.00000000000E+00 -0.00000000000E+00 -0.85072614962E+03  0.85072614962E+03  0.00000000000E+00 0. -1.
          2    1    1    2  501    0  0.13427782306E+02  0.23635808940E+02  0.79626839641E+02  0.84139113337E+02  0.00000000000E+00 0. -1.
          1    1    1    2  502    0  0.78375981037E+01 -0.36685941134E+02 -0.78739304044E+03  0.78828617034E+03  0.00000000000E+00 0. -1.
         22    1    1    2    0    0 -0.29468399407E+02 -0.70043960394E+01  0.56550216896E+02  0.64151189845E+02  0.00000000000E+00 0. -1.
         22    1    1    2    0    0  0.82030189973E+01  0.20054528233E+02 -0.54764663665E+02  0.58895178153E+02  0.00000000000E+00 0.  1.
</event>
<event>
 6    1  0.1715574E-005  0.1606230E+03  0.7818608E-02  0.1202594E+00
          2   -1    0    0  502    0  0.00000000000E+00  0.00000000000E+00  0.13188559639E+03  0.13188559639E+03  0.00000000000E+00 0.  1.
          1   -1    0    0  501    0 -0.00000000000E+00 -0.00000000000E+00 -0.28130846005E+03  0.28130846005E+03  0.00000000000E+00 0.  1.
          2    1    1    2  501    0  0.57912525181E+02  0.65217400293E+02  0.66487726453E+02  0.10967127082E+03  0.00000000000E+00 0.  1.
          1    1    1    2  502    0  0.12190085182E+02 -0.67183294857E+02 -0.62341051903E+02  0.92458639602E+02  0.00000000000E+00 0.  1.
         22    1    1    2    0    0 -0.83372088692E+02 -0.22071607427E+02 -0.16097808673E+03  0.18262531433E+03  0.00000000000E+00 0.  1.
         22    1    1    2    0    0  0.13269478329E+02  0.24037501991E+02  0.74085485182E+01  0.28438831696E+02  0.00000000000E+00 0. -1.
</event>
<event>
 6    1  0.1715574E-005  0.9246183E+02  0.7818608E-02  0.1321285E+00
          2   -1    0    0  502    0  0.00000000000E+00  0.00000000000E+00  0.70580032585E+02  0.70580032585E+02  0.00000000000E+00 0. -1.
          1   -1    0    0  501    0 -0.00000000000E+00 -0.00000000000E+00 -0.21719065222E+03  0.21719065222E+03  0.00000000000E+00 0. -1.
          2    1    1    2  501    0  0.22481859979E+02 -0.25803190100E+02  0.18601124869E+02  0.38951771383E+02  0.00000000000E+00 0. -1.
          1    1    1    2  502    0  0.15233923649E+02  0.37917252298E+02 -0.79449916032E+02  0.89342484905E+02  0.00000000000E+00 0. -1.
         22    1    1    2    0    0 -0.50882682220E+02  0.77759912807E+01 -0.11245665760E+03  0.12367705215E+03  0.00000000000E+00 0. -1.
         22    1    1    2    0    0  0.13166898592E+02 -0.19890053478E+02  0.26694829128E+02  0.35799376365E+02  0.00000000000E+00 0.  1.
</event>
<event>
 6    1  0.1715574E-005  0.1318495E+03  0.7818608E-02  0.1299059E+00
          2   -1    0    0  502    0  0.00000000000E+00  0.00000000000E+00  0.97828100876E+02  0.97828100876E+02  0.00000000000E+00 0.  1.
          1   -1    0    0  501    0 -0.00000000000E+00 -0.00000000000E+00 -0.37170021832E+03  0.37170021832E+03  0.00000000000E+00 0.  1.
          2    1    1    2  501    0  0.11217064390E+02  0.63823574750E+02  0.24490060600E+01  0.64848044366E+02  0.00000000000E+00 0.  1.
          1    1    1    2  502    0 -0.25250152938E+02 -0.11562062799E+03 -0.23195227881E+03  0.26039884694E+03  0.00000000000E+00 0.  1.
         22    1    1    2    0    0  0.26325685956E+02 -0.15782170512E+02 -0.65567718304E+02  0.72396438660E+02  0.00000000000E+00 0.  1.
         22    1    1    2    0    0 -0.12292597408E+02  0.67579223748E+02  0.21198873619E+02  0.71884989227E+02  0.00000000000E+00 0.  1.
</event>
<event>
 6    1  0.1715574E-005  0.6306193E+02  0.7818608E-02  0.1434309E+00
          2   -1    0    0  502    0  0.00000000000E+00  0.00000000000E+00  0.11552379723E+03  0.11552379723E+03  0.00000000000E+00 0. -1.
          1   -1    0    0  501    0 -0.00000000000E+00 -0.00000000000E+00 -0.21335338141E+03  0.21335338141E+03  0.00000000000E+00 0. -1.
          2    1    1    2  501    0 -0.48237876385E+00  0.40231192812E+02 -0.86183418745E+01  0.41146778501E+02  0.00000000000E+00 0. -1.
          1    1    1    2  502    0  0.29075464254E+01 -0.46736662623E+02 -0.14060190038E+03  0.14819468226E+03  0.00000000000E+00 0. -1.
         22    1    1    2    0    0  0.71853967129E+01 -0.21269163735E+02 -0.38717564195E+02  0.44755525124E+02  0.00000000000E+00 0. -1.
         22    1    1    2    0    0 -0.96105643744E+01  0.27774633545E+02  0.90108222276E+02  0.94780192751E+02  0.00000000000E+00 0. -1.
</event>
<event>
 6    1  0.1715574E-005  0.4146280E+02  0.7818608E-02  0.1539856E+00
          2   -1    0    0  502    0  0.00000000000E+00  0.00000000000E+00  0.20819661176E+03  0.20819661176E+03  0.00000000000E+00 0.  1.
          1   -1    0    0  501    0 -0.00000000000E+00 -0.00000000000E+00 -0.46793610107E+02  0.46793610107E+02  0.00000000000E+00 0. -1.
          2    1    1    2  501    0  0.74702360280E+01 -0.23331973891E+02  0.40674856622E+02  0.47482937917E+02  0.00000000000E+00 0.  1.
          1    1    1    2  502    0 -0.10205545759E+02 -0.29055814831E+02  0.71824399685E+01  0.31622475925E+02  0.00000000000E+00 0. -1.
         22    1    1    2    0    0 -0.23424144633E+02  0.26663417776E+01  0.11723381520E+03  0.11958079844E+03  0.00000000000E+00 0.  1.
         22    1    1    2    0    0  0.26159454364E+02  0.49721446944E+02 -0.36881101350E+01  0.56304009584E+02  0.00000000000E+00 0. -1.
</event>
<event>
 6    1  0.1715574E-005  0.2373758E+03  0.7818608E-02  0.1129311E+00
          2   -1    0    0  502    0  0.00000000000E+00  0.00000000000E+00  0.10694282721E+03  0.10694282721E+03  0.00000000000E+00 0.  1.
          1   -1    0    0  501    0 -0.00000000000E+00 -0.00000000000E+00 -0.46009819428E+03  0.46009819428E+03  0.00000000000E+00 0.  1.
          2    1    1    2  501    0 -0.15113861739E+03 -0.63017226052E+02 -0.17544953190E+03  0.23999289716E+03  0.00000000000E+00 0.  1.
          1    1    1    2  502    0  0.10271693210E+03 -0.10435905074E+02 -0.14533873577E+02  0.10426365492E+03  0.00000000000E+00 0.  1.
         22    1    1    2    0    0  0.62382512978E+02  0.10155774760E+03 -0.11747318100E+03  0.16734844570E+03  0.00000000000E+00 0. -1.
         22    1    1    2    0    0 -0.13960827691E+02 -0.28104616473E+02 -0.45698780595E+02  0.55436023710E+02  0.00000000000E+00 0.  1.
</event>
<event>
 6    1  0.1715574E-005  0.4259336E+02  0.7818608E-02  0.1596390E+00
          2   -1    0    0  502    0  0.00000000000E+00  0.00000000000E+00  0.37341253071E+03  0.37341253071E+03  0.00000000000E+00 0.  1.
          1   -1    0    0  501    0 -0.00000000000E+00 -0.00000000000E+00 -0.54823760345E+02  0.54823760345E+02  0.00000000000E+00 0. -1.
          2    1    1    2  501    0  0.16121184157E+02  0.13426453444E+02  0.24591703123E+03  0.24681034922E+03  0.00000000000E+00 0.  1.
          1    1    1    2  502    0 -0.20494475278E+02 -0.24153690448E+02 -0.67137799149E+01  0.32380536128E+02  0.00000000000E+00 0. -1.
         22    1    1    2    0    0  0.14880985185E+02  0.12744422831E+02  0.11252682307E+03  0.11421974411E+03  0.00000000000E+00 0.  1.
         22    1    1    2    0    0 -0.10507694063E+02 -0.20171858267E+01 -0.33141304028E+02  0.34825661600E+02  0.00000000000E+00 0. -1.
</event>
<event>
 6    1  0.1715574E-005  0.1211467E+03  0.7818608E-02  0.1259160E+00
          2   -1    0    0  502    0  0.00000000000E+00  0.00000000000E+00  0.18153599506E+03  0.18153599506E+03  0.00000000000E+00 0. -1.
          1   -1    0    0  501    0 -0.00000000000E+00 -0.00000000000E+00 -0.73631510224E+02  0.73631510224E+02  0.00000000000E+00 0.  1.
          2    1    1    2  501    0 -0.20014296871E+01  0.57153087203E+02  0.50916793699E+02  0.76570235589E+02  0.00000000000E+00 0. -1.
          1    1    1    2  502    0  0.24004541841E+02 -0.13593200343E+02  0.34737986187E+02  0.44358999187E+02  0.00000000000E+00 0.  1.
         22    1    1    2    0    0 -0.26298454202E+02 -0.65395166831E+02 -0.30640653034E+02  0.76856920031E+02  0.00000000000E+00 0.  1.
         22    1    1    2    0    0  0.42953420473E+01  0.21835279971E+02  0.52890357982E+02  0.57381350474E+02  0.00000000000E+00 0.  1.
</event>
<event>
 6    1  0.1715574E-005  0.5172807E+02  0.7818608E-02  0.1436515E+00
          2   -1    0    0  502    0  0.00000000000E+00  0.00000000000E+00  0.13073651208E+03  0.13073651208E+03  0.00000000000E+00 0.  1.
          1   -1    0    0  501    0 -0.00000000000E+00 -0.00000000000E+00 -0.17565425393E+03  0.17565425393E+03  0.00000000000E+00 0.  1.
          2    1    1    2  501    0  0.28583723652E+02  0.22475988004E+02  0.70096348033E+02  0.78966431489E+02  0.00000000000E+00 0.  1.
          1    1    1    2  502    0 -0.17945660270E+02 -0.29847397060E+02 -0.99709420197E+02  0.10561667629E+03  0.00000000000E+00 0.  1.
         22    1    1    2    0    0 -0.15576554878E+02 -0.45510844942E+01 -0.66788204565E+02  0.68731402582E+02  0.00000000000E+00 0.  1.
         22    1    1    2    0    0  0.49384914961E+01  0.11922493551E+02  0.51483534875E+02  0.53076255652E+02  0.00000000000E+00 0.  1.
</event>
<event>
 6    1  0.1715574E-005  0.1785505E+03  0.7818608E-02  0.1196355E+00
          2   -1    0    0  502    0  0.00000000000E+00  0.00000000000E+00  0.15034553892E+02  0.15034553892E+02  0.00000000000E+00 0. -1.
          1   -1    0    0  501    0 -0.00000000000E+00 -0.00000000000E+00 -0.12720223023E+04  0.12720223023E+04  0.00000000000E+00 0. -1.
          2    1    1    2  501    0  0.63660888214E+02 -0.56346563045E+00 -0.29930819195E+03  0.30600395414E+03  0.00000000000E+00 0. -1.
          1    1    1    2  502    0  0.22107608676E+02  0.46444530696E+02 -0.15436741607E+03  0.16271183096E+03  0.00000000000E+00 0. -1.
         22    1    1    2    0    0 -0.11476831293E+03 -0.32475298835E+02 -0.70352784599E+03  0.71356698408E+03  0.00000000000E+00 0. -1.
         22    1    1    2    0    0  0.28999816041E+02 -0.13405766231E+02 -0.99784294429E+02  0.10477408703E+03  0.00000000000E+00 0. -1.
</event>
<event>
 6    1  0.1715574E-005  0.8503621E+02  0.7818608E-02  0.1317083E+00
          2   -1    0    0  502    0  0.00000000000E+00  0.00000000000E+00  0.15402975571E+03  0.15402975571E+03  0.00000000000E+00 0.  1.
          1   -1    0    0  501    0 -0.00000000000E+00 -0.00000000000E+00 -0.14849241218E+03  0.14849241218E+03  0.00000000000E+00 0. -1.
          2    1    1    2  501    0  0.33937160499E+02  0.41185563420E+02  0.58418761871E+02  0.79124795327E+02  0.00000000000E+00 0.  1.
          1    1    1    2  502    0 -0.49095903986E+02 -0.27133598558E+02 -0.76499928270E+02  0.94862421349E+02  0.00000000000E+00 0. -1.
         22    1    1    2    0    0  0.24597875952E+02  0.99734781090E+01  0.70326474003E+02  0.75168734941E+02  0.00000000000E+00 0.  1.
         22    1    1    2    0    0 -0.94391324658E+01 -0.24025442970E+02 -0.46707964068E+02  0.53366216270E+02  0.00000000000E+00 0. -1.
</event>
<event>
 6    1  0.1715574E-005  0.1121681E+03  0.7818608E-02  0.1256847E+00
          2   -1    0    0  502    0  0.00000000000E+00  0.00000000000E+00  0.42382194918E+03  0.42382194918E+03  0.00000000000E+00 0.  1.
          1   -1    0    0  501    0 -0.00000000000E+00 -0.00000000000E+00 -0.29852154384E+02  0.29852154384E+02  0.00000000000E+00 0. -1.
          2    1    1    2  501    0  0.39899332442E+02  0.41215559791E+02  0.13029619982E+03  0.14236494929E+03  0.00000000000E+00 0.  1.
          1    1    1    2  502    0 -0.35891651509E+02 -0.14361758784E+02  0.57711058620E+02  0.69462486642E+02  0.00000000000E+00 0. -1.
         22    1    1    2    0    0 -0.51985101185E+02 -0.51170258597E+02  0.11582737613E+03  0.13688253056E+03  0.00000000000E+00 0. -1.
         22    1    1    2    0    0  0.47977420252E+02  0.24316457590E+02  0.90135160215E+02  0.10496413707E+03  0.00000000000E+00 0.  1.
</event>
<event>
 6    1  0.1715574E-005  0.9737449E+02  0.7818608E-02  0.1354168E+00
          2   -1    0    0  502    0  0.00000000000E+00  0.00000000000E+00  0.36840717358E+03  0.36840717358E+03  0.00000000000E+00 0.  1.
          1   -1    0    0  501    0 -0.00000000000E+00 -0.00000000000E+00 -0.25159453721E+03  0.25159453721E+03  0.00000000000E+00 0. -1.
          2    1    1    2  501    0 -0.67498847770E+02 -0.83204259074E+01  0.21738880205E+03  0.22777887346E+03  0.00000000000E+00 0.  1.
          1    1    1    2  502    0  0.70705310167E+02  0.12837714854E+02 -0.21199051741E+03  0.22383928895E+03  0.00000000000E+00 0. -1.
         22    1    1    2    0    0 -0.25406255366E+02  0.13736093170E+02  0.13064717079E+03  0.13380149963E+03  0.00000000000E+00 0.  1.
         22    1    1    2    0    0  0.22199792968E+02 -0.18253382117E+02 -0.19232819060E+02  0.34582048747E+02  0.00000000000E+00 0. -1.
</event>
<event>
 6    1  0.1715574E-005  0.1132498E+03  0.7818608E-02  0.1291489E+00
          2   -1    0    0  502    0  0.00000000000E+00  0.00000000000E+00  0.84480185542E+02  0.84480185542E+02  0.00000000000E+00 0. -1.
          1   -1    0    0  501    0 -0.00000000000E+00 -0.00000000000E+00 -0.36421588147E+03  0.36421588147E+03  0.00000000000E+00 0. -1.
          2    1    1    2  501    0  0.10626336432E+03  0.62237587448E+02 -0.15267867920E+03  0.19615350869E+03  0.00000000000E+00 0. -1.
          1    1    1    2  502    0 -0.12153025578E+02 -0.46482419215E+02 -0.64668285051E+02  0.80562388360E+02  0.00000000000E+00 0. -1.
         22    1    1    2    0    0 -0.44034509834E+02 -0.40258704515E+02 -0.91387394609E+02  0.10913962268E+03  0.00000000000E+00 0. -1.
         22    1    1    2    0    0 -0.50075828912E+02  0.24503536283E+02  0.28998662927E+02  0.62840547286E+02  0.00000000000E+00 0. -1.
</event>
<event>
 6    1  0.1715574E-005  0.1078455E+03  0.7818608E-02  0.1270207E+00
          2   -1    0    0  502    0  0.00000000000E+00  0.00000000000E+00  0.23699224951E+03  0.23699224951E+03  0.00000000000E+00 0. -1.
          1   -1    0    0  501    0 -0.00000000000E+00 -0.00000000000E+00 -0.60154109565E+02  0.60154109565E+02  0.00000000000E+00 0. -1.
          2    1    1    2  501    0  0.34197900316E+01 -0.38730395682E+02  0.24547280721E+02  0.45981599628E+02  0.00000000000E+00 0. -1.
          1    1    1    2  502    0  0.39814179098E+02  0.47818030399E+02  0.34848249701E+02  0.71317132554E+02  0.00000000000E+00 0. -1.
         22    1    1    2    0    0 -0.22245510351E+02  0.23287014186E+02 -0.19449466241E+02  0.37622194215E+02  0.00000000000E+00 0. -1.
         22    1    1    2    0    0 -0.20988458778E+02 -0.32374648903E+02  0.13689207576E+03  0.14222543268E+03  0.00000000000E+00 0. -1.
</event>
<event>
 6    1  0.1715574E-005  0.6059870E+02  0.7818608E-02  0.1513238E+00
          2   -1    0    0  502    0  0.00000000000E+00  0.00000000000E+00  0.18182921459E+03  0.18182921459E+03  0.00000000000E+00 0.  1.
          1   -1    0    0  501    0 -0.00000000000E+00 -0.00000000000E+00 -0.30430619740E+03  0.30430619740E+03  0.00000000000E+00 0.  1.
          2    1    1    2  501    0 -0.46650156683E+02 -0.24584981442E+02  0.14128338543E+03  0.15080336014E+03  0.00000000000E+00 0.  1.
          1    1    1    2  502    0  0.36939879442E+02  0.17799793180E+02 -0.18603680681E+03  0.19050218061E+03  0.00000000000E+00 0.  1.
         22    1    1    2    0    0  0.84558310194E+01  0.17458753446E+02 -0.10954152736E+03  0.11124592292E+03  0.00000000000E+00 0.  1.
         22    1    1    2    0    0  0.12544462219E+01 -0.10673565184E+02  0.31817965930E+02  0.33583948323E+02  0.00000000000E+00 0.  1.
</event>
<event>
 6    1  0.1715574E-005  0.1527541E+03  0.7818608E-02  0.1202637E+00
          2   -1    0    0  502    0  0.00000000000E+00  0.00000000000E+00  0.75721442027E+02  0.75721442027E+02  0.00000000000E+00 0. -1.
          1   -1    0    0  501    0 -0.00000000000E+00 -0.00000000000E+00 -0.29842053598E+03  0.29842053598E+03  0.00000000000E+00 0.  1.
          2    1    1    2  501    0  0.35715067034E+02  0.60790364491E+02 -0.37355741572E+02  0.79790261665E+02  0.00000000000E+00 0. -1.
          1    1    1    2  502    0 -0.55232734042E+02 -0.41970658663E+02 -0.56700759893E+00  0.69372275413E+02  0.00000000000E+00 0.  1.
         22    1    1    2    0    0 -0.46710173611E+02 -0.30097002007E+02 -0.51659547417E+02  0.75870802605E+02  0.00000000000E+00 0.  1.
         22    1    1    2    0    0  0.66227840619E+02  0.11277296180E+02 -0.13311679736E+03  0.14910863832E+03  0.00000000000E+00 0. -1.
</event>
<event>
 6    1  0.1715574E-005  0.4074438E+02  0.7818608E-02  0.1528750E+00
          2   -1    0    0  502    0  0.00000000000E+00  0.00000000000E+00  0.22066755438E+03  0.22066755438E+03  0.00000000000E+00 0. -1.
          1   -1    0    0  501    0 -0.00000000000E+00 -0.00000000000E+00 -0.18453745428E+03  0.18453745428E+03  0.00000000000E+00 0.  1.
          2    1    1    2  501    0 -0.50092159963E+02 -0.21464265021E+02  0.93794818058E+02  0.10847768000E+03  0.00000000000E+00 0. -1.
          1    1    1    2  502    0  0.36507291372E+02 -0.42966181848E+01 -0.14187031334E+03  0.14655520823E+03  0.00000000000E+00 0.  1.
         22    1    1    2    0    0  0.20788092082E+02 -0.33041444942E+01 -0.27438370018E+02  0.34582167261E+02  0.00000000000E+00 0. -1.
         22    1    1    2    0    0 -0.72032234912E+01  0.29065027700E+02  0.11164396540E+03  0.11558995317E+03  0.00000000000E+00 0. -1.
</event>
<event>
 6    1  0.1715574E-005  0.6624826E+02  0.7818608E-02  0.1394552E+00
          2   -1    0    0  502    0  0.00000000000E+00  0.00000000000E+00  0.15247403987E+03  0.15247403987E+03  0.00000000000E+00 0. -1.
          1   -1    0    0  501    0 -0.00000000000E+00 -0.00000000000E+00 -0.10947862264E+03  0.10947862264E+03  0.00000000000E+00 0.  1.
          2    1    1    2  501    0  0.43804148449E+02 -0.33717615304E+00  0.54457815966E+02  0.69889704742E+02  0.00000000000E+00 0. -1.
          1    1    1    2  502    0 -0.31900785403E+02 -0.37988980286E+02 -0.30954572736E+02  0.58472286648E+02  0.00000000000E+00 0.  1.
         22    1    1    2    0    0 -0.34891175669E+02  0.31436015205E+02 -0.44837262836E+02  0.64930711764E+02  0.00000000000E+00 0.  1.
         22    1    1    2    0    0  0.22987812623E+02  0.68901412343E+01  0.64329436831E+02  0.68659959353E+02  0.00000000000E+00 0. -1.
</event>
<event>
 6    1  0.1715574E-005  0.8211078E+02  0.7818608E-02  0.1414474E+00
          2   -1    0    0  502    0  0.00000000000E+00  0.00000000000E+00  0.26383546411E+03  0.26383546411E+03  0.00000000000E+00 0.  1.
          1   -1    0    0  501    0 -0.00000000000E+00 -0.00000000000E+00 -0.95431819078E+02  0.95431819078E+02  0.00000000000E+00 0.  1.
          2    1    1    2  501    0  0.29600536826E+02 -0.74778527449E+01  0.10455681014E+03  0.10892307657E+03  0.00000000000E+00 0.  1.
          1    1    1    2  502    0 -0.70713273059E+02  0.15953243647E+02 -0.38867516574E+02  0.82253004895E+02  0.00000000000E+00 0.  1.
         22    1    1    2    0    0  0.51270833568E+02  0.64195901926E+01  0.12742483308E+03  0.13750271852E+03  0.00000000000E+00 0.  1.
         22    1    1    2    0    0 -0.10158097334E+02 -0.14894981095E+02 -0.24710481618E+02  0.30588483210E+02  0.00000000000E+00 0.  1.
</event>
<event>
 6    1  0.1715574E-005  0.1174697E+03  0.7818608E-02  0.1311702E+00
          2   -1    0    0  502    0  0.00000000000E+00  0.00000000000E+00  0.11261296098E+03  0.11261296098E+03  0.00000000000E+00 0. -1.
          1   -1    0    0  501    0 -0.00000000000E+00 -0.00000000000E+00 -0.45905098037E+03  0.45905098037E+03  0.00000000000E+00 0.  1.
          2    1    1    2  501    0 -0.20137003416E+02 -0.15916074443E+02  0.41995747439E+01  0.26008782368E+02  0.00000000000E+00 0. -1.
          1    1    1    2  502    0  0.65108699825E+02  0.78301610186E+02 -0.37918429090E+03  0.39262069662E+03  0.00000000000E+00 0.  1.
         22    1    1    2    0    0 -0.22645387046E+02  0.25955986835E+02 -0.29200580966E+02  0.45157510292E+02  0.00000000000E+00 0.  1.
         22    1    1    2    0    0 -0.22326309363E+02 -0.88341522579E+02  0.57747277736E+02  0.10787695207E+03  0.00000000000E+00 0. -1.
</event>
<event>
 6    1  0.1715574E-005  0.2406360E+03  0.7818608E-02  0.1144644E+00
          2   -1    0    0  502    0  0.00000000000E+00  0.00000000000E+00  0.86069983155E+02  0.86069983155E+02  0.00000000000E+00 0.  1.
          1   -1    0    0  501    0 -0.00000000000E+00 -0.00000000000E+00 -0.40466153649E+03  0.40466153649E+03  0.00000000000E+00 0.  1.
          2    1    1    2  501    0  0.58265159356E+02 -0.42852967119E+02 -0.82939676140E+02  0.11004633326E+03  0.00000000000E+00 0.  1.
          1    1    1    2  502    0 -0.42262656722E+02 -0.96208002894E+02 -0.12443959510E+03  0.16287211180E+03  0.00000000000E+00 0.  1.
         22    1    1    2    0    0  0.30227629315E+01 -0.23359978978E+02 -0.17392562828E+02  0.29280146094E+02  0.00000000000E+00 0.  1.
         22    1    1    2    0    0 -0.19025265565E+02  0.16242094899E+03 -0.93819719266E+02  0.18853292849E+03  0.00000000000E+00 0.  1.
</event>
<event>
 6    1  0.1715574E-005  0.4673907E+02  0.7818608E-02  0.1466627E+00
          2   -1    0    0  502    0  0.00000000000E+00  0.00000000000E+00  0.22462199009E+03  0.22462199009E+03  0.00000000000E+00 0.  1.
          1   -1    0    0  501    0 -0.00000000000E+00 -0.00000000000E+00 -0.20501244093E+03  0.20501244093E+03  0.00000000000E+00 0.  1.
          2    1    1    2  501    0 -0.29495233765E+02 -0.13276163744E+02  0.15167002430E+03  0.15508069387E+03  0.00000000000E+00 0.  1.
          1    1    1    2  502    0  0.19657169541E+02  0.16245036676E+02 -0.14362999657E+03  0.14587625388E+03  0.00000000000E+00 0.  1.
         22    1    1    2    0    0  0.17991765014E+02  0.63736438251E+01 -0.56422668366E+02  0.59563784714E+02  0.00000000000E+00 0.  1.
         22    1    1    2    0    0 -0.81537007901E+01 -0.93425167574E+01  0.67992189794E+02  0.69113698562E+02  0.00000000000E+00 0.  1.
</event>
<event>
 6    1  0.1715574E-005  0.6128607E+02  0.7818608E-02  0.1469682E+00
          2   -1    0    0  502    0  0.00000000000E+00  0.00000000000E+00  0.16122189546E+03  0.16122189546E+03  0.00000000000E+00 0.  1.
          1   -1    0    0  501    0 -0.00000000000E+00 -0.00000000000E+00 -0.18365119108E+03  0.18365119108E+03  0.00000000000E+00 0.  1.
          2    1    1    2  501    0 -0.18141195592E+02  0.10210576641E+02  0.89500530851E+02  0.91889628770E+02  0.00000000000E+00 0.  1.
          1    1    1    2  502    0  0.41610593161E+02 -0.15577357409E+02 -0.12007412378E+03  0.12803081945E+03  0.00000000000E+00 0.  1.
         22    1    1    2    0    0 -0.26509163528E+02  0.24162899609E+02  0.59892989033E+02  0.69812259695E+02  0.00000000000E+00 0.  1.
         22    1    1    2    0    0  0.30397659586E+01 -0.18796118842E+02 -0.51748691719E+02  0.55140378628E+02  0.00000000000E+00 0.  1.
</event>
<event>
 6    1  0.1715574E-005  0.4032885E+02  0.7818608E-02  0.1544870E+00
          2   -1    0    0  502    0  0.00000000000E+00  0.00000000000E+00  0.69182942287E+02  0.69182942287E+02  0.00000000000E+00 0. -1.
          1   -1    0    0  501    0 -0.00000000000E+00 -0.00000000000E+00 -0.14718539874E+03  0.14718539874E+03  0.00000000000E+00 0. -1.
          2    1    1    2  501    0  0.29868504807E+02 -0.24682323994E+01 -0.51929885515E+01  0.30416884795E+02  0.00000000000E+00 0. -1.
          1    1    1    2  502    0 -0.18079754533E+02  0.16249584971E+02 -0.56423517090E+02  0.61437283603E+02  0.00000000000E+00 0. -1.
         22    1    1    2    0    0 -0.16530348191E+02  0.97521263333E+01 -0.66356449329E+02  0.69076296563E+02  0.00000000000E+00 0. -1.
         22    1    1    2    0    0  0.47415979178E+01 -0.23533478905E+02  0.49970498519E+02  0.55437876064E+02  0.00000000000E+00 0. -1.
</event>
<event>
 6    1  0.1715574E-005  0.4986982E+02  0.7818608E-02  0.1535477E+00
          2   -1    0    0  502    0  0.00000000000E+00  0.00000000000E+00  0.15008747225E+03  0.15008747225E+03  0.00000000000E+00 0. -1.
          1   -1    0    0  501    0 -0.00000000000E+00 -0.00000000000E+00 -0.11329770561E+03  0.11329770561E+03  0.00000000000E+00 0.  1.
          2    1    1    2  501    0 -0.12275335001E+02  0.33081017595E+02  0.57098403210E+02  0.67121272512E+02  0.00000000000E+00 0. -1.
          1    1    1    2  502    0  0.13606157362E+02 -0.29474675423E+02 -0.53571690036E+02  0.62640322339E+02  0.00000000000E+00 0.  1.
         22    1    1    2    0    0 -0.51419583614E+01  0.13393666035E+02  0.81283769105E+02  0.82540178977E+02  0.00000000000E+00 0. -1.
         22    1    1    2    0    0  0.38111360001E+01 -0.17000008207E+02 -0.48020715636E+02  0.51083404026E+02  0.00000000000E+00 0.  1.
</event>
<event>
 6    1  0.1715574E-005  0.2095237E+03  0.7818608E-02  0.1249986E+00
          2   -1    0    0  502    0  0.00000000000E+00  0.00000000000E+00  0.81238722686E+03  0.81238722686E+03  0.00000000000E+00 0.  1.
          1   -1    0    0  501    0 -0.00000000000E+00 -0.00000000000E+00 -0.78175875074E+02  0.78175875074E+02  0.00000000000E+00 0. -1.
          2    1    1    2  501    0 -0.77799143255E+02  0.17662014933E+03  0.49103208530E+03  0.52759823032E+03  0.00000000000E+00 0.  1.
          1    1    1    2  502    0  0.37581179445E+02 -0.12600579405E+03  0.11021387633E+03  0.17157186168E+03  0.00000000000E+00 0. -1.
         22    1    1    2    0    0  0.33852968026E+02 -0.69183568373E+02  0.24001425353E+02  0.80675014694E+02  0.00000000000E+00 0. -1.
         22    1    1    2    0    0  0.63649957839E+01  0.18569213088E+02  0.10896396481E+03  0.11071799525E+03  0.00000000000E+00 0.  1.
</event>
<event>
 6    1  0.1715574E-005  0.8893133E+02  0.7818608E-02  0.1308720E+00
          2   -1    0    0  502    0  0.00000000000E+00  0.00000000000E+00  0.26168088046E+03  0.26168088046E+03  0.00000000000E+00 0. -1.
          1   -1    0    0  501    0 -0.00000000000E+00 -0.00000000000E+00 -0.11166707861E+03  0.11166707861E+03  0.00000000000E+00 0. -1.
          2    1    1    2  501    0  0.16854492876E+02 -0.42947253804E+02  0.10939115029E+03  0.11872221486E+03  0.00000000000E+00 0. -1.
          1    1    1    2  502    0 -0.83224444279E+02 -0.16693112678E+02 -0.21841068866E+02  0.87647021773E+02  0.00000000000E+00 0. -1.
         22    1    1    2    0    0 -0.47263632143E+01 -0.32550389782E+02  0.33628980360E+02  0.47040139288E+02  0.00000000000E+00 0. -1.
         22    1    1    2    0    0  0.71096314618E+02  0.92190756264E+02  0.28834740073E+02  0.11993858315E+03  0.00000000000E+00 0. -1.
</event>
<event>
 6    1  0.1715574E-005  0.3583938E+03  0.7818608E-02  0.1074704E+00
          2   -1    0    0  502    0  0.00000000000E+00  0.00000000000E+00  0.28088756770E+04  0.28088756770E+04  0.00000000000E+00 0.  1.
          1   -1    0    0  501    0 -0.00000000000E+00 -0.00000000000E+00 -0.31578083155E+02  0.31578083155E+02  0.00000000000E+00 0.  1.
          2    1    1    2  501    0 -0.21388246782E+03  0.51584875690E+02  0.11729221305E+04  0.11933788307E+04  0.00000000000E+00 0.  1.
          1    1    1    2  502    0 -0.46014047669E+02 -0.15096913246E+02  0.58586790091E+03  0.58786597681E+03  0.00000000000E+00 0.  1.
         22    1    1    2    0    0 -0.13455927507E+02 -0.23814374681E+01  0.78037372558E+02  0.79224773558E+02  0.00000000000E+00 0.  1.
         22    1    1    2    0    0  0.27335244299E+03 -0.34106524975E+02  0.94047018987E+03  0.97998417905E+03  0.00000000000E+00 0.  1.
</event>
<event>
 6    1  0.1715574E-005  0.2614255E+03  0.7818608E-02  0.1106304E+00
          2   -1    0    0  502    0  0.00000000000E+00  0.00000000000E+00  0.47455035508E+03  0.47455035508E+03  0.00000000000E+00 0.  1.
          1   -1    0    0  501    0 -0.00000000000E+00 -0.00000000000E+00 -0.19903188085E+03  0.19903188085E+03  0.00000000000E+00 0. -1.
          2    1    1    2  501    0 -0.10909194068E+03 -0.21496878137E+03  0.30571417471E+03  0.38932478101E+03  0.00000000000E+00 0.  1.
          1    1    1    2  502    0  0.41621751872E+02  0.44511291275E+02 -0.24779014310E+01  0.60989878467E+02  0.00000000000E+00 0. -1.
         22    1    1    2    0    0  0.68026898895E+02  0.18808534533E+03 -0.36898507740E+02  0.20338450279E+03  0.00000000000E+00 0. -1.
         22    1    1    2    0    0 -0.55671008444E+00 -0.17627855238E+02  0.91807086784E+01  0.19883073662E+02  0.00000000000E+00 0.  1.
</event>
<event>
 6    1  0.1715574E-005  0.6993977E+02  0.7818608E-02  0.1417434E+00
          2   -1    0    0  502    0  0.00000000000E+00  0.00000000000E+00  0.54556170688E+03  0.54556170688E+03  0.00000000000E+00 0. -1.
          1   -1    0    0  501    0 -0.00000000000E+00 -0.00000000000E+00 -0.81800332798E+02  0.81800332798E+02  0.00000000000E+00 0.  1.
          2    1    1    2  501    0 -0.27650653888E+02 -0.73852930666E+01  0.35764254864E+03  0.35878586067E+03  0.00000000000E+00 0. -1.
          1    1    1    2  502    0 -0.23929125931E+02 -0.47453860952E+02  0.10719801743E+03  0.11964901557E+03  0.00000000000E+00 0.  1.
         22    1    1    2    0    0  0.24780950983E+02 -0.12749406901E+02  0.51938211883E+02  0.58942520828E+02  0.00000000000E+00 0.  1.
         22    1    1    2    0    0  0.26798828835E+02  0.67588560920E+02 -0.53017403866E+02  0.89984642616E+02  0.00000000000E+00 0.  1.
</event>
<event>
 6    1  0.1715574E-005  0.1502911E+03  0.7818608E-02  0.1233523E+00
          2   -1    0    0  502    0  0.00000000000E+00  0.00000000000E+00  0.46569703434E+02  0.46569703434E+02  0.00000000000E+00 0. -1.
          1   -1    0    0  501    0 -0.00000000000E+00 -0.00000000000E+00 -0.35389297798E+03  0.35389297798E+03  0.00000000000E+00 0. -1.
          2    1    1    2  501    0  0.47902313001E+02 -0.16761472503E+02 -0.18086817919E+02  0.53876818148E+02  0.00000000000E+00 0. -1.
          1    1    1    2  502    0  0.18398568510E+01  0.41016653129E+02 -0.19613498187E+02  0.45502090263E+02  0.00000000000E+00 0. -1.
         22    1    1    2    0    0  0.22571826665E+02  0.49194506389E+01 -0.30044327440E+01  0.23296243682E+02  0.00000000000E+00 0. -1.
         22    1    1    2    0    0 -0.72313996517E+02 -0.29174631265E+02 -0.26661852569E+03  0.27778752932E+03  0.00000000000E+00 0. -1.
</event>
<event>
 6    1  0.1715574E-005  0.8410768E+02  0.7818608E-02  0.1359675E+00
          2   -1    0    0  502    0  0.00000000000E+00  0.00000000000E+00  0.68298954663E+02  0.68298954663E+02  0.00000000000E+00 0. -1.
          1   -1    0    0  501    0 -0.00000000000E+00 -0.00000000000E+00 -0.44243973213E+03  0.44243973213E+03  0.00000000000E+00 0. -1.
          2    1    1    2  501    0  0.55243471747E+02 -0.23288046788E+02 -0.10197650631E+02  0.60812551108E+02  0.00000000000E+00 0. -1.
          1    1    1    2  502    0 -0.37525362132E+02  0.37932484686E+02 -0.30100282537E+03  0.30569548095E+03  0.00000000000E+00 0. -1.
         22    1    1    2    0    0 -0.17251204345E+02  0.25990995499E+02 -0.90103115570E+02  0.95350444854E+02  0.00000000000E+00 0.  1.
         22    1    1    2    0    0 -0.46690527015E+00 -0.40635433396E+02  0.27162814099E+02  0.48880209877E+02  0.00000000000E+00 0. -1.
</event>
<event>
 6    1  0.1715574E-005  0.2674913E+03  0.7818608E-02  0.1106476E+00
          2   -1    0    0  502    0  0.00000000000E+00  0.00000000000E+00  0.12409124077E+04  0.12409124077E+04  0.00000000000E+00 0. -1.
          1   -1    0    0  501    0 -0.00000000000E+00 -0.00000000000E+00 -0.82494048653E+02  0.82494048653E+02  0.00000000000E+00 0. -1.
          2    1    1    2  501    0  0.72031922995E+02  0.20277565222E+03  0.12228544419E+03  0.24750816739E+03  0.00000000000E+00 0. -1.
          1    1    1    2  502    0 -0.63124265148E+02 -0.29317182734E+02  0.35895108474E+03  0.36563650159E+03  0.00000000000E+00 0. -1.
         22    1    1    2    0    0  0.33699091338E+01  0.19196831033E+02  0.40302353937E+02  0.44767782413E+02  0.00000000000E+00 0.  1.
         22    1    1    2    0    0 -0.12277566981E+02 -0.19265530052E+03  0.63687947620E+03  0.66549400499E+03  0.00000000000E+00 0. -1.
</event>
<event>
 6    1  0.1715574E-005  0.1752751E+03  0.7818608E-02  0.1172877E+00
          2   -1    0    0  502    0  0.00000000000E+00  0.00000000000E+00  0.24087341506E+03  0.24087341506E+03  0.00000000000E+00 0. -1.
          1   -1    0    0  501    0 -0.00000000000E+00 -0.00000000000E+00 -0.14698825799E+03  0.14698825799E+03  0.00000000000E+00 0. -1.
          2    1    1    2  501    0  0.81344618730E+01  0.36378693379E+02 -0.20015210500E+02  0.42310606865E+02  0.00000000000E+00 0. -1.
          1    1    1    2  502    0 -0.82829080024E+02 -0.12174736503E+03  0.98822169868E+02  0.17733837331E+03  0.00000000000E+00 0. -1.
         22    1    1    2    0    0  0.75423476116E+02  0.11161065945E+03 -0.55584906170E+01  0.13482038745E+03  0.00000000000E+00 0. -1.
         22    1    1    2    0    0 -0.72885796543E+00 -0.26241987798E+02  0.20636688310E+02  0.33392305430E+02  0.00000000000E+00 0. -1.
</event>
<event>
 6    1  0.1715574E-005  0.2766960E+02  0.7818608E-02  0.1629579E+00
          2   -1    0    0  502    0  0.00000000000E+00  0.00000000000E+00  0.15939616718E+03  0.15939616718E+03  0.00000000000E+00 0.  1.
          1   -1    0    0  501    0 -0.00000000000E+00 -0.00000000000E+00 -0.64564163174E+02  0.64564163174E+02  0.00000000000E+00 0.  1.
          2    1    1    2  501    0 -0.16010704995E+02  0.24165738135E+02  0.85890281312E+01  0.30234036751E+02  0.00000000000E+00 0.  1.
          1    1    1    2  502    0  0.19242677817E+02 -0.22144713009E+02 -0.13246428078E+02  0.32189079213E+02  0.00000000000E+00 0.  1.
         22    1    1    2    0    0 -0.18522428834E+02 -0.21793599061E+02 -0.22888838596E+02  0.36632502811E+02  0.00000000000E+00 0.  1.
         22    1    1    2    0    0  0.15290456013E+02  0.19772573935E+02  0.12237824255E+03  0.12490471158E+03  0.00000000000E+00 0.  1.
</event>
<event>
 6    1  0.1715574E-005  0.6516380E+02  0.7818608E-02  0.1401178E+00
          2   -1    0    0  502    0  0.00000000000E+00  0.00000000000E+00  0.25379175263E+02  0.25379175263E+02  0.00000000000E+00 0. -1.
          1   -1    0    0  501    0 -0.00000000000E+00 -0.00000000000E+00 -0.62857656985E+03  0.62857656985E+03  0.00000000000E+00 0. -1.
          2    1    1    2  501    0  0.33901831187E+02 -0.28721092408E+02 -0.15784592787E+03  0.16398040204E+03  0.00000000000E+00 0. -1.
          1    1    1    2  502    0 -0.61863949475E+02  0.10859839432E+02 -0.69150385898E+02  0.93417665498E+02  0.00000000000E+00 0. -1.
         22    1    1    2    0    0 -0.22250726999E+02 -0.38442786137E+02 -0.87056286285E+02  0.97733001794E+02  0.00000000000E+00 0. -1.
         22    1    1    2    0    0  0.50212845287E+02  0.56304039113E+02 -0.28914479453E+03  0.29882467579E+03  0.00000000000E+00 0. -1.
</event>
<event>
 6    1  0.1715574E-005  0.3864400E+03  0.7818608E-02  0.1063249E+00
          2   -1    0    0  502    0  0.00000000000E+00  0.00000000000E+00  0.14847815527E+04  0.14847815527E+04  0.00000000000E+00 0. -1.
          1   -1    0    0  501    0 -0.00000000000E+00 -0.00000000000E+00 -0.75358958659E+02  0.75358958659E+02  0.00000000000E+00 0. -1.
          2    1    1    2  501    0 -0.73080116905E+02 -0.21993498403E+03  0.75662117705E+03  0.79132022990E+03  0.00000000000E+00 0. -1.
          1    1    1    2  502    0 -0.66201297465E+02  0.13128194839E+03  0.47497782598E+03  0.49721373365E+03  0.00000000000E+00 0. -1.
         22    1    1    2    0    0  0.15024562902E+03  0.10499611374E+03  0.14666000479E+03  0.23474899349E+03  0.00000000000E+00 0. -1.
         22    1    1    2    0    0 -0.10964214647E+02 -0.16343078100E+02  0.31163586258E+02  0.36857554355E+02  0.00000000000E+00 0. -1.
</event>
<event>
 6    1  0.1715574E-005  0.9676058E+02  0.7818608E-02  0.1407665E+00
          2   -1    0    0  502    0  0.00000000000E+00  0.00000000000E+00  0.87884021468E+02  0.87884021468E+02  0.00000000000E+00 0. -1.
          1   -1    0    0  501    0 -0.00000000000E+00 -0.00000000000E+00 -0.32138281039E+03  0.32138281039E+03  0.00000000000E+00 0. -1.
          2    1    1    2  501    0 -0.36973835601E+02 -0.78089758194E+02 -0.11032314958E+03  0.14012948365E+03  0.00000000000E+00 0. -1.
          1    1    1    2  502    0 -0.45654442883E+02  0.46983040582E+01 -0.82243572076E+02  0.94182840071E+02  0.00000000000E+00 0. -1.
         22    1    1    2    0    0  0.23417559676E+00  0.12248349946E+02 -0.67795643860E+02  0.68893586356E+02  0.00000000000E+00 0. -1.
         22    1    1    2    0    0  0.82394102888E+02  0.61143104190E+02  0.26863576600E+02  0.10606092178E+03  0.00000000000E+00 0. -1.
</event>
<event>
 6    1  0.1715574E-005  0.5578642E+02  0.7818608E-02  0.1496862E+00
          2   -1    0    0  502    0  0.00000000000E+00  0.00000000000E+00  0.24266131529E+03  0.24266131529E+03  0.00000000000E+00 0.  1.
          1   -1    0    0  501    0 -0.00000000000E+00 -0.00000000000E+00 -0.13369346442E+03  0.13369346442E+03  0.00000000000E+00 0. -1.
          2    1    1    2  501    0  0.10471900643E+02  0.27869591489E+02  0.10038277264E+03  0.10470470799E+03  0.00000000000E+00 0.  1.
          1    1    1    2  502    0  0.69794323933E+01 -0.42168609931E+02 -0.94928374463E+02  0.10410715834E+03  0.00000000000E+00 0. -1.
         22    1    1    2    0    0 -0.38162227841E+01  0.24824364908E+02  0.13193761142E+03  0.13430690957E+03  0.00000000000E+00 0.  1.
         22    1    1    2    0    0 -0.13635110253E+02 -0.10525346465E+02 -0.28424158725E+02  0.33236003807E+02  0.00000000000E+00 0. -1.
</event>
<event>
 6    1  0.1715574E-005  0.9521078E+02  0.7818608E-02  0.1341082E+00
          2   -1    0    0  502    0  0.00000000000E+00  0.00000000000E+00  0.12560587903E+03  0.12560587903E+03  0.00000000000E+00 0.  1.
          1   -1    0    0  501    0 -0.00000000000E+00 -0.00000000000E+00 -0.61031333183E+03  0.61031333183E+03  0.00000000000E+00 0.  1.
          2    1    1    2  501    0 -0.64771714913E+02  0.97459505015E+01  0.23461611878E+02  0.69575899821E+02  0.00000000000E+00 0.  1.
          1    1    1    2  502    0  0.77331608751E+02 -0.41236077295E+02 -0.52942697737E+03  0.53663163916E+03  0.00000000000E+00 0.  1.
         22    1    1    2    0    0 -0.22598799028E+02  0.31129415764E+02  0.70038739390E+02  0.79907266619E+02  0.00000000000E+00 0.  1.
         22    1    1    2    0    0  0.10038905190E+02  0.36071102963E+00 -0.48780826694E+02  0.49804405255E+02  0.00000000000E+00 0. -1.
</event>
<event>
 6    1  0.1715574E-005  0.1077902E+03  0.7818608E-02  0.1287217E+00
          2   -1    0    0  502    0  0.00000000000E+00  0.00000000000E+00  0.81164650793E+03  0.81164650793E+03  0.00000000000E+00 0. -1.
          1   -1    0    0  501    0 -0.00000000000E+00 -0.00000000000E+00 -0.37708734607E+02  0.37708734607E+02  0.00000000000E+00 0. -1.
          2    1    1    2  501    0  0.84296740930E+02 -0.67884146096E+02  0.23198313733E+03  0.25598901115E+03  0.00000000000E+00 0. -1.
          1    1    1    2  502    0 -0.81201840668E+02  0.14239101159E+02  0.89124060369E+02  0.12140670931E+03  0.00000000000E+00 0. -1.
         22    1    1    2    0    0  0.25780350518E+02  0.65132424128E+02  0.42341124775E+03  0.42916656891E+03  0.00000000000E+00 0. -1.
         22    1    1    2    0    0 -0.28875250780E+02 -0.11487379191E+02  0.29419327869E+02  0.42792953164E+02  0.00000000000E+00 0.  1.
</event>
<event>
 6    1  0.1715574E-005  0.8388299E+02  0.7818608E-02  0.1350154E+00
          2   -1    0    0  502    0  0.00000000000E+00  0.00000000000E+00  0.11561546302E+03  0.11561546302E+03  0.00000000000E+00 0.  1.
          1   -1    0    0  501    0 -0.00000000000E+00 -0.00000000000E+00 -0.24178721709E+03  0.24178721709E+03  0.00000000000E+00 0. -1.
          2    1    1    2  501    0  0.95600988846E-01  0.36630613881E+02  0.22623568869E+02  0.43053883463E+02  0.00000000000E+00 0.  1.
          1    1    1    2  502    0 -0.28718299944E+02  0.63972963500E-01 -0.17544093644E+03  0.17777588989E+03  0.00000000000E+00 0. -1.
         22    1    1    2    0    0  0.35388009755E+02 -0.21506437312E+02  0.74871994611E+02  0.85560818470E+02  0.00000000000E+00 0. -1.
         22    1    1    2    0    0 -0.67653107996E+01 -0.15188149532E+02 -0.48226381108E+02  0.51012088285E+02  0.00000000000E+00 0.  1.
</event>
<event>
 6    1  0.1715574E-005  0.1007403E+03  0.7818608E-02  0.1279924E+00
          2   -1    0    0  502    0  0.00000000000E+00  0.00000000000E+00  0.71100071506E+02  0.71100071506E+02  0.00000000000E+00 0. -1.
          1   -1    0    0  501    0 -0.00000000000E+00 -0.00000000000E+00 -0.25271532458E+03  0.25271532458E+03  0.00000000000E+00 0. -1.
          2    1    1    2  501    0  0.67245398581E+02 -0.27457743134E+02  0.47391516256E+00  0.72636739216E+02  0.00000000000E+00 0. -1.
          1    1    1    2  502    0 -0.42241511654E+02  0.12818917803E+02 -0.51301581060E+02  0.67679555109E+02  0.00000000000E+00 0. -1.
         22    1    1    2    0    0  0.19964522766E+02  0.14188534245E+02  0.16478210515E+02  0.29519960960E+02  0.00000000000E+00 0. -1.
         22    1    1    2    0    0 -0.44968409694E+02  0.45029108621E+00 -0.14726579769E+03  0.15397914080E+03  0.00000000000E+00 0. -1.
</event>
<event>
 6    1  0.1715574E-005  0.1035822E+03  0.7818608E-02  0.1273779E+00
          2   -1    0    0  502    0  0.00000000000E+00  0.00000000000E+00  0.51474221130E+03  0.51474221130E+03  0.00000000000E+00 0.  1.
          1   -1    0    0  501    0 -0.00000000000E+00 -0.00000000000E+00 -0.21423537330E+02  0.21423537330E+02  0.00000000000E+00 0.  1.
          2    1    1    2  501    0 -0.33166647392E+02 -0.36238502918E+02  0.97050516117E+02  0.10877526498E+03  0.00000000000E+00 0.  1.
          1    1    1    2  502    0  0.17980290865E+02  0.11034482673E+02  0.12125440555E+03  0.12307591776E+03  0.00000000000E+00 0.  1.
         22    1    1    2    0    0  0.60819922627E+02  0.11093879980E+02  0.68175824450E+02  0.92033038638E+02  0.00000000000E+00 0.  1.
         22    1    1    2    0    0 -0.45633566100E+02  0.14110140265E+02  0.20683792785E+03  0.21228152725E+03  0.00000000000E+00 0.  1.
</event>
<event>
 6    1  0.1715574E-005  0.5069605E+02  0.7818608E-02  0.1444458E+00
          2   -1    0    0  502    0  0.00000000000E+00  0.00000000000E+00  0.60133182369E+02  0.60133182369E+02  0.00000000000E+00 0. -1.
          1   -1    0    0  501    0 -0.00000000000E+00 -0.00000000000E+00 -0.91435869133E+03  0.91435869133E+03  0.00000000000E+00 0. -1.
          2    1    1    2  501    0 -0.37826399950E+02  0.20301239900E+02 -0.29955281012E+03  0.30261338855E+03  0.00000000000E+00 0. -1.
          1    1    1    2  502    0  0.10449557184E+03  0.10711066659E+02 -0.50496384912E+03  0.51577372985E+03  0.00000000000E+00 0. -1.
         22    1    1    2    0    0 -0.27984462031E+02 -0.25358572732E+02 -0.91433706626E+02  0.98925780429E+02  0.00000000000E+00 0. -1.
         22    1    1    2    0    0 -0.38684709858E+02 -0.56537338272E+01  0.41724856912E+02  0.57178974872E+02  0.00000000000E+00 0. -1.
</event>
<event>
 6    1  0.1715574E-005  0.6026227E+02  0.7818608E-02  0.1419795E+00
          2   -1    0    0  502    0  0.00000000000E+00  0.00000000000E+00  0.62384918721E+02  0.62384918721E+02  0.00000000000E+00 0. -1.
          1   -1    0    0  501    0 -0.00000000000E+00 -0.00000000000E+00 -0.36520556165E+03  0.36520556165E+03  0.00000000000E+00 0. -1.
          2    1    1    2  501    0  0.66472967048E+01 -0.58165404400E+02  0.12230610271E+00  0.58544135328E+02  0.00000000000E+00 0. -1.
          1    1    1    2  502    0  0.18262517514E+02  0.25916735201E+02 -0.20126027158E+03  0.20374222347E+03  0.00000000000E+00 0. -1.
         22    1    1    2    0    0 -0.41089000829E+02  0.87455365028E+01  0.15439172135E+02  0.44756657986E+02  0.00000000000E+00 0. -1.
         22    1    1    2    0    0  0.16179186610E+02  0.23503132697E+02 -0.11712184959E+03  0.12054746359E+03  0.00000000000E+00 0.  1.
</event>
<event>
 6    1  0.1715574E-005  0.7510580E+02  0.7818608E-02  0.1347381E+00
          2   -1    0    0  502    0  0.00000000000E+00  0.00000000000E+00  0.32982438933E+03  0.32982438933E+03  0.00000000000E+00 0.  1.
          1   -1    0    0  501    0 -0.00000000000E+00 -0.00000000000E+00 -0.48436715617E+02  0.48436715617E+02  0.00000000000E+00 0.  1.
          2    1    1    2  501    0  0.12352894801E+02  0.19655713240E+02  0.12817996197E+03  0.13026528211E+03  0.00000000000E+00 0.  1.
          1    1    1    2  502    0 -0.81807873137E+01 -0.28900487076E+02 -0.17508965850E+02  0.34766755952E+02  0.00000000000E+00 0.  1.
         22    1    1    2    0    0 -0.28518947804E+02 -0.29529433171E+02  0.50617142824E+01  0.41363495485E+02  0.00000000000E+00 0.  1.
         22    1    1    2    0    0  0.24346840317E+02  0.38774207008E+02  0.16565496331E+03  0.17186557140E+03  0.00000000000E+00 0.  1.
</event>
<event>
 6    1  0.1715574E-005  0.1721244E+03  0.7818608E-02  0.1180520E+00
          2   -1    0    0  502    0  0.00000000000E+00  0.00000000000E+00  0.89168197882E+03  0.89168197882E+03  0.00000000000E+00 0.  1.
          1   -1    0    0  501    0 -0.00000000000E+00 -0.00000000000E+00 -0.31583373346E+02  0.31583373346E+02  0.00000000000E+00 0.  1.
          2    1    1    2  501    0  0.11657194479E+02  0.47704042926E+02  0.15434558247E+03  0.16196951789E+03  0.00000000000E+00 0.  1.
          1    1    1    2  502    0 -0.92244495062E+02 -0.80262229848E+02  0.44234256704E+03  0.45893138815E+03  0.00000000000E+00 0.  1.
         22    1    1    2    0    0  0.10620543541E+03  0.48527530903E+02  0.19031773786E+03  0.22328313217E+03  0.00000000000E+00 0.  1.
         22    1    1    2    0    0 -0.25618134832E+02 -0.15969343980E+02  0.73092718103E+02  0.79081313969E+02  0.00000000000E+00 0. -1.
</event>
<event>
 6    1  0.1715574E-005  0.5211822E+02  0.7818608E-02  0.1497695E+00
          2   -1    0    0  502    0  0.00000000000E+00  0.00000000000E+00  0.10038917196E+03  0.10038917196E+03  0.00000000000E+00 0. -1.
          1   -1    0    0  501    0 -0.00000000000E+00 -0.00000000000E+00 -0.10344157361E+03  0.10344157361E+03  0.00000000000E+00 0.  1.
          2    1    1    2  501    0 -0.23050435931E+02  0.31022909209E+02  0.13191058332E+02  0.40838064502E+02  0.00000000000E+00 0. -1.
          1    1    1    2  502    0  0.85854414230E+01 -0.25124697914E+02 -0.27134998569E+02  0.37964040842E+02  0.00000000000E+00 0.  1.
         22    1    1    2    0    0  0.41201826505E+01  0.20472065972E+02  0.62642914238E+02  0.66031932384E+02  0.00000000000E+00 0. -1.
         22    1    1    2    0    0  0.10344811857E+02 -0.26370277266E+02 -0.51751375646E+02  0.58996707846E+02  0.00000000000E+00 0.  1.
</event>
<event>
 6    1  0.1715574E-005  0.1179619E+03  0.7818608E-02  0.1253324E+00
          2   -1    0    0  502    0  0.00000000000E+00  0.00000000000E+00  0.14682199614E+03  0.14682199614E+03  0.00000000000E+00 0. -1.
          1   -1    0    0  501    0 -0.00000000000E+00 -0.00000000000E+00 -0.96763525923E+02  0.96763525923E+02  0.00000000000E+00 0. -1.
          2    1    1    2  501    0  0.22640183196E+02  0.45986636055E+01 -0.12895670959E+01  0.23138465494E+02  0.00000000000E+00 0. -1.
          1    1    1    2  502    0 -0.14081671390E+02  0.52498061560E+02  0.58828921303E+02  0.80094830784E+02  0.00000000000E+00 0. -1.
         22    1    1    2    0    0 -0.21934319568E+02  0.36650115389E+02  0.10452751678E+02  0.43972779655E+02  0.00000000000E+00 0. -1.
         22    1    1    2    0    0  0.13375807762E+02 -0.93746840555E+02 -0.17933635671E+02  0.96379446127E+02  0.00000000000E+00 0. -1.
</event>
<event>
 6    1  0.1715574E-005  0.1377895E+03  0.7818608E-02  0.1242663E+00
          2   -1    0    0  502    0  0.00000000000E+00  0.00000000000E+00  0.16329390686E+03  0.16329390686E+03  0.00000000000E+00 0.  1.
          1   -1    0    0  501    0 -0.00000000000E+00 -0.00000000000E+00 -0.49989023458E+03  0.49989023458E+03  0.00000000000E+00 0. -1.
          2    1    1    2  501    0  0.53634444233E+02 -0.10362404570E+03 -0.20015999269E+03  0.23168646730E+03  0.00000000000E+00 0.  1.
          1    1    1    2  502    0 -0.25379225953E+02  0.15805829800E+03 -0.22051806544E+03  0.27249724377E+03  0.00000000000E+00 0. -1.
         22    1    1    2    0    0 -0.32455025615E+02 -0.73079496210E+02  0.10413791387E+03  0.13129602644E+03  0.00000000000E+00 0.  1.
         22    1    1    2    0    0  0.41998073350E+01  0.18645243915E+02 -0.20056183448E+02  0.27704403924E+02  0.00000000000E+00 0.  1.
</event>
<event>
 6    1  0.1715574E-005  0.1083369E+03  0.7818608E-02  0.1264007E+00
          2   -1    0    0  502    0  0.00000000000E+00  0.00000000000E+00  0.63334948234E+03  0.63334948234E+03  0.00000000000E+00 0.  1.
          1   -1    0    0  501    0 -0.00000000000E+00 -0.00000000000E+00 -0.55425282400E+02  0.55425282400E+02  0.00000000000E+00 0. -1.
          2    1    1    2  501    0  0.47527379857E+02 -0.75373435602E+02  0.47260630437E+03  0.48093318201E+03  0.00000000000E+00 0.  1.
          1    1    1    2  502    0 -0.22761984726E+02  0.24519821033E+02 -0.58118357441E+01  0.33957429333E+02  0.00000000000E+00 0. -1.
         22    1    1    2    0    0 -0.20956613802E+02  0.69691305758E+02  0.13044614014E+02  0.73933887460E+02  0.00000000000E+00 0. -1.
         22    1    1    2    0    0 -0.38087813292E+01 -0.18837691188E+02  0.98085117303E+02  0.99950265937E+02  0.00000000000E+00 0. -1.
</event>
<event>
 6    1  0.1715574E-005  0.7534789E+02  0.7818608E-02  0.1424084E+00
          2   -1    0    0  502    0  0.00000000000E+00  0.00000000000E+00  0.24336786247E+03  0.24336786247E+03  0.00000000000E+00 0.  1.
          1   -1    0    0  501    0 -0.00000000000E+00 -0.00000000000E+00 -0.12647553102E+03  0.12647553102E+03  0.00000000000E+00 0.  1.
          2    1    1    2  501    0 -0.45847294418E+02 -0.21563056693E+00  0.96663939606E+02  0.10698569120E+03  0.00000000000E+00 0.  1.
          1    1    1    2  502    0  0.63503496457E+02 -0.10687250436E+02 -0.78849443036E+02  0.10180445006E+03  0.00000000000E+00 0.  1.
         22    1    1    2    0    0 -0.22135923910E+02 -0.87153077236E+01  0.12555950316E+03  0.12779336661E+03  0.00000000000E+00 0.  1.
         22    1    1    2    0    0  0.44797218706E+01  0.19618188727E+02 -0.26481668275E+02  0.33259885622E+02  0.00000000000E+00 0.  1.
</event>
<event>
 6    1  0.1715574E-005  0.7927555E+02  0.7818608E-02  0.1348851E+00
          2   -1    0    0  502    0  0.00000000000E+00  0.00000000000E+00  0.85894270409E+03  0.85894270409E+03  0.00000000000E+00 0.  1.
          1   -1    0    0  501    0 -0.00000000000E+00 -0.00000000000E+00 -0.19591445003E+02  0.19591445003E+02  0.00000000000E+00 0. -1.
          2    1    1    2  501    0  0.61337061397E+02 -0.18357237803E+02  0.10839935566E+03  0.12589536762E+03  0.00000000000E+00 0.  1.
          1    1    1    2  502    0 -0.48927713229E+02  0.26846812321E+02  0.23169448099E+03  0.23832122225E+03  0.00000000000E+00 0. -1.
         22    1    1    2    0    0  0.25534029113E+02 -0.52418146176E+02  0.33660840152E+03  0.34162093710E+03  0.00000000000E+00 0.  1.
         22    1    1    2    0    0 -0.37943377281E+02  0.43928571658E+02  0.16264902092E+03  0.17269662212E+03  0.00000000000E+00 0.  1.
</event>
<event>
 6    1  0.1715574E-005  0.1543983E+03  0.7818608E-02  0.1197062E+00
          2   -1    0    0  502    0  0.00000000000E+00  0.00000000000E+00  0.36887813177E+03  0.36887813177E+03  0.00000000000E+00 0.  1.
          1   -1    0    0  501    0 -0.00000000000E+00 -0.00000000000E+00 -0.22745635069E+03  0.22745635069E+03  0.00000000000E+00 0.  1.
          2    1    1    2  501    0  0.11660093655E+03  0.71866357275E+02  0.29206314695E+03  0.32258554450E+03  0.00000000000E+00 0.  1.
          1    1    1    2  502    0 -0.75721524049E+02 -0.15778993710E+02 -0.91126979522E+02  0.11952762126E+03  0.00000000000E+00 0.  1.
         22    1    1    2    0    0  0.10529802590E+02  0.13016905111E+01  0.32511965127E+02  0.34199400831E+02  0.00000000000E+00 0.  1.
         22    1    1    2    0    0 -0.51409215093E+02 -0.57389054077E+02 -0.92026351479E+02  0.12002191588E+03  0.00000000000E+00 0.  1.
</event>
<event>
 6    1  0.1715574E-005  0.4587261E+02  0.7818608E-02  0.1544044E+00
          2   -1    0    0  502    0  0.00000000000E+00  0.00000000000E+00  0.53672146055E+03  0.53672146055E+03  0.00000000000E+00 0.  1.
          1   -1    0    0  501    0 -0.00000000000E+00 -0.00000000000E+00 -0.19043347322E+03  0.19043347322E+03  0.00000000000E+00 0.  1.
          2    1    1    2  501    0  0.34591800318E+02 -0.58205601206E+02  0.48513758761E+03  0.48983973254E+03  0.00000000000E+00 0.  1.
          1    1    1    2  502    0 -0.32657301711E+02  0.35783336372E+02 -0.85471594403E+02  0.98246322918E+02  0.00000000000E+00 0.  1.
         22    1    1    2    0    0  0.61978138617E+01  0.29624483455E+02 -0.93095943492E+02  0.97892173392E+02  0.00000000000E+00 0.  1.
         22    1    1    2    0    0 -0.81323124687E+01 -0.72022186206E+01  0.39717937626E+02  0.41176704924E+02  0.00000000000E+00 0. -1.
</event>
<event>
 6    1  0.1715574E-005  0.3701531E+02  0.7818608E-02  0.1611436E+00
          2   -1    0    0  502    0  0.00000000000E+00  0.00000000000E+00  0.14625868235E+03  0.14625868235E+03  0.00000000000E+00 0.  1.
          1   -1    0    0  501    0 -0.00000000000E+00 -0.00000000000E+00 -0.10868662703E+03  0.10868662703E+03  0.00000000000E+00 0. -1.
          2    1    1    2  501    0 -0.11842307554E+02 -0.23454026446E+02  0.85997354383E+02  0.89921502243E+02  0.00000000000E+00 0.  1.
          1    1    1    2  502    0  0.16901469292E+02  0.13230629945E+02 -0.34530468496E+02  0.40657871163E+02  0.00000000000E+00 0. -1.
         22    1    1    2    0    0  0.55383608442E+01  0.12437622380E+02 -0.67917707362E+02  0.69268917017E+02  0.00000000000E+00 0. -1.
         22    1    1    2    0    0 -0.10597522582E+02 -0.22142258792E+01  0.54022876790E+02  0.55097018955E+02  0.00000000000E+00 0.  1.
</event>
<event>
 6    1  0.1715574E-005  0.1047681E+03  0.7818608E-02  0.1301055E+00
          2   -1    0    0  502    0  0.00000000000E+00  0.00000000000E+00  0.14736369427E+03  0.14736369427E+03  0.00000000000E+00 0. -1.
          1   -1    0    0  501    0 -0.00000000000E+00 -0.00000000000E+00 -0.55533969943E+02  0.55533969943E+02  0.00000000000E+00 0. -1.
          2    1    1    2  501    0 -0.10386852754E+02  0.21296678846E+02  0.15138792056E+02  0.28117934933E+02  0.00000000000E+00 0. -1.
          1    1    1    2  502    0 -0.18281625778E+02  0.12431627276E+02  0.22626942809E+02  0.31634502346E+02  0.00000000000E+00 0. -1.
         22    1    1    2    0    0 -0.12106058365E+02  0.27700679518E+02  0.62012066245E+02  0.68988264617E+02  0.00000000000E+00 0. -1.
         22    1    1    2    0    0  0.40774536897E+02 -0.61428985639E+02 -0.79480767820E+01  0.74156962319E+02  0.00000000000E+00 0. -1.
</event>
<event>
 6    1  0.1715574E-005  0.1146771E+03  0.7818608E-02  0.1287366E+00
          2   -1    0    0  502    0  0.00000000000E+00  0.00000000000E+00  0.99195547097E+03  0.99195547097E+03  0.00000000000E+00 0.  1.
          1   -1    0    0  501    0 -0.00000000000E+00 -0.00000000000E+00 -0.24104445270E+02  0.24104445270E+02  0.00000000000E+00 0. -1.
          2    1    1    2  501    0 -0.47862993523E+02  0.81641900631E+02  0.23530897182E+03  0.25362684855E+03  0.00000000000E+00 0.  1.
          1    1    1    2  502    0  0.33747786376E+02 -0.80211284120E+02  0.24809387399E+03  0.26291316722E+03  0.00000000000E+00 0. -1.
         22    1    1    2    0    0 -0.32519454396E+01 -0.56778195269E+02  0.15722114173E+03  0.16719098664E+03  0.00000000000E+00 0. -1.
         22    1    1    2    0    0  0.17367152587E+02  0.55347578758E+02  0.32722703816E+03  0.33232891383E+03  0.00000000000E+00 0.  1.
</event>
<event>
 6    1  0.1715574E-005  0.8331350E+02  0.7818608E-02  0.1320413E+00
          2   -1    0    0  502    0  0.00000000000E+00  0.00000000000E+00  0.97336928383E+02  0.97336928383E+02  0.00000000000E+00 0. -1.
          1   -1    0    0  501    0 -0.00000000000E+00 -0.00000000000E+00 -0.20415806505E+03  0.20415806505E+03  0.00000000000E+00 0. -1.
          2    1    1    2  501    0 -0.39104304760E+02  0.33580642501E+02  0.40750434705E+02  0.65706956483E+02  0.00000000000E+00 0. -1.
          1    1    1    2  502    0  0.24565117182E+02 -0.27916796544E+02 -0.93715792714E+02  0.10082381820E+03  0.00000000000E+00 0. -1.
         22    1    1    2    0    0 -0.29611399081E+02 -0.11403544758E+02  0.27652051673E+02  0.42089330599E+02  0.00000000000E+00 0. -1.
         22    1    1    2    0    0  0.44150586659E+02  0.57396988010E+01 -0.81507830328E+02  0.92874888153E+02  0.00000000000E+00 0. -1.
</event>
<event>
 6    1  0.1715574E-005  0.8715812E+02  0.7818608E-02  0.1310922E+00
          2   -1    0    0  502    0  0.00000000000E+00  0.00000000000E+00  0.12553901866E+03  0.12553901866E+03  0.00000000000E+00 0. -1.
          1   -1    0    0  501    0 -0.00000000000E+00 -0.00000000000E+00 -0.20187016202E+03  0.20187016202E+03  0.00000000000E+00 0.  1.
          2    1    1    2  501    0 -0.25536934189E+02  0.11619458610E+02  0.97642123883E+01  0.29706677191E+02  0.00000000000E+00 0. -1.
          1    1    1    2  502    0 -0.48658092419E+02 -0.53610023831E+01 -0.13363936422E+03  0.14232297768E+03  0.00000000000E+00 0.  1.
         22    1    1    2    0    0  0.30897198061E+02  0.13142577513E+02 -0.42162657832E+02  0.53898551995E+02  0.00000000000E+00 0. -1.
         22    1    1    2    0    0  0.43297828548E+02 -0.19401033740E+02  0.89706666302E+02  0.10148097381E+03  0.00000000000E+00 0. -1.
</event>
<event>
 6    1  0.1715574E-005  0.1035687E+03  0.7818608E-02  0.1273330E+00
          2   -1    0    0  502    0  0.00000000000E+00  0.00000000000E+00  0.65953112931E+02  0.65953112931E+02  0.00000000000E+00 0.  1.
          1   -1    0    0  501    0 -0.00000000000E+00 -0.00000000000E+00 -0.31304477980E+03  0.31304477980E+03  0.00000000000E+00 0.  1.
          2    1    1    2  501    0 -0.26633798298E+02 -0.59023084740E+01 -0.51832229264E+01  0.27768007797E+02  0.00000000000E+00 0.  1.
          1    1    1    2  502    0  0.68824078423E+02  0.49960308376E+02 -0.18580986886E+03  0.20434797173E+03  0.00000000000E+00 0.  1.
         22    1    1    2    0    0  0.10945548100E+02  0.88029027043E+01 -0.69358722646E+02  0.70766719059E+02  0.00000000000E+00 0.  1.
         22    1    1    2    0    0 -0.53135828225E+02 -0.52860902606E+02  0.13260147569E+02  0.76115194140E+02  0.00000000000E+00 0.  1.
</event>
<event>
 6    1  0.1715574E-005  0.1741514E+03  0.7818608E-02  0.1177034E+00
          2   -1    0    0  502    0  0.00000000000E+00  0.00000000000E+00  0.16953550820E+03  0.16953550820E+03  0.00000000000E+00 0. -1.
          1   -1    0    0  501    0 -0.00000000000E+00 -0.00000000000E+00 -0.29039422397E+03  0.29039422397E+03  0.00000000000E+00 0. -1.
          2    1    1    2  501    0 -0.10795798523E+03 -0.97373778350E+01  0.73985564826E+02  0.13123874011E+03  0.00000000000E+00 0. -1.
          1    1    1    2  502    0  0.91913185889E+02  0.60021282098E+02 -0.15675701045E+03  0.19137227691E+03  0.00000000000E+00 0. -1.
         22    1    1    2    0    0  0.58176656662E+02 -0.21390447686E+02 -0.55646061390E+02  0.83298011865E+02  0.00000000000E+00 0. -1.
         22    1    1    2    0    0 -0.42131857317E+02 -0.28893456578E+02  0.17558791237E+02  0.54020703288E+02  0.00000000000E+00 0. -1.
</event>
<event>
 6    1  0.1715574E-005  0.1551276E+03  0.7818608E-02  0.1207889E+00
          2   -1    0    0  502    0  0.00000000000E+00  0.00000000000E+00  0.15523977504E+03  0.15523977504E+03  0.00000000000E+00 0.  1.
          1   -1    0    0  501    0 -0.00000000000E+00 -0.00000000000E+00 -0.19025351990E+03  0.19025351990E+03  0.00000000000E+00 0.  1.
          2    1    1    2  501    0  0.20412866738E+02  0.72740760936E+02 -0.97254537837E+02  0.12315172983E+03  0.00000000000E+00 0.  1.
          1    1    1    2  502    0 -0.56427790557E+02 -0.61278486562E+02  0.20795898183E+02  0.85858126254E+02  0.00000000000E+00 0.  1.
         22    1    1    2    0    0  0.41883014203E+02 -0.48390274255E+02  0.65854955928E+02  0.91829628887E+02  0.00000000000E+00 0.  1.
         22    1    1    2    0    0 -0.58680903833E+01  0.36927999882E+02 -0.24410061139E+02  0.44653809970E+02  0.00000000000E+00 0. -1.
</event>
<event>
 6    1  0.1715574E-005  0.1546106E+03  0.7818608E-02  0.1235140E+00
          2   -1    0    0  502    0  0.00000000000E+00  0.00000000000E+00  0.26711489955E+03  0.26711489955E+03  0.00000000000E+00 0.  1.
          1   -1    0    0  501    0 -0.00000000000E+00 -0.00000000000E+00 -0.55370097190E+02  0.55370097190E+02  0.00000000000E+00 0.  1.
          2    1    1    2  501    0 -0.27090297608E+02 -0.21451655309E+02 -0.96105926673E+01  0.35866714812E+02  0.00000000000E+00 0.  1.
          1    1    1    2  502    0  0.27235158421E+01  0.40554196979E+02  0.12076707135E+02  0.42401736832E+02  0.00000000000E+00 0.  1.
         22    1    1    2    0    0  0.47569303038E+02 -0.23275074412E+02  0.21375765653E+03  0.22022012489E+03  0.00000000000E+00 0.  1.
         22    1    1    2    0    0 -0.23202521272E+02  0.41725327420E+01 -0.44789686359E+01  0.23996420210E+02  0.00000000000E+00 0.  1.
</event>
<event>
 6    1  0.1715574E-005  0.1185512E+03  0.7818608E-02  0.1262805E+00
          2   -1    0    0  502    0  0.00000000000E+00  0.00000000000E+00  0.43973838677E+02  0.43973838677E+02  0.00000000000E+00 0.  1.
          1   -1    0    0  501    0 -0.00000000000E+00 -0.00000000000E+00 -0.27960347859E+03  0.27960347859E+03  0.00000000000E+00 0.  1.
          2    1    1    2  501    0  0.82736871931E+01 -0.27658307029E+02 -0.10917344118E+03  0.11292597623E+03  0.00000000000E+00 0.  1.
          1    1    1    2  502    0  0.19066329648E+02  0.12011110766E+02  0.98467662329E+01  0.24591675692E+02  0.00000000000E+00 0.  1.
         22    1    1    2    0    0  0.48635509701E+02 -0.53388022809E+00 -0.46032323841E+02  0.66967698708E+02  0.00000000000E+00 0.  1.
         22    1    1    2    0    0 -0.75975526542E+02  0.16181076490E+02 -0.90270641126E+02  0.11909196664E+03  0.00000000000E+00 0. -1.
</event>
<event>
 6    1  0.1715574E-005  0.1340888E+03  0.7818608E-02  0.1224882E+00
          2   -1    0    0  502    0  0.00000000000E+00  0.00000000000E+00  0.10817446482E+03  0.10817446482E+03  0.00000000000E+00 0.  1.
          1   -1    0    0  501    0 -0.00000000000E+00 -0.00000000000E+00 -0.15816128993E+03  0.15816128993E+03  0.00000000000E+00 0.  1.
          2    1    1    2  501    0  0.20954635586E+02  0.16953383763E+02 -0.29791793025E+02  0.40175426634E+02  0.00000000000E+00 0.  1.
          1    1    1    2  502    0  0.29570375668E+02 -0.62507423019E+02  0.26335757196E+02  0.73994304894E+02  0.00000000000E+00 0.  1.
         22    1    1    2    0    0 -0.23782868987E+02  0.87804772105E+02 -0.12835496823E+02  0.91869760206E+02  0.00000000000E+00 0.  1.
         22    1    1    2    0    0 -0.26742142267E+02 -0.42250732849E+02 -0.33695292462E+02  0.60296263014E+02  0.00000000000E+00 0.  1.
</event>
<event>
 6    1  0.1715574E-005  0.1003911E+03  0.7818608E-02  0.1293079E+00
          2   -1    0    0  502    0  0.00000000000E+00  0.00000000000E+00  0.36989493489E+03  0.36989493489E+03  0.00000000000E+00 0.  1.
          1   -1    0    0  501    0 -0.00000000000E+00 -0.00000000000E+00 -0.15499036737E+03  0.15499036737E+03  0.00000000000E+00 0. -1.
          2    1    1    2  501    0  0.19764010193E+01 -0.24122992010E+02  0.18950754787E+03  0.19104694608E+03  0.00000000000E+00 0.  1.
          1    1    1    2  502    0  0.49604823140E+02  0.36895433496E+02 -0.11836781221E+03  0.13353969619E+03  0.00000000000E+00 0. -1.
         22    1    1    2    0    0 -0.64786070605E+02 -0.53057121227E+01  0.16318547163E+03  0.17565558254E+03  0.00000000000E+00 0.  1.
         22    1    1    2    0    0  0.13204846446E+02 -0.74667293628E+01 -0.19420639775E+02  0.24643077452E+02  0.00000000000E+00 0.  1.
</event>
<event>
 6    1  0.1715574E-005  0.2366803E+03  0.7818608E-02  0.1128883E+00
          2   -1    0    0  502    0  0.00000000000E+00  0.00000000000E+00  0.13915215971E+03  0.13915215971E+03  0.00000000000E+00 0. -1.
          1   -1    0    0  501    0 -0.00000000000E+00 -0.00000000000E+00 -0.34221433254E+03  0.34221433254E+03  0.00000000000E+00 0. -1.
          2    1    1    2  501    0 -0.47526036516E+02  0.16586047662E+03 -0.85240779570E+02  0.19244327048E+03  0.00000000000E+00 0. -1.
          1    1    1    2  502    0  0.31641664604E+02 -0.18480724046E+02  0.26541423927E+02  0.45245765374E+02  0.00000000000E+00 0. -1.
         22    1    1    2    0    0 -0.21637283134E+02  0.16340508809E+02 -0.11223856497E+02  0.29345514209E+02  0.00000000000E+00 0.  1.
         22    1    1    2    0    0  0.37521655046E+02 -0.16372026139E+03 -0.13313896069E+03  0.21433194218E+03  0.00000000000E+00 0. -1.
</event>
<event>
 6    1  0.1913443E-005  0.1850837E+03  0.7818608E-02  0.1184185E+00
          2   -1    0    0  502    0  0.00000000000E+00  0.00000000000E+00  0.25200396557E+03  0.25200396557E+03  0.00000000000E+00 0. -1.
          1   -1    0    0  501    0 -0.00000000000E+00 -0.00000000000E+00 -0.47523895284E+03  0.47523895284E+03  0.00000000000E+00 0. -1.
          2    1    1    2  501    0 -0.57418976311E+02 -0.44864996858E+01 -0.35443140950E+03  0.35908034138E+03  0.00000000000E+00 0. -1.
          1    1    1    2  502    0  0.35009874471E+02  0.14693717204E+02  0.21190352719E+03  0.21527819553E+03  0.00000000000E+00 0. -1.
         22    1    1    2    0    0 -0.41215293600E+02 -0.10359520083E+01 -0.78378161152E+02  0.88560204204E+02  0.00000000000E+00 0.  1.
         22    1    1    2    0    0  0.63624395440E+02 -0.91712655098E+01 -0.23289438071E+01  0.64324177301E+02  0.00000000000E+00 0. -1.
</event>
<event>
 6    1  0.1715574E-005  0.6653804E+02  0.7818608E-02  0.1383588E+00
          2   -1    0    0  502    0  0.00000000000E+00  0.00000000000E+00  0.12460182423E+03  0.12460182423E+03  0.00000000000E+00 0.  1.
          1   -1    0    0  501    0 -0.00000000000E+00 -0.00000000000E+00 -0.28936816483E+03  0.28936816483E+03  0.00000000000E+00 0.  1.
          2    1    1    2  501    0  0.93223223605E+01 -0.25871961390E+02  0.32336390416E+02  0.42448866009E+02  0.00000000000E+00 0.  1.
          1    1    1    2  502    0  0.14027062997E+02  0.40202760620E+02 -0.23557890544E+03  0.23939599233E+03  0.00000000000E+00 0.  1.
         22    1    1    2    0    0 -0.26379944018E+02 -0.25776214324E+02  0.80456348728E+02  0.88507280616E+02  0.00000000000E+00 0.  1.
         22    1    1    2    0    0  0.30305586601E+01  0.11445415094E+02 -0.41980174305E+02  0.43617850097E+02  0.00000000000E+00 0.  1.
</event>
<event>
 6    1  0.1715574E-005  0.5709702E+02  0.7818608E-02  0.1410577E+00
          2   -1    0    0  502    0  0.00000000000E+00  0.00000000000E+00  0.86300113903E+02  0.86300113903E+02  0.00000000000E+00 0.  1.
          1   -1    0    0  501    0 -0.00000000000E+00 -0.00000000000E+00 -0.24692233888E+03  0.24692233888E+03  0.00000000000E+00 0.  1.
          2    1    1    2  501    0 -0.22096413683E+02 -0.55673185011E+01  0.19294003713E+02  0.29858082863E+02  0.00000000000E+00 0.  1.
          1    1    1    2  502    0  0.44506225213E+02  0.82875195850E+01 -0.17003586568E+03  0.17595932110E+03  0.00000000000E+00 0.  1.
         22    1    1    2    0    0 -0.30927309356E+02 -0.97469166699E+01  0.53777059421E+02  0.62797077707E+02  0.00000000000E+00 0.  1.
         22    1    1    2    0    0  0.85174978265E+01  0.70267155860E+01 -0.63657422427E+02  0.64607971112E+02  0.00000000000E+00 0. -1.
</event>
<event>
 6    1  0.1715574E-005  0.1392414E+03  0.7818608E-02  0.1242397E+00
          2   -1    0    0  502    0  0.00000000000E+00  0.00000000000E+00  0.14994015028E+03  0.14994015028E+03  0.00000000000E+00 0. -1.
          1   -1    0    0  501    0 -0.00000000000E+00 -0.00000000000E+00 -0.13936152770E+03  0.13936152770E+03  0.00000000000E+00 0. -1.
          2    1    1    2  501    0 -0.56834194693E+02 -0.27555493586E+02  0.67978154405E+02  0.92792566456E+02  0.00000000000E+00 0. -1.
          1    1    1    2  502    0  0.19993350458E+02 -0.30988693510E+02  0.10621807938E+02  0.38377805980E+02  0.00000000000E+00 0. -1.
         22    1    1    2    0    0  0.48331248174E+02  0.62848698462E+02 -0.97814194152E+02  0.12591062317E+03  0.00000000000E+00 0. -1.
         22    1    1    2    0    0 -0.11490403940E+02 -0.43045113662E+01  0.29792854386E+02  0.32220682384E+02  0.00000000000E+00 0. -1.
</event>
<event>
 6    1  0.1715574E-005  0.1165105E+03  0.7818608E-02  0.1254361E+00
          2   -1    0    0  502    0  0.00000000000E+00  0.00000000000E+00  0.44607138670E+03  0.44607138670E+03  0.00000000000E+00 0. -1.
          1   -1    0    0  501    0 -0.00000000000E+00 -0.00000000000E+00 -0.31167037962E+02  0.31167037962E+02  0.00000000000E+00 0. -1.
          2    1    1    2  501    0 -0.20521376128E+02  0.19848499704E+01  0.14730347295E+03  0.14873930097E+03  0.00000000000E+00 0. -1.
          1    1    1    2  502    0  0.27231124558E+01 -0.50021021102E+02  0.10756482145E+03  0.11865794835E+03  0.00000000000E+00 0. -1.
         22    1    1    2    0    0  0.50917994731E+02 -0.14040380362E+02  0.26939321405E+02  0.59291664726E+02  0.00000000000E+00 0. -1.
         22    1    1    2    0    0 -0.33119731059E+02  0.62076551493E+02  0.13309673293E+03  0.15054951062E+03  0.00000000000E+00 0. -1.
</event>
<event>
 6    1  0.1715574E-005  0.1436757E+03  0.7818608E-02  0.1264819E+00
          2   -1    0    0  502    0  0.00000000000E+00  0.00000000000E+00  0.17241746286E+04  0.17241746286E+04  0.00000000000E+00 0. -1.
          1   -1    0    0  501    0 -0.00000000000E+00 -0.00000000000E+00 -0.46905726896E+02  0.46905726896E+02  0.00000000000E+00 0. -1.
          2    1    1    2  501    0 -0.15741945842E+03 -0.86999141568E+02  0.20735109966E+03  0.27448900716E+03  0.00000000000E+00 0. -1.
          1    1    1    2  502    0  0.57763645093E+02  0.29170378562E+01  0.80221348099E+03  0.80429572725E+03  0.00000000000E+00 0. -1.
         22    1    1    2    0    0  0.12651219881E+03  0.47444765584E+02  0.54354595730E+03  0.56008798410E+03  0.00000000000E+00 0. -1.
         22    1    1    2    0    0 -0.26856385480E+02  0.36637338128E+02  0.12415836377E+03  0.13220763699E+03  0.00000000000E+00 0. -1.
</event>
<event>
 6    1  0.1715574E-005  0.1068733E+03  0.7818608E-02  0.1292136E+00
          2   -1    0    0  502    0  0.00000000000E+00  0.00000000000E+00  0.13424400918E+04  0.13424400918E+04  0.00000000000E+00 0.  1.
          1   -1    0    0  501    0 -0.00000000000E+00 -0.00000000000E+00 -0.18956522047E+02  0.18956522047E+02  0.00000000000E+00 0.  1.
          2    1    1    2  501    0  0.52988190344E+02  0.45837557442E+02  0.75688470319E+03  0.76012057195E+03  0.00000000000E+00 0.  1.
          1    1    1    2  502    0 -0.37262070922E+02 -0.63125737071E+02  0.15369233720E+03  0.17027816984E+03  0.00000000000E+00 0.  1.
         22    1    1    2    0    0  0.17495488280E+02 -0.39206215740E+02  0.71836455351E+02  0.83688086250E+02  0.00000000000E+00 0. -1.
         22    1    1    2    0    0 -0.33221607702E+02  0.56494395370E+02  0.34107007401E+03  0.34730978580E+03  0.00000000000E+00 0. -1.
</event>
<event>
 6    1  0.1715574E-005  0.7920021E+02  0.7818608E-02  0.1332286E+00
          2   -1    0    0  502    0  0.00000000000E+00  0.00000000000E+00  0.10883158743E+03  0.10883158743E+03  0.00000000000E+00 0.  1.
          1   -1    0    0  501    0 -0.00000000000E+00 -0.00000000000E+00 -0.37780351987E+03  0.37780351987E+03  0.00000000000E+00 0.  1.
          2    1    1    2  501    0  0.32604236544E+02 -0.26514989020E+01  0.32972091608E+02  0.46445941826E+02  0.00000000000E+00 0.  1.
          1    1    1    2  502    0 -0.61793866809E+02 -0.18264758873E+02 -0.30744934219E+03  0.31412924315E+03  0.00000000000E+00 0.  1.
         22    1    1    2    0    0  0.42259326163E+02  0.18885658114E+02  0.56694226451E+02  0.73189849317E+02  0.00000000000E+00 0.  1.
         22    1    1    2    0    0 -0.13069695899E+02  0.20305996614E+01 -0.51188908312E+02  0.52870073010E+02  0.00000000000E+00 0.  1.
</event>
<event>
 6    1  0.1715574E-005  0.4821905E+02  0.7818608E-02  0.1456065E+00
          2   -1    0    0  502    0  0.00000000000E+00  0.00000000000E+00  0.53781384322E+02  0.53781384322E+02  0.00000000000E+00 0. -1.
          1   -1    0    0  501    0 -0.00000000000E+00 -0.00000000000E+00 -0.23862758258E+03  0.23862758258E+03  0.00000000000E+00 0. -1.
          2    1    1    2  501    0  0.22266182345E+02 -0.19515455573E+02  0.18812111330E+02  0.35078931215E+02  0.00000000000E+00 0. -1.
          1    1    1    2  502    0 -0.13822039963E+02  0.16882502655E+02 -0.76925745362E+02  0.79960227514E+02  0.00000000000E+00 0. -1.
         22    1    1    2    0    0 -0.19686855877E+02  0.15199211154E+02 -0.14808693653E+03  0.15016101053E+03  0.00000000000E+00 0. -1.
         22    1    1    2    0    0  0.11242713495E+02 -0.12566258235E+02  0.21354372300E+02  0.27208797641E+02  0.00000000000E+00 0. -1.
</event>
<event>
 6    1  0.1715574E-005  0.2584769E+03  0.7818608E-02  0.1175041E+00
          2   -1    0    0  502    0  0.00000000000E+00  0.00000000000E+00  0.33406641612E+03  0.33406641612E+03  0.00000000000E+00 0.  1.
          1   -1    0    0  501    0 -0.00000000000E+00 -0.00000000000E+00 -0.29710765510E+03  0.29710765510E+03  0.00000000000E+00 0.  1.
          2    1    1    2  501    0 -0.43539432960E+02  0.23244121601E+03  0.66697462858E+02  0.24570948837E+03  0.00000000000E+00 0.  1.
          1    1    1    2  502    0  0.92688666008E+02 -0.21102673031E+03 -0.74453414099E+02  0.24221226348E+03  0.00000000000E+00 0.  1.
         22    1    1    2    0    0  0.16847720217E+01 -0.29882352582E+02 -0.36416376405E+02  0.47137521392E+02  0.00000000000E+00 0. -1.
         22    1    1    2    0    0 -0.50834005070E+02  0.84678668771E+01  0.81131088666E+02  0.96114797971E+02  0.00000000000E+00 0.  1.
</event>
<event>
 6    1  0.1715574E-005  0.9944265E+02  0.7818608E-02  0.1332735E+00
          2   -1    0    0  502    0  0.00000000000E+00  0.00000000000E+00  0.21584710019E+03  0.21584710019E+03  0.00000000000E+00 0.  1.
          1   -1    0    0  501    0 -0.00000000000E+00 -0.00000000000E+00 -0.41991953703E+03  0.41991953703E+03  0.00000000000E+00 0. -1.
          2    1    1    2  501    0  0.47430526352E+02 -0.92003745172E+02  0.86490759181E+02  0.13488882600E+03  0.00000000000E+00 0.  1.
          1    1    1    2  502    0 -0.11876707241E+02  0.83878066977E+02 -0.34593293991E+03  0.35615472088E+03  0.00000000000E+00 0. -1.
         22    1    1    2    0    0  0.30873244278E+01  0.13708360786E+02 -0.39611833581E+02  0.42030323425E+02  0.00000000000E+00 0.  1.
         22    1    1    2    0    0 -0.38641143539E+02 -0.55826825911E+01  0.94981577463E+02  0.10269276691E+03  0.00000000000E+00 0.  1.
</event>
<event>
 6    1  0.1715574E-005  0.1071791E+03  0.7818608E-02  0.1286516E+00
          2   -1    0    0  502    0  0.00000000000E+00  0.00000000000E+00  0.46318842977E+02  0.46318842977E+02  0.00000000000E+00 0. -1.
          1   -1    0    0  501    0 -0.00000000000E+00 -0.00000000000E+00 -0.20096965983E+03  0.20096965983E+03  0.00000000000E+00 0. -1.
          2    1    1    2  501    0  0.12356325301E+02  0.15952744430E+02 -0.11835429810E+02  0.23393294522E+02  0.00000000000E+00 0. -1.
          1    1    1    2  502    0 -0.10066338126E+02 -0.30848220806E+02 -0.19663588737E+01  0.32508621278E+02  0.00000000000E+00 0. -1.
         22    1    1    2    0    0 -0.36791093942E+02 -0.22414146385E+02 -0.13320476730E+03  0.13999817349E+03  0.00000000000E+00 0. -1.
         22    1    1    2    0    0  0.34501106766E+02  0.37309622762E+02 -0.76442608708E+01  0.51388413509E+02  0.00000000000E+00 0. -1.
</event>
<event>
 6    1  0.1715574E-005  0.1678712E+03  0.7818608E-02  0.1225956E+00
          2   -1    0    0  502    0  0.00000000000E+00  0.00000000000E+00  0.71720401781E+02  0.71720401781E+02  0.00000000000E+00 0. -1.
          1   -1    0    0  501    0 -0.00000000000E+00 -0.00000000000E+00 -0.28866787297E+03  0.28866787297E+03  0.00000000000E+00 0. -1.
          2    1    1    2  501    0 -0.38444595113E+02 -0.33977921622E+01  0.72878614184E+01  0.39276517272E+02  0.00000000000E+00 0. -1.
          1    1    1    2  502    0 -0.23135334674E+02 -0.51540316152E+02 -0.13669682461E+03  0.14791101973E+03  0.00000000000E+00 0. -1.
         22    1    1    2    0    0  0.82997304684E+02  0.59039336137E+02 -0.10423481861E+03  0.14573638258E+03  0.00000000000E+00 0. -1.
         22    1    1    2    0    0 -0.21417374897E+02 -0.41012278227E+01  0.16696310608E+02  0.27464355173E+02  0.00000000000E+00 0. -1.
</event>
<event>
 6    1  0.1715574E-005  0.1470398E+03  0.7818608E-02  0.1204224E+00
          2   -1    0    0  502    0  0.00000000000E+00  0.00000000000E+00  0.33244977618E+03  0.33244977618E+03  0.00000000000E+00 0. -1.
          1   -1    0    0  501    0 -0.00000000000E+00 -0.00000000000E+00 -0.79591463347E+02  0.79591463347E+02  0.00000000000E+00 0. -1.
          2    1    1    2  501    0 -0.73309778852E+02 -0.83728877758E+02  0.13563433435E+03  0.17544663376E+03  0.00000000000E+00 0. -1.
          1    1    1    2  502    0  0.34363785434E+02  0.70015793799E+02  0.42298568498E+02  0.88725701054E+02  0.00000000000E+00 0. -1.
         22    1    1    2    0    0  0.45174577960E+02  0.43608038566E+02 -0.43264050724E+01  0.62937439592E+02  0.00000000000E+00 0. -1.
         22    1    1    2    0    0 -0.62285845430E+01 -0.29894954607E+02  0.79251815061E+02  0.84931465116E+02  0.00000000000E+00 0.  1.
</event>
<event>
 6    1  0.1715574E-005  0.6789166E+02  0.7818608E-02  0.1397999E+00
          2   -1    0    0  502    0  0.00000000000E+00  0.00000000000E+00  0.49370886376E+02  0.49370886376E+02  0.00000000000E+00 0.  1.
          1   -1    0    0  501    0 -0.00000000000E+00 -0.00000000000E+00 -0.62620677380E+03  0.62620677380E+03  0.00000000000E+00 0. -1.
          2    1    1    2  501    0 -0.20133791395E+02 -0.21829820438E+02  0.61480276431E+01  0.30326702099E+02  0.00000000000E+00 0.  1.
          1    1    1    2  502    0  0.86983512376E+02  0.58447429624E+02 -0.39743496987E+03  0.41101920726E+03  0.00000000000E+00 0. -1.
         22    1    1    2    0    0 -0.33628198544E+02 -0.12072948312E+02  0.77570333005E+01  0.36562048409E+02  0.00000000000E+00 0.  1.
         22    1    1    2    0    0 -0.33221522437E+02 -0.24544660875E+02 -0.19330597849E+03  0.19766970241E+03  0.00000000000E+00 0.  1.
</event>
<event>
 6    1  0.1715574E-005  0.7848928E+02  0.7818608E-02  0.1372807E+00
          2   -1    0    0  502    0  0.00000000000E+00  0.00000000000E+00  0.36176550023E+03  0.36176550023E+03  0.00000000000E+00 0.  1.
          1   -1    0    0  501    0 -0.00000000000E+00 -0.00000000000E+00 -0.61268960258E+02  0.61268960258E+02  0.00000000000E+00 0. -1.
          2    1    1    2  501    0  0.10065131834E+02 -0.41442584868E+02  0.75426894849E+02  0.86648780637E+02  0.00000000000E+00 0.  1.
          1    1    1    2  502    0  0.16542106052E+02  0.59300039986E+02 -0.15268237490E+02  0.63429134402E+02  0.00000000000E+00 0. -1.
         22    1    1    2    0    0 -0.92976788081E+01 -0.39093989890E+02  0.24218586515E+03  0.24549700641E+03  0.00000000000E+00 0.  1.
         22    1    1    2    0    0 -0.17309559078E+02  0.21236534772E+02 -0.18479825429E+01  0.27459539036E+02  0.00000000000E+00 0. -1.
</event>
<event>
 6    1  0.1715574E-005  0.6712656E+02  0.7818608E-02  0.1372573E+00
          2   -1    0    0  502    0  0.00000000000E+00  0.00000000000E+00  0.16384197473E+03  0.16384197473E+03  0.00000000000E+00 0. -1.
          1   -1    0    0  501    0 -0.00000000000E+00 -0.00000000000E+00 -0.11025284583E+03  0.11025284583E+03  0.00000000000E+00 0. -1.
          2    1    1    2  501    0  0.24872424553E+01 -0.33221059446E+02  0.65076699387E+02  0.73108152548E+02  0.00000000000E+00 0. -1.
          1    1    1    2  502    0 -0.91392201981E+01  0.38003405522E+02 -0.56593745252E+02  0.68779620373E+02  0.00000000000E+00 0. -1.
         22    1    1    2    0    0 -0.17511373643E+02  0.18399234863E+02 -0.36230493867E+02  0.44247358523E+02  0.00000000000E+00 0. -1.
         22    1    1    2    0    0  0.24163351386E+02 -0.23181580939E+02  0.81336668631E+02  0.87959689114E+02  0.00000000000E+00 0. -1.
</event>
<event>
 6    1  0.1715574E-005  0.2171656E+03  0.7818608E-02  0.1222548E+00
          2   -1    0    0  502    0  0.00000000000E+00  0.00000000000E+00  0.31515498611E+03  0.31515498611E+03  0.00000000000E+00 0.  1.
          1   -1    0    0  501    0 -0.00000000000E+00 -0.00000000000E+00 -0.40467276572E+03  0.40467276572E+03  0.00000000000E+00 0.  1.
          2    1    1    2  501    0  0.15328423504E+03 -0.60790261073E+02  0.17547733724E+03  0.24079827333E+03  0.00000000000E+00 0.  1.
          1    1    1    2  502    0 -0.18750095702E+03  0.78012296248E+02 -0.28173469044E+03  0.34729952929E+03  0.00000000000E+00 0.  1.
         22    1    1    2    0    0  0.25131419871E+02 -0.46742657920E+02  0.59018581797E+02  0.79370380694E+02  0.00000000000E+00 0. -1.
         22    1    1    2    0    0  0.90853021086E+01  0.29520622745E+02 -0.42279008206E+02  0.52359568529E+02  0.00000000000E+00 0.  1.
</event>
<event>
 6    1  0.1715574E-005  0.9321653E+02  0.7818608E-02  0.1296063E+00
          2   -1    0    0  502    0  0.00000000000E+00  0.00000000000E+00  0.18046971697E+03  0.18046971697E+03  0.00000000000E+00 0. -1.
          1   -1    0    0  501    0 -0.00000000000E+00 -0.00000000000E+00 -0.73493656210E+03  0.73493656210E+03  0.00000000000E+00 0.  1.
          2    1    1    2  501    0  0.34482861063E+02 -0.40436419586E+02  0.93870975898E+02  0.10786997660E+03  0.00000000000E+00 0. -1.
          1    1    1    2  502    0 -0.63669313959E+02  0.37166523412E+02 -0.67390314877E+03  0.67792373164E+03  0.00000000000E+00 0.  1.
         22    1    1    2    0    0  0.39852816330E+02 -0.41934592149E+01  0.71448154670E+02  0.81918684531E+02  0.00000000000E+00 0.  1.
         22    1    1    2    0    0 -0.10666363434E+02  0.74633553882E+01 -0.45882826925E+02  0.47693886288E+02  0.00000000000E+00 0. -1.
</event>
<event>
 6    1  0.1715574E-005  0.1138233E+03  0.7818608E-02  0.1321235E+00
          2   -1    0    0  502    0  0.00000000000E+00  0.00000000000E+00  0.13468661191E+03  0.13468661191E+03  0.00000000000E+00 0. -1.
          1   -1    0    0  501    0 -0.00000000000E+00 -0.00000000000E+00 -0.17778592319E+03  0.17778592319E+03  0.00000000000E+00 0. -1.
          2    1    1    2  501    0 -0.19466874098E+02 -0.98843944734E+02  0.42166226223E+02  0.10921114976E+03  0.00000000000E+00 0. -1.
          1    1    1    2  502    0  0.27588774392E+02  0.39472351837E+02 -0.25874878513E+02  0.54669153735E+02  0.00000000000E+00 0. -1.
         22    1    1    2    0    0  0.23780403941E+02  0.59664639285E+02 -0.85799023715E+02  0.10717671978E+03  0.00000000000E+00 0. -1.
         22    1    1    2    0    0 -0.31902304236E+02 -0.29304638828E+00  0.26408364732E+02  0.41415511823E+02  0.00000000000E+00 0. -1.
</event>
<event>
 6    1  0.1715574E-005  0.4893131E+02  0.7818608E-02  0.1516839E+00
          2   -1    0    0  502    0  0.00000000000E+00  0.00000000000E+00  0.46644010863E+03  0.46644010863E+03  0.00000000000E+00 0.  1.
          1   -1    0    0  501    0 -0.00000000000E+00 -0.00000000000E+00 -0.81028215084E+02  0.81028215084E+02  0.00000000000E+00 0.  1.
          2    1    1    2  501    0 -0.25412358045E+01 -0.43653403734E+02  0.32743696848E+03  0.33034382977E+03  0.00000000000E+00 0.  1.
          1    1    1    2  502    0 -0.22107502429E+02  0.49720225412E+02 -0.26704046097E+02  0.60613105486E+02  0.00000000000E+00 0.  1.
         22    1    1    2    0    0  0.32910195070E+02 -0.18119369516E+02  0.11600947845E+03  0.12194093481E+03  0.00000000000E+00 0.  1.
         22    1    1    2    0    0 -0.82614568361E+01  0.12052547837E+02 -0.31330507292E+02  0.34570453651E+02  0.00000000000E+00 0.  1.
</event>
<event>
 6    1  0.1715574E-005  0.1188477E+03  0.7818608E-02  0.1303569E+00
          2   -1    0    0  502    0  0.00000000000E+00  0.00000000000E+00  0.42235687489E+03  0.42235687489E+03  0.00000000000E+00 0.  1.
          1   -1    0    0  501    0 -0.00000000000E+00 -0.00000000000E+00 -0.11942839209E+03  0.11942839209E+03  0.00000000000E+00 0. -1.
          2    1    1    2  501    0 -0.25288243284E+02 -0.25879485502E+02  0.31237832957E+03  0.31446695185E+03  0.00000000000E+00 0.  1.
          1    1    1    2  502    0  0.10165838016E+02 -0.21040322517E+02 -0.75222929706E+02  0.78768830052E+02  0.00000000000E+00 0. -1.
         22    1    1    2    0    0  0.34204044770E+01  0.55735841058E+02  0.98199895935E+02  0.11296637866E+03  0.00000000000E+00 0. -1.
         22    1    1    2    0    0  0.11702000790E+02 -0.88160330389E+01 -0.32426813008E+02  0.35583106425E+02  0.00000000000E+00 0.  1.
</event>
<event>
 6    1  0.1715574E-005  0.6713500E+02  0.7818608E-02  0.1371354E+00
          2   -1    0    0  502    0  0.00000000000E+00  0.00000000000E+00  0.34619888309E+02  0.34619888309E+02  0.00000000000E+00 0.  1.
          1   -1    0    0  501    0 -0.00000000000E+00 -0.00000000000E+00 -0.44362343631E+03  0.44362343631E+03  0.00000000000E+00 0.  1.
          2    1    1    2  501    0 -0.27161722725E+02 -0.17066991388E+01 -0.20182333179E+01  0.27290021419E+02  0.00000000000E+00 0.  1.
          1    1    1    2  502    0  0.23898931886E+02 -0.58474127423E+01 -0.23390627723E+03  0.23519672130E+03  0.00000000000E+00 0.  1.
         22    1    1    2    0    0 -0.27023934852E+02  0.29361768895E+02 -0.12535216351E+01  0.39924652084E+02  0.00000000000E+00 0.  1.
         22    1    1    2    0    0  0.30286725691E+02 -0.21807657014E+02 -0.17182551582E+03  0.17583192982E+03  0.00000000000E+00 0.  1.
</event>
<event>
 6    1  0.1715574E-005  0.1265905E+03  0.7818608E-02  0.1262528E+00
          2   -1    0    0  502    0  0.00000000000E+00  0.00000000000E+00  0.32245928562E+03  0.32245928562E+03  0.00000000000E+00 0.  1.
          1   -1    0    0  501    0 -0.00000000000E+00 -0.00000000000E+00 -0.45753722610E+02  0.45753722610E+02  0.00000000000E+00 0.  1.
          2    1    1    2  501    0  0.27577146127E+02 -0.36499885987E+02  0.12284501767E+03  0.13108638004E+03  0.00000000000E+00 0.  1.
          1    1    1    2  502    0  0.29993453336E+02  0.30306743622E+02  0.42936996791E+02  0.60511913252E+02  0.00000000000E+00 0.  1.
         22    1    1    2    0    0 -0.74808874273E+02  0.20213879131E+02  0.16001494399E+02  0.79126584676E+02  0.00000000000E+00 0.  1.
         22    1    1    2    0    0  0.17238274810E+02 -0.14020736766E+02  0.94922054150E+02  0.97488130262E+02  0.00000000000E+00 0.  1.
</event>
<event>
 6    1  0.1715574E-005  0.1687951E+03  0.7818608E-02  0.1190644E+00
          2   -1    0    0  502    0  0.00000000000E+00  0.00000000000E+00  0.26322163881E+02  0.26322163881E+02  0.00000000000E+00 0. -1.
          1   -1    0    0  501    0 -0.00000000000E+00 -0.00000000000E+00 -0.96276007584E+03  0.96276007584E+03  0.00000000000E+00 0. -1.
          2    1    1    2  501    0  0.13301948386E+02 -0.10141429332E+03 -0.45916793700E+03  0.47042214562E+03  0.00000000000E+00 0. -1.
          1    1    1    2  502    0  0.15321731912E+02 -0.12960434640E+02 -0.17492996425E+02  0.26622044602E+02  0.00000000000E+00 0. -1.
         22    1    1    2    0    0 -0.48642427099E+02  0.13429247442E+03 -0.33632024229E+03  0.36539274729E+03  0.00000000000E+00 0. -1.
         22    1    1    2    0    0  0.20018746801E+02 -0.19917746451E+02 -0.12345673625E+03  0.12664530222E+03  0.00000000000E+00 0. -1.
</event>
<event>
 6    1  0.1715574E-005  0.5874441E+02  0.7818608E-02  0.1403776E+00
          2   -1    0    0  502    0  0.00000000000E+00  0.00000000000E+00  0.29521268673E+03  0.29521268673E+03  0.00000000000E+00 0. -1.
          1   -1    0    0  501    0 -0.00000000000E+00 -0.00000000000E+00 -0.15227492647E+03  0.15227492647E+03  0.00000000000E+00 0.  1.
          2    1    1    2  501    0  0.22315458734E+02  0.18620646815E+02  0.17843531727E+03  0.18078680991E+03  0.00000000000E+00 0. -1.
          1    1    1    2  502    0 -0.27337927959E+02 -0.26990990641E+02 -0.11010461303E+03  0.11661432884E+03  0.00000000000E+00 0.  1.
         22    1    1    2    0    0 -0.13498146898E+02 -0.12847450830E+02 -0.33520018608E+02  0.38351644163E+02  0.00000000000E+00 0. -1.
         22    1    1    2    0    0  0.18520616124E+02  0.21217794657E+02  0.10812707463E+03  0.11173483029E+03  0.00000000000E+00 0. -1.
</event>
<event>
 6    1  0.1715574E-005  0.1126906E+03  0.7818608E-02  0.1281032E+00
          2   -1    0    0  502    0  0.00000000000E+00  0.00000000000E+00  0.50880204503E+03  0.50880204503E+03  0.00000000000E+00 0.  1.
          1   -1    0    0  501    0 -0.00000000000E+00 -0.00000000000E+00 -0.81458974422E+02  0.81458974422E+02  0.00000000000E+00 0.  1.
          2    1    1    2  501    0  0.40908156536E+01  0.57338029603E+02  0.26363336231E+03  0.26982760077E+03  0.00000000000E+00 0.  1.
          1    1    1    2  502    0 -0.44691868846E+02  0.67367236010E+02  0.10005583354E+03  0.12863466661E+03  0.00000000000E+00 0.  1.
         22    1    1    2    0    0  0.93386915121E+01  0.65506041946E+01  0.55461840077E+02  0.56622762907E+02  0.00000000000E+00 0. -1.
         22    1    1    2    0    0  0.31262361680E+02 -0.13125586981E+03  0.81920346838E+01  0.13517598917E+03  0.00000000000E+00 0.  1.
</event>
<event>
 6    1  0.1715574E-005  0.7954491E+02  0.7818608E-02  0.1340491E+00
          2   -1    0    0  502    0  0.00000000000E+00  0.00000000000E+00  0.15908368547E+03  0.15908368547E+03  0.00000000000E+00 0. -1.
          1   -1    0    0  501    0 -0.00000000000E+00 -0.00000000000E+00 -0.12777646748E+03  0.12777646748E+03  0.00000000000E+00 0.  1.
          2    1    1    2  501    0 -0.50370479202E-01  0.36425614386E+02  0.10797873416E+03  0.11395716279E+03  0.00000000000E+00 0. -1.
          1    1    1    2  502    0 -0.93298174261E+01 -0.28561103166E+02 -0.14146431028E+02  0.33209992745E+02  0.00000000000E+00 0.  1.
         22    1    1    2    0    0  0.24648835399E+02 -0.28181655142E+02 -0.92857063044E+02  0.10012095150E+03  0.00000000000E+00 0.  1.
         22    1    1    2    0    0 -0.15268647494E+02  0.20317143922E+02  0.30331977905E+02  0.39572045905E+02  0.00000000000E+00 0.  1.
</event>
<event>
 6    1  0.1715574E-005  0.9698688E+02  0.7818608E-02  0.1347863E+00
          2   -1    0    0  502    0  0.00000000000E+00  0.00000000000E+00  0.43606522840E+03  0.43606522840E+03  0.00000000000E+00 0.  1.
          1   -1    0    0  501    0 -0.00000000000E+00 -0.00000000000E+00 -0.13017156755E+03  0.13017156755E+03  0.00000000000E+00 0. -1.
          2    1    1    2  501    0  0.42186466070E+02 -0.49816905643E+02  0.22675802636E+03  0.23596742259E+03  0.00000000000E+00 0.  1.
          1    1    1    2  502    0 -0.74522493505E+02  0.62656886392E+02 -0.78125142356E+02  0.12483198836E+03  0.00000000000E+00 0. -1.
         22    1    1    2    0    0  0.41887907365E+01 -0.28855877851E+02  0.16861671344E+03  0.17111926748E+03  0.00000000000E+00 0.  1.
         22    1    1    2    0    0  0.28147236698E+02  0.16015897102E+02 -0.11355936591E+02  0.34318117512E+02  0.00000000000E+00 0.  1.
</event>
<event>
 6    1  0.1715574E-005  0.1225220E+03  0.7818608E-02  0.1278765E+00
          2   -1    0    0  502    0  0.00000000000E+00  0.00000000000E+00  0.62074493666E+02  0.62074493666E+02  0.00000000000E+00 0.  1.
          1   -1    0    0  501    0 -0.00000000000E+00 -0.00000000000E+00 -0.18056148108E+03  0.18056148108E+03  0.00000000000E+00 0. -1.
          2    1    1    2  501    0  0.27922158838E+02  0.41782364587E+01 -0.45103118599E+02  0.53210862815E+02  0.00000000000E+00 0.  1.
          1    1    1    2  502    0  0.14002696097E+02 -0.25886876598E+02 -0.46388936775E+02  0.54937594897E+02  0.00000000000E+00 0. -1.
         22    1    1    2    0    0 -0.40217662227E+02  0.47445954815E+02  0.32111481942E+02  0.69998044657E+02  0.00000000000E+00 0.  1.
         22    1    1    2    0    0 -0.17071927082E+01 -0.25737314676E+02 -0.59106413979E+02  0.64489472374E+02  0.00000000000E+00 0. -1.
</event>
<event>
 6    1  0.1715574E-005  0.3659344E+02  0.7818608E-02  0.1590377E+00
          2   -1    0    0  502    0  0.00000000000E+00  0.00000000000E+00  0.50091263013E+03  0.50091263013E+03  0.00000000000E+00 0.  1.
          1   -1    0    0  501    0 -0.00000000000E+00 -0.00000000000E+00 -0.12917292168E+03  0.12917292168E+03  0.00000000000E+00 0. -1.
          2    1    1    2  501    0  0.83991598928E+01  0.51636868072E+02  0.36915844249E+03  0.37284697624E+03  0.00000000000E+00 0.  1.
          1    1    1    2  502    0 -0.42348487346E+02 -0.44857369957E+02 -0.83832789796E+02  0.10408417106E+03  0.00000000000E+00 0. -1.
         22    1    1    2    0    0  0.11011424225E+02 -0.35115072921E+01 -0.31204154759E+02  0.33275838399E+02  0.00000000000E+00 0.  1.
         22    1    1    2    0    0  0.22937903228E+02 -0.32679908230E+01  0.11761821052E+03  0.11987856611E+03  0.00000000000E+00 0. -1.
</event>
<event>
 6    1  0.1715574E-005  0.8904049E+02  0.7818608E-02  0.1324373E+00
          2   -1    0    0  502    0  0.00000000000E+00  0.00000000000E+00  0.50020812904E+02  0.50020812904E+02  0.00000000000E+00 0. -1.
          1   -1    0    0  501    0 -0.00000000000E+00 -0.00000000000E+00 -0.51130143227E+03  0.51130143227E+03  0.00000000000E+00 0. -1.
          2    1    1    2  501    0 -0.31048932135E+01  0.23567482923E+02 -0.28252216893E+03  0.28352044467E+03  0.00000000000E+00 0. -1.
          1    1    1    2  502    0 -0.97805837131E+01 -0.32193231802E+02  0.22757533024E+02  0.40619814142E+02  0.00000000000E+00 0. -1.
         22    1    1    2    0    0  0.45810898800E+02 -0.24508873589E+01 -0.16222440179E+02  0.48660177384E+02  0.00000000000E+00 0. -1.
         22    1    1    2    0    0 -0.32925421874E+02  0.11076636238E+02 -0.18529354329E+03  0.18852180898E+03  0.00000000000E+00 0.  1.
</event>
<event>
 6    1  0.1715574E-005  0.1572223E+03  0.7818608E-02  0.1193428E+00
          2   -1    0    0  502    0  0.00000000000E+00  0.00000000000E+00  0.11209003990E+04  0.11209003990E+04  0.00000000000E+00 0. -1.
          1   -1    0    0  501    0 -0.00000000000E+00 -0.00000000000E+00 -0.22399378437E+02  0.22399378437E+02  0.00000000000E+00 0. -1.
          2    1    1    2  501    0  0.28512243131E+02 -0.41468064195E+02  0.46154571754E+02  0.68284645787E+02  0.00000000000E+00 0. -1.
          1    1    1    2  502    0 -0.30701718586E+02  0.70383005359E+02  0.59248457969E+03  0.59743982135E+03  0.00000000000E+00 0. -1.
         22    1    1    2    0    0 -0.36830087227E+02  0.24047647856E+02  0.73525109176E+02  0.85677805597E+02  0.00000000000E+00 0. -1.
         22    1    1    2    0    0  0.39019562682E+02 -0.52962589020E+02  0.38633675992E+03  0.39189750468E+03  0.00000000000E+00 0. -1.
</event>
<event>
 6    1  0.1715574E-005  0.3014843E+02  0.7818608E-02  0.1623595E+00
          2   -1    0    0  502    0  0.00000000000E+00  0.00000000000E+00  0.77384224970E+02  0.77384224970E+02  0.00000000000E+00 0.  1.
          1   -1    0    0  501    0 -0.00000000000E+00 -0.00000000000E+00 -0.19393257975E+03  0.19393257975E+03  0.00000000000E+00 0.  1.
          2    1    1    2  501    0 -0.10988054677E+02 -0.46772811870E+02  0.23924458230E+02  0.53673205395E+02  0.00000000000E+00 0.  1.
          1    1    1    2  502    0  0.56843874746E+01  0.37263112970E+02 -0.51065280908E+02  0.63470581874E+02  0.00000000000E+00 0.  1.
         22    1    1    2    0    0  0.19102436462E+02  0.57700101214E+01 -0.11934252015E+03  0.12099931079E+03  0.00000000000E+00 0.  1.
         22    1    1    2    0    0 -0.13798769260E+02  0.37396887790E+01  0.29934988041E+02  0.33173706670E+02  0.00000000000E+00 0.  1.
</event>
<event>
 6    1  0.1715574E-005  0.4996683E+02  0.7818608E-02  0.1550013E+00
          2   -1    0    0  502    0  0.00000000000E+00  0.00000000000E+00  0.35558508829E+03  0.35558508829E+03  0.00000000000E+00 0.  1.
          1   -1    0    0  501    0 -0.00000000000E+00 -0.00000000000E+00 -0.16748896968E+03  0.16748896968E+03  0.00000000000E+00 0. -1.
          2    1    1    2  501    0 -0.21107144274E+02 -0.69327849271E+02  0.23271550554E+03  0.24373832021E+03  0.00000000000E+00 0.  1.
          1    1    1    2  502    0  0.54791585808E+02  0.37494992237E+02 -0.11165853458E+03  0.12990619948E+03  0.00000000000E+00 0. -1.
         22    1    1    2    0    0 -0.93232376575E+01 -0.45037179444E+01 -0.36015267589E+02  0.37474067503E+02  0.00000000000E+00 0.  1.
         22    1    1    2    0    0 -0.24361203876E+02  0.36336574979E+02  0.10305441524E+03  0.11195547077E+03  0.00000000000E+00 0.  1.
</event>
<event>
 6    1  0.1715574E-005  0.2103084E+03  0.7818608E-02  0.1167578E+00
          2   -1    0    0  502    0  0.00000000000E+00  0.00000000000E+00  0.61649718919E+02  0.61649718919E+02  0.00000000000E+00 0. -1.
          1   -1    0    0  501    0 -0.00000000000E+00 -0.00000000000E+00 -0.12438472553E+04  0.12438472553E+04  0.00000000000E+00 0.  1.
          2    1    1    2  501    0 -0.21099131408E+02  0.60085579667E+01 -0.43675192860E+02  0.48875337199E+02  0.00000000000E+00 0. -1.
          1    1    1    2  502    0  0.10452491710E+02  0.87466730714E+02 -0.10934029591E+04  0.10969456297E+04  0.00000000000E+00 0.  1.
         22    1    1    2    0    0 -0.19633610998E+02 -0.47512741856E+02 -0.79577368987E+02  0.94739099502E+02  0.00000000000E+00 0. -1.
         22    1    1    2    0    0  0.30280250697E+02 -0.45962546825E+02  0.34457984580E+02  0.64936907797E+02  0.00000000000E+00 0. -1.
</event>
<event>
 6    1  0.1715574E-005  0.6445940E+02  0.7818608E-02  0.1428174E+00
          2   -1    0    0  502    0  0.00000000000E+00  0.00000000000E+00  0.17400623971E+03  0.17400623971E+03  0.00000000000E+00 0.  1.
          1   -1    0    0  501    0 -0.00000000000E+00 -0.00000000000E+00 -0.76574490119E+02  0.76574490119E+02  0.00000000000E+00 0.  1.
          2    1    1    2  501    0  0.11038531052E+02 -0.35059213439E+02  0.55528643626E+02  0.66591500040E+02  0.00000000000E+00 0.  1.
          1    1    1    2  502    0 -0.47197263137E+01  0.46141188372E+02  0.27558045192E+02  0.53951190308E+02  0.00000000000E+00 0.  1.
         22    1    1    2    0    0 -0.98683285278E+00  0.30181642506E+02 -0.47029484015E+02  0.55889871624E+02  0.00000000000E+00 0.  1.
         22    1    1    2    0    0 -0.53319718855E+01 -0.41263617440E+02  0.61374544790E+02  0.74148167858E+02  0.00000000000E+00 0.  1.
</event>
<event>
 6    1  0.1715574E-005  0.1534259E+03  0.7818608E-02  0.1200023E+00
          2   -1    0    0  502    0  0.00000000000E+00  0.00000000000E+00  0.40509634454E+03  0.40509634454E+03  0.00000000000E+00 0. -1.
          1   -1    0    0  501    0 -0.00000000000E+00 -0.00000000000E+00 -0.62989094246E+02  0.62989094246E+02  0.00000000000E+00 0. -1.
          2    1    1    2  501    0  0.10637734392E+03  0.33334868292E+02  0.17436626981E+03  0.20695639345E+03  0.00000000000E+00 0. -1.
          1    1    1    2  502    0 -0.61472786497E+02  0.37814249246E+01  0.65211576964E+02  0.89698118288E+02  0.00000000000E+00 0. -1.
         22    1    1    2    0    0 -0.67367161898E+02 -0.50041219449E+02  0.21886935962E+02  0.86726559437E+02  0.00000000000E+00 0. -1.
         22    1    1    2    0    0  0.22462604471E+02  0.12924926232E+02  0.80642467558E+02  0.84704367606E+02  0.00000000000E+00 0. -1.
</event>
<event>
 6    1  0.1715574E-005  0.2364985E+02  0.7818608E-02  0.1707529E+00
          2   -1    0    0  502    0  0.00000000000E+00  0.00000000000E+00  0.24197734094E+03  0.24197734094E+03  0.00000000000E+00 0.  1.
          1   -1    0    0  501    0 -0.00000000000E+00 -0.00000000000E+00 -0.36786821048E+03  0.36786821048E+03  0.00000000000E+00 0. -1.
          2    1    1    2  501    0 -0.40917518917E+02  0.16767128804E+02  0.18858851068E+03  0.19370339781E+03  0.00000000000E+00 0.  1.
          1    1    1    2  502    0  0.23526212381E+02 -0.12352635781E+02 -0.28544221900E+03  0.28667635177E+03  0.00000000000E+00 0. -1.
         22    1    1    2    0    0  0.13571523374E+02  0.61599780491E+01 -0.77906741112E+02  0.79319555515E+02  0.00000000000E+00 0. -1.
         22    1    1    2    0    0  0.38197831619E+01 -0.10574471073E+02  0.48869579890E+02  0.50146246325E+02  0.00000000000E+00 0.  1.
</event>
<event>
 6    1  0.1715574E-005  0.1470603E+03  0.7818608E-02  0.1206872E+00
          2   -1    0    0  502    0  0.00000000000E+00  0.00000000000E+00  0.20972491323E+03  0.20972491323E+03  0.00000000000E+00 0.  1.
          1   -1    0    0  501    0 -0.00000000000E+00 -0.00000000000E+00 -0.11572064914E+03  0.11572064914E+03  0.00000000000E+00 0.  1.
          2    1    1    2  501    0 -0.79229061708E+02  0.32692045802E+02  0.97902937799E+02  0.13011917348E+03  0.00000000000E+00 0.  1.
          1    1    1    2  502    0 -0.24648807963E+01 -0.43350610267E+02  0.15384307046E+02  0.46065474611E+02  0.00000000000E+00 0.  1.
         22    1    1    2    0    0 -0.88839961861E+01  0.44669064167E+02  0.12832718263E+02  0.47317326000E+02  0.00000000000E+00 0.  1.
         22    1    1    2    0    0  0.90577938690E+02 -0.34010499702E+02 -0.32115699014E+02  0.10194358828E+03  0.00000000000E+00 0.  1.
</event>
<event>
 6    1  0.1715574E-005  0.5740771E+02  0.7818608E-02  0.1428844E+00
          2   -1    0    0  502    0  0.00000000000E+00  0.00000000000E+00  0.62969368711E+02  0.62969368711E+02  0.00000000000E+00 0. -1.
          1   -1    0    0  501    0 -0.00000000000E+00 -0.00000000000E+00 -0.46624186126E+03  0.46624186126E+03  0.00000000000E+00 0. -1.
          2    1    1    2  501    0  0.64032205077E+02  0.10733283155E+02 -0.15222779845E+02  0.66686278053E+02  0.00000000000E+00 0. -1.
          1    1    1    2  502    0 -0.45626592047E+02 -0.41983363683E+02 -0.30095185258E+03  0.30727252773E+03  0.00000000000E+00 0. -1.
         22    1    1    2    0    0 -0.42176584286E+02  0.11803808310E+02 -0.10904031874E+03  0.11750738387E+03  0.00000000000E+00 0.  1.
         22    1    1    2    0    0  0.23770971256E+02  0.19446272218E+02  0.21942458623E+02  0.37745040311E+02  0.00000000000E+00 0. -1.
</event>
<event>
 6    1  0.1715574E-005  0.2229103E+03  0.7818608E-02  0.1132492E+00
          2   -1    0    0  502    0  0.00000000000E+00  0.00000000000E+00  0.83911142589E+03  0.83911142589E+03  0.00000000000E+00 0. -1.
          1   -1    0    0  501    0 -0.00000000000E+00 -0.00000000000E+00 -0.87416543642E+02  0.87416543642E+02  0.00000000000E+00 0. -1.
          2    1    1    2  501    0 -0.49332345925E+02  0.25590498006E+02  0.55888601239E+02  0.78816810968E+02  0.00000000000E+00 0. -1.
          1    1    1    2  502    0  0.16960249533E+03 -0.11827773174E+03  0.59369380284E+03  0.62867078808E+03  0.00000000000E+00 0. -1.
         22    1    1    2    0    0 -0.12314815828E+03  0.10356376521E+03  0.54146693178E+02  0.16977275027E+03  0.00000000000E+00 0. -1.
         22    1    1    2    0    0  0.28780088832E+01 -0.10876531476E+02  0.47965784985E+02  0.49267620212E+02  0.00000000000E+00 0.  1.
</event>
<event>
 6    1  0.1715574E-005  0.1546113E+03  0.7818608E-02  0.1196999E+00
          2   -1    0    0  502    0  0.00000000000E+00  0.00000000000E+00  0.15659804927E+03  0.15659804927E+03  0.00000000000E+00 0.  1.
          1   -1    0    0  501    0 -0.00000000000E+00 -0.00000000000E+00 -0.35579684602E+03  0.35579684602E+03  0.00000000000E+00 0.  1.
          2    1    1    2  501    0  0.94479552733E+02  0.48392794824E+02  0.65652947637E+02  0.12481409379E+03  0.00000000000E+00 0.  1.
          1    1    1    2  502    0 -0.10382215019E+03 -0.66335246347E+01 -0.22562602683E+03  0.24845552218E+03  0.00000000000E+00 0.  1.
         22    1    1    2    0    0  0.44947965595E+02 -0.18105449095E+02  0.30559422884E+02  0.57288787953E+02  0.00000000000E+00 0.  1.
         22    1    1    2    0    0 -0.35605368138E+02 -0.23653821095E+02 -0.69785140443E+02  0.81836491367E+02  0.00000000000E+00 0.  1.
</event>
<event>
 6    1  0.1715574E-005  0.2410992E+03  0.7818608E-02  0.1119787E+00
          2   -1    0    0  502    0  0.00000000000E+00  0.00000000000E+00  0.21967417988E+03  0.21967417988E+03  0.00000000000E+00 0.  1.
          1   -1    0    0  501    0 -0.00000000000E+00 -0.00000000000E+00 -0.26047890588E+03  0.26047890588E+03  0.00000000000E+00 0. -1.
          2    1    1    2  501    0 -0.11400244748E+03 -0.16944413005E+03 -0.18464266382E+02  0.20505804147E+03  0.00000000000E+00 0.  1.
          1    1    1    2  502    0  0.81648997883E+02  0.91069109001E+02  0.48069053838E+01  0.12240607750E+03  0.00000000000E+00 0. -1.
         22    1    1    2    0    0 -0.13848794832E+02 -0.26981734092E+02  0.97788488304E+01  0.31865796355E+02  0.00000000000E+00 0.  1.
         22    1    1    2    0    0  0.46202244431E+02  0.10535675514E+03 -0.36926213835E+02  0.12082317043E+03  0.00000000000E+00 0.  1.
</event>
<event>
 6    1  0.1715574E-005  0.3173169E+02  0.7818608E-02  0.1625344E+00
          2   -1    0    0  502    0  0.00000000000E+00  0.00000000000E+00  0.90346897486E+02  0.90346897486E+02  0.00000000000E+00 0. -1.
          1   -1    0    0  501    0 -0.00000000000E+00 -0.00000000000E+00 -0.13324338916E+03  0.13324338916E+03  0.00000000000E+00 0. -1.
          2    1    1    2  501    0 -0.94614455576E+01  0.37489550662E+02 -0.14647893726E+01  0.38692776700E+02  0.00000000000E+00 0. -1.
          1    1    1    2  502    0 -0.31539313067E+01 -0.31456460702E+02 -0.54255702237E+02  0.62794406023E+02  0.00000000000E+00 0. -1.
         22    1    1    2    0    0  0.29788873436E+02 -0.61237073834E+01  0.62519493949E+02  0.69523836893E+02  0.00000000000E+00 0. -1.
         22    1    1    2    0    0 -0.17173496571E+02  0.90617423250E-01 -0.49695494013E+02  0.52579267028E+02  0.00000000000E+00 0. -1.
</event>
<event>
 6    1  0.1715574E-005  0.5705684E+02  0.7818608E-02  0.1411781E+00
          2   -1    0    0  502    0  0.00000000000E+00  0.00000000000E+00  0.73884605726E+02  0.73884605726E+02  0.00000000000E+00 0. -1.
          1   -1    0    0  501    0 -0.00000000000E+00 -0.00000000000E+00 -0.38996557084E+03  0.38996557084E+03  0.00000000000E+00 0. -1.
          2    1    1    2  501    0  0.11430744527E+02 -0.28392418647E+02  0.44439167359E+02  0.53959530693E+02  0.00000000000E+00 0. -1.
          1    1    1    2  502    0 -0.62584164549E+01  0.19986426526E+02 -0.21830902579E+03  0.21931132156E+03  0.00000000000E+00 0. -1.
         22    1    1    2    0    0  0.34745634906E+00 -0.23601328943E+02  0.16357934241E+02  0.28718033819E+02  0.00000000000E+00 0.  1.
         22    1    1    2    0    0 -0.55197844213E+01  0.32007321065E+02 -0.15856904093E+03  0.16186129050E+03  0.00000000000E+00 0. -1.
</event>
<event>
 6    1  0.1715574E-005  0.7552860E+02  0.7818608E-02  0.1344543E+00
          2   -1    0    0  502    0  0.00000000000E+00  0.00000000000E+00  0.28431303940E+03  0.28431303940E+03  0.00000000000E+00 0. -1.
          1   -1    0    0  501    0 -0.00000000000E+00 -0.00000000000E+00 -0.38769425527E+02  0.38769425527E+02  0.00000000000E+00 0. -1.
          2    1    1    2  501    0 -0.27033801407E+02  0.26256908696E+02  0.96694187419E+02  0.10377869508E+03  0.00000000000E+00 0. -1.
          1    1    1    2  502    0  0.10936872196E+02 -0.28960579166E+02  0.21354751251E+02  0.37607920974E+02  0.00000000000E+00 0. -1.
         22    1    1    2    0    0 -0.53089469407E+01  0.32444608517E+02  0.13935530809E+03  0.14318079282E+03  0.00000000000E+00 0.  1.
         22    1    1    2    0    0  0.21405876151E+02 -0.29740938048E+02 -0.11860632888E+02  0.38515056047E+02  0.00000000000E+00 0. -1.
</event>
<event>
 6    1  0.1715574E-005  0.2974934E+03  0.7818608E-02  0.1177623E+00
          2   -1    0    0  502    0  0.00000000000E+00  0.00000000000E+00  0.19885801298E+03  0.19885801298E+03  0.00000000000E+00 0.  1.
          1   -1    0    0  501    0 -0.00000000000E+00 -0.00000000000E+00 -0.59419330109E+03  0.59419330109E+03  0.00000000000E+00 0.  1.
          2    1    1    2  501    0 -0.20442258655E+03  0.58611994087E+02 -0.15392135260E+02  0.21321556597E+03  0.00000000000E+00 0.  1.
          1    1    1    2  502    0  0.23391837839E+03 -0.13970639348E+03 -0.31399120479E+03  0.41572365920E+03  0.00000000000E+00 0.  1.
         22    1    1    2    0    0 -0.59014079190E+02  0.69043268624E+02  0.33438551548E-01  0.90827504662E+02  0.00000000000E+00 0. -1.
         22    1    1    2    0    0  0.29518287353E+02  0.12051130773E+02 -0.65985386608E+02  0.73284584238E+02  0.00000000000E+00 0. -1.
</event>
<event>
 6    1  0.1715574E-005  0.3124331E+02  0.7818608E-02  0.1648654E+00
          2   -1    0    0  502    0  0.00000000000E+00  0.00000000000E+00  0.31844070909E+03  0.31844070909E+03  0.00000000000E+00 0. -1.
          1   -1    0    0  501    0 -0.00000000000E+00 -0.00000000000E+00 -0.34123517777E+03  0.34123517777E+03  0.00000000000E+00 0. -1.
          2    1    1    2  501    0  0.12024898347E+02  0.25770518525E+02  0.23119211749E+03  0.23293456805E+03  0.00000000000E+00 0. -1.
          1    1    1    2  502    0  0.17326949676E+02 -0.46437384005E+02 -0.28955921021E+03  0.29377064188E+03  0.00000000000E+00 0. -1.
         22    1    1    2    0    0 -0.20521746331E+02  0.13245645030E+02  0.81777812895E+02  0.85347524080E+02  0.00000000000E+00 0.  1.
         22    1    1    2    0    0 -0.88301016923E+01  0.74212204506E+01 -0.46205188859E+02  0.47623152840E+02  0.00000000000E+00 0.  1.
</event>
<event>
 6    1  0.1715574E-005  0.9283615E+02  0.7818608E-02  0.1357909E+00
          2   -1    0    0  502    0  0.00000000000E+00  0.00000000000E+00  0.27189894394E+03  0.27189894394E+03  0.00000000000E+00 0. -1.
          1   -1    0    0  501    0 -0.00000000000E+00 -0.00000000000E+00 -0.10556389443E+03  0.10556389443E+03  0.00000000000E+00 0.  1.
          2    1    1    2  501    0  0.59314839411E+02 -0.40276410640E+02  0.14790666176E+03  0.16436794098E+03  0.00000000000E+00 0. -1.
          1    1    1    2  502    0 -0.50939471430E+02  0.52423488233E+02 -0.30118473781E+02  0.79058044062E+02  0.00000000000E+00 0.  1.
         22    1    1    2    0    0  0.20425734603E+02 -0.32853196254E+00  0.84235963539E+02  0.86677656409E+02  0.00000000000E+00 0. -1.
         22    1    1    2    0    0 -0.28801102584E+02 -0.11818545630E+02 -0.35689102007E+02  0.47359196921E+02  0.00000000000E+00 0.  1.
</event>
<event>
 6    1  0.1715574E-005  0.4954780E+02  0.7818608E-02  0.1448012E+00
          2   -1    0    0  502    0  0.00000000000E+00  0.00000000000E+00  0.97728392313E+02  0.97728392313E+02  0.00000000000E+00 0. -1.
          1   -1    0    0  501    0 -0.00000000000E+00 -0.00000000000E+00 -0.36522773615E+03  0.36522773615E+03  0.00000000000E+00 0. -1.
          2    1    1    2  501    0  0.16946599220E+02 -0.23850096815E+02  0.45223650078E+02  0.53862722449E+02  0.00000000000E+00 0. -1.
          1    1    1    2  502    0 -0.14813823708E+02  0.31459239967E+02 -0.27989884560E+03  0.28205052193E+03  0.00000000000E+00 0. -1.
         22    1    1    2    0    0  0.65700503196E+01 -0.18494798306E+02  0.44413980607E+02  0.48557438142E+02  0.00000000000E+00 0. -1.
         22    1    1    2    0    0 -0.87028258314E+01  0.10885655154E+02 -0.77238128924E+02  0.78485445946E+02  0.00000000000E+00 0.  1.
</event>
<event>
 6    1  0.1715574E-005  0.1714160E+03  0.7818608E-02  0.1201930E+00
          2   -1    0    0  502    0  0.00000000000E+00  0.00000000000E+00  0.18896293179E+03  0.18896293179E+03  0.00000000000E+00 0.  1.
          1   -1    0    0  501    0 -0.00000000000E+00 -0.00000000000E+00 -0.16477055139E+03  0.16477055139E+03  0.00000000000E+00 0.  1.
          2    1    1    2  501    0  0.36792186180E+02 -0.12639938172E+02 -0.28756017346E+02  0.48377076540E+02  0.00000000000E+00 0.  1.
          1    1    1    2  502    0  0.44827641777E+02 -0.20790580684E+02 -0.83749650877E+02  0.97240782260E+02  0.00000000000E+00 0.  1.
         22    1    1    2    0    0 -0.26452789420E+02  0.29684657887E+02 -0.18138026027E+02  0.43702596835E+02  0.00000000000E+00 0. -1.
         22    1    1    2    0    0 -0.55167038537E+02  0.37458609690E+01  0.15483607465E+03  0.16441302755E+03  0.00000000000E+00 0.  1.
</event>
<event>
 6    1  0.1715574E-005  0.4716393E+02  0.7818608E-02  0.1462640E+00
          2   -1    0    0  502    0  0.00000000000E+00  0.00000000000E+00  0.15429463616E+03  0.15429463616E+03  0.00000000000E+00 0. -1.
          1   -1    0    0  501    0 -0.00000000000E+00 -0.00000000000E+00 -0.20915881505E+03  0.20915881505E+03  0.00000000000E+00 0. -1.
          2    1    1    2  501    0 -0.20952002380E+02  0.11025649757E+02  0.58096771489E+02  0.62735844728E+02  0.00000000000E+00 0. -1.
          1    1    1    2  502    0  0.27445744612E+02 -0.18606539494E+02 -0.16462857172E+03  0.16793462668E+03  0.00000000000E+00 0. -1.
         22    1    1    2    0    0 -0.14204582250E+02  0.17024553561E+02  0.89931156563E+02  0.92624070854E+02  0.00000000000E+00 0. -1.
         22    1    1    2    0    0  0.77108400179E+01 -0.94436638233E+01 -0.38263535221E+02  0.40158908947E+02  0.00000000000E+00 0. -1.
</event>
<event>
 6    1  0.1715574E-005  0.9063959E+02  0.7818608E-02  0.1302265E+00
          2   -1    0    0  502    0  0.00000000000E+00  0.00000000000E+00  0.60219475933E+02  0.60219475933E+02  0.00000000000E+00 0. -1.
          1   -1    0    0  501    0 -0.00000000000E+00 -0.00000000000E+00 -0.42232596360E+03  0.42232596360E+03  0.00000000000E+00 0. -1.
          2    1    1    2  501    0  0.36443205467E+02  0.44598638029E+02  0.15739432047E+01  0.57616169917E+02  0.00000000000E+00 0. -1.
          1    1    1    2  502    0 -0.48663558695E+02 -0.37402799634E+02 -0.23808443068E+03  0.24586847601E+03  0.00000000000E+00 0. -1.
         22    1    1    2    0    0  0.20108932521E+02  0.20381362201E+02  0.17207858200E+02  0.33404782235E+02  0.00000000000E+00 0. -1.
         22    1    1    2    0    0 -0.78885792931E+01 -0.27577200597E+02 -0.14280385839E+03  0.14565601137E+03  0.00000000000E+00 0. -1.
</event>
<event>
 6    1  0.1715574E-005  0.1269846E+03  0.7818608E-02  0.1233449E+00
          2   -1    0    0  502    0  0.00000000000E+00  0.00000000000E+00  0.74356438122E+02  0.74356438122E+02  0.00000000000E+00 0.  1.
          1   -1    0    0  501    0 -0.00000000000E+00 -0.00000000000E+00 -0.48079608278E+03  0.48079608278E+03  0.00000000000E+00 0.  1.
          2    1    1    2  501    0 -0.46789740482E+02 -0.69768486055E+02  0.11051834178E+01  0.84012754336E+02  0.00000000000E+00 0.  1.
          1    1    1    2  502    0  0.72757048708E+02  0.56215267617E+02 -0.27113319274E+03  0.28629871228E+03  0.00000000000E+00 0.  1.
         22    1    1    2    0    0 -0.34121754271E+02 -0.19029262350E+02  0.50976115307E+01  0.39400413493E+02  0.00000000000E+00 0.  1.
         22    1    1    2    0    0  0.81544460453E+01  0.32582480788E+02 -0.14150924686E+03  0.14544064079E+03  0.00000000000E+00 0. -1.
</event>
<event>
 6    1  0.1715574E-005  0.8206884E+02  0.7818608E-02  0.1353957E+00
          2   -1    0    0  502    0  0.00000000000E+00  0.00000000000E+00  0.24420751141E+03  0.24420751141E+03  0.00000000000E+00 0. -1.
          1   -1    0    0  501    0 -0.00000000000E+00 -0.00000000000E+00 -0.16542061487E+03  0.16542061487E+03  0.00000000000E+00 0. -1.
          2    1    1    2  501    0  0.19375852073E+02  0.97247597972E+02  0.47175469080E+02  0.10980912457E+03  0.00000000000E+00 0. -1.
          1    1    1    2  502    0  0.19942502311E+02 -0.46965414673E+02 -0.97432784775E+02  0.10998454947E+03  0.00000000000E+00 0. -1.
         22    1    1    2    0    0  0.19327234503E+01 -0.25393515252E+02 -0.20518026771E+02  0.32704058760E+02  0.00000000000E+00 0.  1.
         22    1    1    2    0    0 -0.41251077835E+02 -0.24888668047E+02  0.14956223900E+03  0.15713039348E+03  0.00000000000E+00 0. -1.
</event>
<event>
 6    1  0.1715574E-005  0.1414875E+03  0.7818608E-02  0.1279300E+00
          2   -1    0    0  502    0  0.00000000000E+00  0.00000000000E+00  0.20089327004E+04  0.20089327004E+04  0.00000000000E+00 0. -1.
          1   -1    0    0  501    0 -0.00000000000E+00 -0.00000000000E+00 -0.14576915603E+03  0.14576915603E+03  0.00000000000E+00 0. -1.
          2    1    1    2  501    0  0.39383169485E+02 -0.10796331043E+03  0.18779643287E+04  0.18814773797E+04  0.00000000000E+00 0. -1.
          1    1    1    2  502    0 -0.35272754346E+02  0.79484221891E+02 -0.87560484376E+02  0.12340481009E+03  0.00000000000E+00 0. -1.
         22    1    1    2    0    0 -0.40057608183E+02  0.30046752048E+02 -0.17188211229E+02  0.52941986053E+02  0.00000000000E+00 0. -1.
         22    1    1    2    0    0  0.35947193043E+02 -0.15676635084E+01  0.89947911302E+02  0.96877680630E+02  0.00000000000E+00 0. -1.
</event>
<event>
 6    1  0.1715574E-005  0.1313138E+03  0.7818608E-02  0.1232937E+00
          2   -1    0    0  502    0  0.00000000000E+00  0.00000000000E+00  0.27698631811E+03  0.27698631811E+03  0.00000000000E+00 0.  1.
          1   -1    0    0  501    0 -0.00000000000E+00 -0.00000000000E+00 -0.10626035038E+03  0.10626035038E+03  0.00000000000E+00 0.  1.
          2    1    1    2  501    0  0.33308634328E+02  0.98290144149E+01  0.27433808607E+02  0.44257072879E+02  0.00000000000E+00 0.  1.
          1    1    1    2  502    0 -0.46491878256E+02 -0.77488466697E+02 -0.44931005961E+02  0.10091953484E+03  0.00000000000E+00 0.  1.
         22    1    1    2    0    0  0.46601918373E+01  0.88045392691E+02  0.19578029309E+03  0.21471756268E+03  0.00000000000E+00 0.  1.
         22    1    1    2    0    0  0.85230520900E+01 -0.20385940409E+02 -0.75571280022E+01  0.23352498088E+02  0.00000000000E+00 0.  1.
</event>
<event>
 6    1  0.1715574E-005  0.4441927E+02  0.7818608E-02  0.1542648E+00
          2   -1    0    0  502    0  0.00000000000E+00  0.00000000000E+00  0.28490898421E+03  0.28490898421E+03  0.00000000000E+00 0.  1.
          1   -1    0    0  501    0 -0.00000000000E+00 -0.00000000000E+00 -0.18487486295E+03  0.18487486295E+03  0.00000000000E+00 0. -1.
          2    1    1    2  501    0 -0.71625162519E+02  0.66133978671E+02  0.18600334679E+03  0.21000264774E+03  0.00000000000E+00 0.  1.
          1    1    1    2  502    0  0.55267169792E+02 -0.32959669743E+02 -0.10690238134E+03  0.12477547445E+03  0.00000000000E+00 0. -1.
         22    1    1    2    0    0  0.64184643772E+01 -0.89185589380E+01 -0.54266758932E+02  0.55368027810E+02  0.00000000000E+00 0. -1.
         22    1    1    2    0    0  0.99395283492E+01 -0.24255749989E+02  0.75199914744E+02  0.79637697159E+02  0.00000000000E+00 0.  1.
</event>
<event>
 6    1  0.1715574E-005  0.2509142E+03  0.7818608E-02  0.1163182E+00
          2   -1    0    0  502    0  0.00000000000E+00  0.00000000000E+00  0.13433165841E+03  0.13433165841E+03  0.00000000000E+00 0. -1.
          1   -1    0    0  501    0 -0.00000000000E+00 -0.00000000000E+00 -0.20263597291E+03  0.20263597291E+03  0.00000000000E+00 0. -1.
          2    1    1    2  501    0  0.15581807779E+02 -0.24511855599E+02 -0.33594248657E+02  0.44409428519E+02  0.00000000000E+00 0. -1.
          1    1    1    2  502    0 -0.20039436570E+02 -0.56370178740E+02  0.83167078049E+02  0.10244968980E+03  0.00000000000E+00 0. -1.
         22    1    1    2    0    0 -0.31845113704E+02  0.96362529114E+02 -0.11036508352E+03  0.14993431877E+03  0.00000000000E+00 0. -1.
         22    1    1    2    0    0  0.36302742495E+02 -0.15480494776E+02 -0.75120603762E+01  0.40174194233E+02  0.00000000000E+00 0. -1.
</event>
<event>
 6    1  0.1715574E-005  0.8465726E+02  0.7818608E-02  0.1323356E+00
          2   -1    0    0  502    0  0.00000000000E+00  0.00000000000E+00  0.29875169183E+03  0.29875169183E+03  0.00000000000E+00 0. -1.
          1   -1    0    0  501    0 -0.00000000000E+00 -0.00000000000E+00 -0.58191139417E+02  0.58191139417E+02  0.00000000000E+00 0. -1.
          2    1    1    2  501    0  0.26444949424E+02  0.23725115184E+02  0.17807780280E+03  0.18158722502E+03  0.00000000000E+00 0. -1.
          1    1    1    2  502    0 -0.84512472011E+01 -0.20656150389E+02 -0.16395332636E+02  0.27693086870E+02  0.00000000000E+00 0. -1.
         22    1    1    2    0    0  0.43389579420E+01  0.41952621055E+02  0.87065967680E+02  0.96743639054E+02  0.00000000000E+00 0. -1.
         22    1    1    2    0    0 -0.22332660165E+02 -0.45021585851E+02 -0.81878854368E+01  0.50918880295E+02  0.00000000000E+00 0. -1.
</event>
<event>
 6    1  0.1715574E-005  0.1578652E+03  0.7818608E-02  0.1232867E+00
          2   -1    0    0  502    0  0.00000000000E+00  0.00000000000E+00  0.38261850014E+03  0.38261850014E+03  0.00000000000E+00 0.  1.
          1   -1    0    0  501    0 -0.00000000000E+00 -0.00000000000E+00 -0.14658054951E+03  0.14658054951E+03  0.00000000000E+00 0.  1.
          2    1    1    2  501    0 -0.23062864262E+02  0.25543555055E+02  0.32271483694E+03  0.32454465778E+03  0.00000000000E+00 0.  1.
          1    1    1    2  502    0  0.31589063142E+02  0.13995248180E+02 -0.56255301150E+02  0.66018139850E+02  0.00000000000E+00 0.  1.
         22    1    1    2    0    0 -0.38256149751E+02 -0.41665382904E+02  0.35158386736E+02  0.66600670299E+02  0.00000000000E+00 0. -1.
         22    1    1    2    0    0  0.29729950872E+02  0.21265796691E+01 -0.65579971901E+02  0.72035581725E+02  0.00000000000E+00 0. -1.
</event>
<event>
 6    1  0.1715574E-005  0.4981173E+02  0.7818608E-02  0.1466518E+00
          2   -1    0    0  502    0  0.00000000000E+00  0.00000000000E+00  0.64420666402E+02  0.64420666402E+02  0.00000000000E+00 0. -1.
          1   -1    0    0  501    0 -0.00000000000E+00 -0.00000000000E+00 -0.37521764871E+03  0.37521764871E+03  0.00000000000E+00 0. -1.
          2    1    1    2  501    0 -0.21868525410E+02  0.12245009465E+02  0.37195147645E+02  0.44851439985E+02  0.00000000000E+00 0. -1.
          1    1    1    2  502    0 -0.20706317693E+02 -0.45621684343E+02 -0.13446458030E+03  0.14349499305E+03  0.00000000000E+00 0. -1.
         22    1    1    2    0    0  0.49457388458E+02  0.23722071722E+02 -0.22689069651E+03  0.23342698670E+03  0.00000000000E+00 0. -1.
         22    1    1    2    0    0 -0.68825453553E+01  0.96546031557E+01  0.13363146859E+02  0.17864895372E+02  0.00000000000E+00 0. -1.
</event>
<event>
 6    1  0.1715574E-005  0.9647505E+02  0.7818608E-02  0.1306225E+00
          2   -1    0    0  502    0  0.00000000000E+00  0.00000000000E+00  0.26836819497E+02  0.26836819497E+02  0.00000000000E+00 0.  1.
          1   -1    0    0  501    0 -0.00000000000E+00 -0.00000000000E+00 -0.36180635031E+03  0.36180635031E+03  0.00000000000E+00 0.  1.
          2    1    1    2  501    0  0.60829069865E+01  0.31193049483E+02 -0.94107535855E+02  0.99328930319E+02  0.00000000000E+00 0.  1.
          1    1    1    2  502    0  0.41741965474E+01 -0.31844209454E+02 -0.73189304315E+02  0.79925914813E+02  0.00000000000E+00 0.  1.
         22    1    1    2    0    0  0.91319435867E+01  0.23103617832E+02  0.11784099949E+02  0.27496082670E+02  0.00000000000E+00 0.  1.
         22    1    1    2    0    0 -0.19389047121E+02 -0.22452457862E+02 -0.17945679059E+03  0.18189224201E+03  0.00000000000E+00 0.  1.
</event>
<event>
 6    1  0.1715574E-005  0.4479593E+02  0.7818608E-02  0.1478986E+00
          2   -1    0    0  502    0  0.00000000000E+00  0.00000000000E+00  0.16651985749E+03  0.16651985749E+03  0.00000000000E+00 0.  1.
          1   -1    0    0  501    0 -0.00000000000E+00 -0.00000000000E+00 -0.72552833007E+02  0.72552833007E+02  0.00000000000E+00 0.  1.
          2    1    1    2  501    0 -0.17996529510E+02  0.19011713840E+02  0.75158130398E+02  0.79586838752E+02  0.00000000000E+00 0.  1.
          1    1    1    2  502    0  0.18836615649E+02 -0.14709322721E+02 -0.21523465209E+02  0.32162739600E+02  0.00000000000E+00 0.  1.
         22    1    1    2    0    0  0.72771120848E+01 -0.16403133131E+02 -0.40968804612E+02  0.44726525554E+02  0.00000000000E+00 0.  1.
         22    1    1    2    0    0 -0.81171982235E+01  0.12100742011E+02  0.81301163910E+02  0.82596586596E+02  0.00000000000E+00 0.  1.
</event>
<event>
 6    1  0.1715574E-005  0.6987380E+02  0.7818608E-02  0.1413752E+00
          2   -1    0    0  502    0  0.00000000000E+00  0.00000000000E+00  0.15149232175E+03  0.15149232175E+03  0.00000000000E+00 0.  1.
          1   -1    0    0  501    0 -0.00000000000E+00 -0.00000000000E+00 -0.38704159531E+03  0.38704159531E+03  0.00000000000E+00 0.  1.
          2    1    1    2  501    0  0.40425005878E+02 -0.19459919987E+02  0.78801672392E+02  0.90678405136E+02  0.00000000000E+00 0.  1.
          1    1    1    2  502    0 -0.46375090175E+02  0.40107987032E+02 -0.31410941188E+03  0.32003753256E+03  0.00000000000E+00 0.  1.
         22    1    1    2    0    0 -0.18758001121E+02 -0.22880309997E+02 -0.57915145725E+02  0.65034877535E+02  0.00000000000E+00 0.  1.
         22    1    1    2    0    0  0.24708085418E+02  0.22322429526E+01  0.57673611662E+02  0.62783101833E+02  0.00000000000E+00 0.  1.
</event>
<event>
 6    1  0.1715574E-005  0.9485433E+02  0.7818608E-02  0.1296472E+00
          2   -1    0    0  502    0  0.00000000000E+00  0.00000000000E+00  0.11980580855E+03  0.11980580855E+03  0.00000000000E+00 0. -1.
          1   -1    0    0  501    0 -0.00000000000E+00 -0.00000000000E+00 -0.39148496456E+03  0.39148496456E+03  0.00000000000E+00 0. -1.
          2    1    1    2  501    0 -0.55202134778E+02 -0.28630145784E+02  0.49875053113E+02  0.79715003950E+02  0.00000000000E+00 0. -1.
          1    1    1    2  502    0 -0.48196933338E+02  0.83413100337E+02 -0.20301858703E+03  0.22471590147E+03  0.00000000000E+00 0. -1.
         22    1    1    2    0    0 -0.43485896343E+01 -0.23880260213E+02  0.17990794564E+02  0.30213337265E+02  0.00000000000E+00 0. -1.
         22    1    1    2    0    0  0.10774765775E+03 -0.30902694340E+02 -0.13652641665E+03  0.17664653043E+03  0.00000000000E+00 0. -1.
</event>
<event>
 6    1  0.1715574E-005  0.1111216E+03  0.7818608E-02  0.1277571E+00
          2   -1    0    0  502    0  0.00000000000E+00  0.00000000000E+00  0.18642305997E+03  0.18642305997E+03  0.00000000000E+00 0.  1.
          1   -1    0    0  501    0 -0.00000000000E+00 -0.00000000000E+00 -0.30395823752E+03  0.30395823752E+03  0.00000000000E+00 0. -1.
          2    1    1    2  501    0  0.20173847500E+02  0.14794476040E+03 -0.56797266609E+02  0.15975157510E+03  0.00000000000E+00 0.  1.
          1    1    1    2  502    0  0.34696519543E+02 -0.79588312409E+02 -0.13398167834E+03  0.15965349376E+03  0.00000000000E+00 0. -1.
         22    1    1    2    0    0 -0.56356706862E+02 -0.52124018699E+02  0.10804921021E+03  0.13254291215E+03  0.00000000000E+00 0.  1.
         22    1    1    2    0    0  0.14863398185E+01 -0.16232429294E+02 -0.34805442806E+02  0.38433316481E+02  0.00000000000E+00 0.  1.
</event>
<event>
 6    1  0.1715574E-005  0.1060322E+03  0.7818608E-02  0.1275963E+00
          2   -1    0    0  502    0  0.00000000000E+00  0.00000000000E+00  0.95815223862E+02  0.95815223862E+02  0.00000000000E+00 0. -1.
          1   -1    0    0  501    0 -0.00000000000E+00 -0.00000000000E+00 -0.58750659100E+03  0.58750659100E+03  0.00000000000E+00 0. -1.
          2    1    1    2  501    0  0.92346654751E+01 -0.27497794511E+02 -0.80506797439E+01  0.30103507997E+02  0.00000000000E+00 0. -1.
          1    1    1    2  502    0 -0.33495193872E+02  0.70109395803E+02 -0.50824522653E+03  0.51415023649E+03  0.00000000000E+00 0. -1.
         22    1    1    2    0    0 -0.51499551977E+01  0.10735777624E+02 -0.45012976147E+02  0.46561217567E+02  0.00000000000E+00 0. -1.
         22    1    1    2    0    0  0.29410483595E+02 -0.53347378916E+02  0.69617515281E+02  0.92506852808E+02  0.00000000000E+00 0. -1.
</event>
<event>
 6    1  0.1715574E-005  0.9969444E+02  0.7818608E-02  0.1308330E+00
          2   -1    0    0  502    0  0.00000000000E+00  0.00000000000E+00  0.11626896205E+03  0.11626896205E+03  0.00000000000E+00 0.  1.
          1   -1    0    0  501    0 -0.00000000000E+00 -0.00000000000E+00 -0.30811312432E+03  0.30811312432E+03  0.00000000000E+00 0. -1.
          2    1    1    2  501    0 -0.53351067684E+02  0.33510949037E+02 -0.20658271398E+02  0.66302973580E+02  0.00000000000E+00 0.  1.
          1    1    1    2  502    0  0.79674511982E+02 -0.69726571644E+02 -0.19425472897E+03  0.22123454156E+03  0.00000000000E+00 0. -1.
         22    1    1    2    0    0  0.13253849673E+02 -0.87562336137E+01 -0.44081128663E+02  0.46855971471E+02  0.00000000000E+00 0. -1.
         22    1    1    2    0    0 -0.39577293970E+02  0.44971856221E+02  0.67149966760E+02  0.89988599755E+02  0.00000000000E+00 0.  1.
</event>
<event>
 6    1  0.1715574E-005  0.1090230E+03  0.7818608E-02  0.1313585E+00
          2   -1    0    0  502    0  0.00000000000E+00  0.00000000000E+00  0.16180255446E+03  0.16180255446E+03  0.00000000000E+00 0.  1.
          1   -1    0    0  501    0 -0.00000000000E+00 -0.00000000000E+00 -0.19919169769E+03  0.19919169769E+03  0.00000000000E+00 0.  1.
          2    1    1    2  501    0 -0.13634872211E+02 -0.77237668046E+02  0.73635058879E+02  0.10758108106E+03  0.00000000000E+00 0.  1.
          1    1    1    2  502    0  0.62452340917E+02  0.75729751897E+02 -0.48214876409E+02  0.10936162268E+03  0.00000000000E+00 0.  1.
         22    1    1    2    0    0 -0.19965766525E+02 -0.28526295350E+02  0.27652089595E+02  0.44463686513E+02  0.00000000000E+00 0. -1.
         22    1    1    2    0    0 -0.28851702181E+02  0.30034211499E+02 -0.90461415303E+02  0.99587861899E+02  0.00000000000E+00 0.  1.
</event>
<event>
 6    1  0.1715574E-005  0.1642305E+03  0.7818608E-02  0.1241405E+00
          2   -1    0    0  502    0  0.00000000000E+00  0.00000000000E+00  0.47745735477E+03  0.47745735477E+03  0.00000000000E+00 0. -1.
          1   -1    0    0  501    0 -0.00000000000E+00 -0.00000000000E+00 -0.15442154247E+03  0.15442154247E+03  0.00000000000E+00 0. -1.
          2    1    1    2  501    0 -0.31081377721E+01 -0.11095537940E+03  0.21596480647E+03  0.24282000406E+03  0.00000000000E+00 0. -1.
          1    1    1    2  502    0  0.79748613668E+02  0.13493283512E+03 -0.57684096218E+02  0.16701546735E+03  0.00000000000E+00 0. -1.
         22    1    1    2    0    0 -0.30397754278E+02 -0.38413153952E+02  0.16651204660E+03  0.17356801412E+03  0.00000000000E+00 0. -1.
         22    1    1    2    0    0 -0.46242721617E+02  0.14435698228E+02 -0.17569445589E+01  0.48475411706E+02  0.00000000000E+00 0. -1.
</event>
<event>
 6    1  0.1715574E-005  0.8249338E+02  0.7818608E-02  0.1358543E+00
          2   -1    0    0  502    0  0.00000000000E+00  0.00000000000E+00  0.29770934404E+03  0.29770934404E+03  0.00000000000E+00 0.  1.
          1   -1    0    0  501    0 -0.00000000000E+00 -0.00000000000E+00 -0.92190766138E+02  0.92190766138E+02  0.00000000000E+00 0. -1.
          2    1    1    2  501    0  0.41564875297E+02 -0.26320027978E+02  0.69366308406E+02  0.85041563210E+02  0.00000000000E+00 0.  1.
          1    1    1    2  502    0 -0.43602108662E+02  0.62213894318E+02 -0.39092549832E+02  0.85439686202E+02  0.00000000000E+00 0. -1.
         22    1    1    2    0    0 -0.14280803048E+02  0.48598077478E+01 -0.16707899964E+02  0.22510286276E+02  0.00000000000E+00 0. -1.
         22    1    1    2    0    0  0.16318036412E+02 -0.40753674088E+02  0.19195271929E+03  0.19690857449E+03  0.00000000000E+00 0.  1.
</event>
<event>
 6    1  0.1715574E-005  0.9080744E+02  0.7818608E-02  0.1388658E+00
          2   -1    0    0  502    0  0.00000000000E+00  0.00000000000E+00  0.39929933854E+03  0.39929933854E+03  0.00000000000E+00 0. -1.
          1   -1    0    0  501    0 -0.00000000000E+00 -0.00000000000E+00 -0.57635041201E+02  0.57635041201E+02  0.00000000000E+00 0. -1.
          2    1    1    2  501    0  0.21480835347E+02  0.76786880665E+02  0.25903495430E+03  0.27102907386E+03  0.00000000000E+00 0. -1.
          1    1    1    2  502    0 -0.27128014985E+01 -0.27385616297E+02  0.58463423259E+01  0.28133805120E+02  0.00000000000E+00 0. -1.
         22    1    1    2    0    0 -0.38808585247E+02 -0.49091267680E+02 -0.14564541222E+02  0.64250951061E+02  0.00000000000E+00 0. -1.
         22    1    1    2    0    0  0.20040551399E+02 -0.30999668870E+00  0.91347541934E+02  0.93520549697E+02  0.00000000000E+00 0.  1.
</event>
<event>
 6    1  0.1715574E-005  0.1389746E+03  0.7818608E-02  0.1216205E+00
          2   -1    0    0  502    0  0.00000000000E+00  0.00000000000E+00  0.15849581208E+04  0.15849581208E+04  0.00000000000E+00 0. -1.
          1   -1    0    0  501    0 -0.00000000000E+00 -0.00000000000E+00 -0.12606906076E+02  0.12606906076E+02  0.00000000000E+00 0. -1.
          2    1    1    2  501    0  0.19869533348E+02 -0.51106941901E+02  0.52913709517E+03  0.53197066023E+03  0.00000000000E+00 0. -1.
          1    1    1    2  502    0 -0.20669026006E+02  0.83359856346E+02  0.48665539506E+03  0.49417562447E+03  0.00000000000E+00 0. -1.
         22    1    1    2    0    0  0.96648411558E+01 -0.75337374729E+02  0.44616802205E+03  0.45258704476E+03  0.00000000000E+00 0.  1.
         22    1    1    2    0    0 -0.88653484979E+01  0.43084460283E+02  0.11039070247E+03  0.11883169743E+03  0.00000000000E+00 0. -1.
</event>
<event>
 6    1  0.1715574E-005  0.9170784E+02  0.7818608E-02  0.1301788E+00
          2   -1    0    0  502    0  0.00000000000E+00  0.00000000000E+00  0.20508927076E+03  0.20508927076E+03  0.00000000000E+00 0. -1.
          1   -1    0    0  501    0 -0.00000000000E+00 -0.00000000000E+00 -0.10033544691E+03  0.10033544691E+03  0.00000000000E+00 0. -1.
          2    1    1    2  501    0 -0.51796510813E+02 -0.17675697571E+02  0.91403085160E+02  0.10653559402E+03  0.00000000000E+00 0. -1.
          1    1    1    2  502    0  0.56677636034E+02 -0.32926125784E+01 -0.25988668328E+02  0.62438822902E+02  0.00000000000E+00 0. -1.
         22    1    1    2    0    0 -0.30152076660E+02  0.35725121904E+01  0.79968679723E+02  0.85538881843E+02  0.00000000000E+00 0. -1.
         22    1    1    2    0    0  0.25270951440E+02  0.17395797959E+02 -0.40629272704E+02  0.50911418894E+02  0.00000000000E+00 0. -1.
</event>
<event>
 6    1  0.2216502E-005  0.4630375E+03  0.7818608E-02  0.1078864E+00
          2   -1    0    0  502    0  0.00000000000E+00  0.00000000000E+00  0.28640978650E+03  0.28640978650E+03  0.00000000000E+00 0.  1.
          1   -1    0    0  501    0 -0.00000000000E+00 -0.00000000000E+00 -0.15533614551E+04  0.15533614551E+04  0.00000000000E+00 0.  1.
          2    1    1    2  501    0 -0.36837228763E+03  0.28041098079E+03 -0.11910576136E+04  0.12778680290E+04  0.00000000000E+00 0.  1.
          1    1    1    2  502    0  0.27217100844E+03 -0.28612675039E+03 -0.89425283670E+02  0.40489808160E+03  0.00000000000E+00 0.  1.
         22    1    1    2    0    0  0.10471893274E+02 -0.39271193081E+02 -0.30334100682E+02  0.50715331202E+02  0.00000000000E+00 0. -1.
         22    1    1    2    0    0  0.85729385910E+02  0.44986962678E+02  0.43865329409E+02  0.10628979981E+03  0.00000000000E+00 0.  1.
</event>
<event>
 6    1  0.1715574E-005  0.1981071E+03  0.7818608E-02  0.1152716E+00
          2   -1    0    0  502    0  0.00000000000E+00  0.00000000000E+00  0.13193275295E+03  0.13193275295E+03  0.00000000000E+00 0. -1.
          1   -1    0    0  501    0 -0.00000000000E+00 -0.00000000000E+00 -0.13774014840E+04  0.13774014840E+04  0.00000000000E+00 0. -1.
          2    1    1    2  501    0 -0.49814338670E+02 -0.97045104063E+02  0.39555604295E+02  0.11603390190E+03  0.00000000000E+00 0. -1.
          1    1    1    2  502    0  0.48065120389E+02  0.17039837951E+03 -0.12266175616E+04  0.12393290548E+04  0.00000000000E+00 0. -1.
         22    1    1    2    0    0  0.33281497229E+01 -0.87082405992E+02  0.67102599454E+01  0.87403945005E+02  0.00000000000E+00 0. -1.
         22    1    1    2    0    0 -0.15789314412E+01  0.13729130543E+02 -0.65117033699E+02  0.66567335291E+02  0.00000000000E+00 0. -1.
</event>
<event>
 6    1  0.1715574E-005  0.1206637E+03  0.7818608E-02  0.1328124E+00
          2   -1    0    0  502    0  0.00000000000E+00  0.00000000000E+00  0.65404784993E+03  0.65404784993E+03  0.00000000000E+00 0.  1.
          1   -1    0    0  501    0 -0.00000000000E+00 -0.00000000000E+00 -0.72495070733E+02  0.72495070733E+02  0.00000000000E+00 0. -1.
          2    1    1    2  501    0  0.28009473561E+02  0.12095260740E+03  0.41531956608E+03  0.43347941799E+03  0.00000000000E+00 0.  1.
          1    1    1    2  502    0 -0.45470463112E+02  0.16645888345E+02  0.12799367489E+02  0.50084652564E+02  0.00000000000E+00 0. -1.
         22    1    1    2    0    0  0.11325441041E+02 -0.20817685959E+02 -0.21870970000E+02  0.32248736288E+02  0.00000000000E+00 0. -1.
         22    1    1    2    0    0  0.61355485097E+01 -0.11678080979E+03  0.17530481563E+03  0.21073011382E+03  0.00000000000E+00 0. -1.
</event>
<event>
 6    1  0.1715574E-005  0.1018591E+03  0.7818608E-02  0.1307678E+00
          2   -1    0    0  502    0  0.00000000000E+00  0.00000000000E+00  0.55164268233E+03  0.55164268233E+03  0.00000000000E+00 0.  1.
          1   -1    0    0  501    0 -0.00000000000E+00 -0.00000000000E+00 -0.64970307025E+02  0.64970307025E+02  0.00000000000E+00 0.  1.
          2    1    1    2  501    0  0.37330077673E+02  0.14301119238E+02 -0.24879581015E+02  0.47085563202E+02  0.00000000000E+00 0.  1.
          1    1    1    2  502    0 -0.60826408367E+02  0.29007208060E+01  0.37740455395E+03  0.38228584001E+03  0.00000000000E+00 0.  1.
         22    1    1    2    0    0 -0.13697603780E+02 -0.60914583635E+01 -0.21843811464E+02  0.26493061612E+02  0.00000000000E+00 0.  1.
         22    1    1    2    0    0  0.37193934474E+02 -0.11110381680E+02  0.15599121384E+03  0.16074852453E+03  0.00000000000E+00 0.  1.
</event>
<event>
 6    1  0.1715574E-005  0.2338789E+02  0.7818608E-02  0.1722444E+00
          2   -1    0    0  502    0  0.00000000000E+00  0.00000000000E+00  0.15221325505E+03  0.15221325505E+03  0.00000000000E+00 0.  1.
          1   -1    0    0  501    0 -0.00000000000E+00 -0.00000000000E+00 -0.17206320064E+03  0.17206320064E+03  0.00000000000E+00 0.  1.
          2    1    1    2  501    0  0.31609038679E+01 -0.30738829231E+02  0.96174802953E+02  0.10101712557E+03  0.00000000000E+00 0.  1.
          1    1    1    2  502    0  0.20354472789E+01  0.30653805074E+02 -0.84982593176E+02  0.90365037233E+02  0.00000000000E+00 0.  1.
         22    1    1    2    0    0  0.10095516883E+02 -0.26610430640E+01  0.49641958420E+02  0.50727947397E+02  0.00000000000E+00 0. -1.
         22    1    1    2    0    0 -0.15291868030E+02  0.27460672208E+01 -0.80684113785E+02  0.82166345484E+02  0.00000000000E+00 0.  1.
</event>
<event>
 6    1  0.1715574E-005  0.9035379E+02  0.7818608E-02  0.1346798E+00
          2   -1    0    0  502    0  0.00000000000E+00  0.00000000000E+00  0.26475490348E+03  0.26475490348E+03  0.00000000000E+00 0.  1.
          1   -1    0    0  501    0 -0.00000000000E+00 -0.00000000000E+00 -0.30525029087E+03  0.30525029087E+03  0.00000000000E+00 0.  1.
          2    1    1    2  501    0 -0.41595820933E+02  0.50879653493E+02  0.16288751634E+03  0.17564536554E+03  0.00000000000E+00 0.  1.
          1    1    1    2  502    0  0.63237281457E+02 -0.23383493643E+02 -0.24750113202E+03  0.25652008088E+03  0.00000000000E+00 0.  1.
         22    1    1    2    0    0 -0.44143811497E+00 -0.40788525015E+02 -0.35690269106E+02  0.54200497686E+02  0.00000000000E+00 0. -1.
         22    1    1    2    0    0 -0.21200022409E+02  0.13292365164E+02  0.79808497410E+02  0.83639250240E+02  0.00000000000E+00 0. -1.
</event>
<event>
 6    1  0.1715574E-005  0.6455915E+02  0.7818608E-02  0.1381312E+00
          2   -1    0    0  502    0  0.00000000000E+00  0.00000000000E+00  0.44231087926E+03  0.44231087926E+03  0.00000000000E+00 0. -1.
          1   -1    0    0  501    0 -0.00000000000E+00 -0.00000000000E+00 -0.53335054675E+02  0.53335054675E+02  0.00000000000E+00 0. -1.
          2    1    1    2  501    0 -0.64136513477E+01 -0.34515099242E+02  0.32859806743E+03  0.33046802707E+03  0.00000000000E+00 0. -1.
          1    1    1    2  502    0 -0.76580318340E+00  0.24039123772E+02  0.43476082452E+01  0.24441105206E+02  0.00000000000E+00 0. -1.
         22    1    1    2    0    0 -0.22755145202E+02  0.83658315482E+00  0.90941897479E+02  0.93749267846E+02  0.00000000000E+00 0.  1.
         22    1    1    2    0    0  0.29934599733E+02  0.96393923155E+01 -0.34911748569E+02  0.46987533810E+02  0.00000000000E+00 0. -1.
</event>
<event>
 6    1  0.1715574E-005  0.2520533E+03  0.7818608E-02  0.1112893E+00
          2   -1    0    0  502    0  0.00000000000E+00  0.00000000000E+00  0.15560405906E+03  0.15560405906E+03  0.00000000000E+00 0. -1.
          1   -1    0    0  501    0 -0.00000000000E+00 -0.00000000000E+00 -0.40238198918E+03  0.40238198918E+03  0.00000000000E+00 0.  1.
          2    1    1    2  501    0 -0.10065037760E+03 -0.14373414442E+03 -0.12891540500E+03  0.21773650229E+03  0.00000000000E+00 0. -1.
          1    1    1    2  502    0  0.93970545948E+02  0.16197080883E+03 -0.46571745368E+02  0.19296096466E+03  0.00000000000E+00 0.  1.
         22    1    1    2    0    0 -0.35453680335E+02 -0.56469018684E+02 -0.17368204519E+02  0.68901146932E+02  0.00000000000E+00 0. -1.
         22    1    1    2    0    0  0.42133511984E+02  0.38232354275E+02 -0.53922575233E+02  0.78387434358E+02  0.00000000000E+00 0. -1.
</event>
<event>
 6    1  0.2968981E-005  0.1826855E+03  0.7818608E-02  0.1165771E+00
          2   -1    0    0  502    0  0.00000000000E+00  0.00000000000E+00  0.50555731946E+03  0.50555731946E+03  0.00000000000E+00 0.  1.
          1   -1    0    0  501    0 -0.00000000000E+00 -0.00000000000E+00 -0.34439418903E+03  0.34439418903E+03  0.00000000000E+00 0. -1.
          2    1    1    2  501    0  0.11317462055E+03 -0.12138894808E+03  0.41461618317E+03  0.44659864621E+03  0.00000000000E+00 0.  1.
          1    1    1    2  502    0 -0.84814108628E+02  0.11741096316E+03 -0.22923198022E+03  0.27115690669E+03  0.00000000000E+00 0. -1.
         22    1    1    2    0    0 -0.33369395325E+02  0.16810885361E+02 -0.72731245530E+02  0.81767698313E+02  0.00000000000E+00 0. -1.
         22    1    1    2    0    0  0.50088834048E+01 -0.12832900438E+02  0.48510173008E+02  0.50428257276E+02  0.00000000000E+00 0.  1.
</event>
<event>
 6    1  0.1715574E-005  0.1439662E+03  0.7818608E-02  0.1208326E+00
          2   -1    0    0  502    0  0.00000000000E+00  0.00000000000E+00  0.41898674928E+03  0.41898674928E+03  0.00000000000E+00 0. -1.
          1   -1    0    0  501    0 -0.00000000000E+00 -0.00000000000E+00 -0.11269642221E+03  0.11269642221E+03  0.00000000000E+00 0. -1.
          2    1    1    2  501    0  0.18755748099E+02  0.11117805995E+02  0.34181787356E+02  0.40543535659E+02  0.00000000000E+00 0. -1.
          1    1    1    2  502    0 -0.10179756140E+03 -0.84950842185E+02 -0.39767275869E+02  0.13842263299E+03  0.00000000000E+00 0. -1.
         22    1    1    2    0    0  0.92923147907E+02  0.76076950543E+02  0.31864926974E+03  0.34052866388E+03  0.00000000000E+00 0. -1.
         22    1    1    2    0    0 -0.98813346035E+01 -0.22439143531E+01 -0.67734541603E+01  0.12188338953E+02  0.00000000000E+00 0.  1.
</event>
<event>
 6    1  0.1715574E-005  0.1619047E+03  0.7818608E-02  0.1188702E+00
          2   -1    0    0  502    0  0.00000000000E+00  0.00000000000E+00  0.10667190787E+03  0.10667190787E+03  0.00000000000E+00 0.  1.
          1   -1    0    0  501    0 -0.00000000000E+00 -0.00000000000E+00 -0.29981771099E+03  0.29981771099E+03  0.00000000000E+00 0.  1.
          2    1    1    2  501    0 -0.87228714794E+02  0.33193949578E+02 -0.14475032451E+02  0.94446882096E+02  0.00000000000E+00 0.  1.
          1    1    1    2  502    0  0.95331856247E+02 -0.70709808960E+02 -0.12840574421E+03  0.17486015854E+03  0.00000000000E+00 0.  1.
         22    1    1    2    0    0 -0.35541187274E+02  0.56321834258E+02  0.10970173712E+02  0.67495701480E+02  0.00000000000E+00 0.  1.
         22    1    1    2    0    0  0.27438045821E+02 -0.18805974876E+02 -0.61235200180E+02  0.69686876746E+02  0.00000000000E+00 0.  1.
</event>
<event>
 6    1  0.1715574E-005  0.2055389E+03  0.7818608E-02  0.1145199E+00
          2   -1    0    0  502    0  0.00000000000E+00  0.00000000000E+00  0.32493379030E+03  0.32493379030E+03  0.00000000000E+00 0. -1.
          1   -1    0    0  501    0 -0.00000000000E+00 -0.00000000000E+00 -0.13056940052E+03  0.13056940052E+03  0.00000000000E+00 0. -1.
          2    1    1    2  501    0  0.11566698182E+03 -0.43410543135E+02  0.51401279530E+02  0.13381112613E+03  0.00000000000E+00 0. -1.
          1    1    1    2  502    0 -0.13102522545E+03  0.80507335688E+02  0.73792410343E+02  0.17057069100E+03  0.00000000000E+00 0. -1.
         22    1    1    2    0    0 -0.48281645094E+02  0.10609391885E+02  0.64947158742E+01  0.49858377265E+02  0.00000000000E+00 0.  1.
         22    1    1    2    0    0  0.63639888721E+02 -0.47706184438E+02  0.62675984030E+02  0.10126299642E+03  0.00000000000E+00 0.  1.
</event>
<event>
 6    1  0.1715574E-005  0.1643155E+03  0.7818608E-02  0.1188396E+00
          2   -1    0    0  502    0  0.00000000000E+00  0.00000000000E+00  0.91463718303E+03  0.91463718303E+03  0.00000000000E+00 0. -1.
          1   -1    0    0  501    0 -0.00000000000E+00 -0.00000000000E+00 -0.60051550094E+02  0.60051550094E+02  0.00000000000E+00 0.  1.
          2    1    1    2  501    0  0.11575018575E+03 -0.70588974721E+02  0.70765688378E+03  0.72052701130E+03  0.00000000000E+00 0. -1.
          1    1    1    2  502    0 -0.17087013660E+02  0.27925013662E+02  0.50638940610E+02  0.60299873383E+02  0.00000000000E+00 0.  1.
         22    1    1    2    0    0 -0.10427928557E+03  0.54513240421E+02  0.23616499167E+02  0.12001500661E+03  0.00000000000E+00 0.  1.
         22    1    1    2    0    0  0.56161134785E+01 -0.11849279363E+02  0.72673309382E+02  0.73846841832E+02  0.00000000000E+00 0.  1.
</event>
<event>
 6    1  0.1715574E-005  0.2051132E+03  0.7818608E-02  0.1239187E+00
          2   -1    0    0  502    0  0.00000000000E+00  0.00000000000E+00  0.85150151752E+02  0.85150151752E+02  0.00000000000E+00 0. -1.
          1   -1    0    0  501    0 -0.00000000000E+00 -0.00000000000E+00 -0.91329320803E+03  0.91329320803E+03  0.00000000000E+00 0. -1.
          2    1    1    2  501    0  0.39016487803E+02  0.19351390810E+03 -0.84906297729E+02  0.21489299277E+03  0.00000000000E+00 0. -1.
          1    1    1    2  502    0 -0.27959621538E+02 -0.66640909129E+02 -0.24480397900E+03  0.25524838753E+03  0.00000000000E+00 0. -1.
         22    1    1    2    0    0  0.14296082987E+02 -0.13268974003E+03 -0.47465485447E+03  0.49306001254E+03  0.00000000000E+00 0. -1.
         22    1    1    2    0    0 -0.25352949252E+02  0.58167410575E+01 -0.23777925087E+02  0.35241966940E+02  0.00000000000E+00 0. -1.
</event>
<event>
 6    1  0.1715574E-005  0.5636330E+02  0.7818608E-02  0.1504648E+00
          2   -1    0    0  502    0  0.00000000000E+00  0.00000000000E+00  0.15958628577E+03  0.15958628577E+03  0.00000000000E+00 0.  1.
          1   -1    0    0  501    0 -0.00000000000E+00 -0.00000000000E+00 -0.18938745174E+03  0.18938745174E+03  0.00000000000E+00 0. -1.
          2    1    1    2  501    0  0.44770037398E+02 -0.55548124169E+02  0.92922034121E+02  0.11715141814E+03  0.00000000000E+00 0.  1.
          1    1    1    2  502    0 -0.51950991299E+00  0.59515778687E+02 -0.50864435341E+02  0.78291689124E+02  0.00000000000E+00 0. -1.
         22    1    1    2    0    0 -0.42934246623E+02  0.75597174657E+01 -0.10752410807E+03  0.11602556907E+03  0.00000000000E+00 0. -1.
         22    1    1    2    0    0 -0.13162808625E+01 -0.11527371983E+02  0.35665343315E+02  0.37505061177E+02  0.00000000000E+00 0.  1.
</event>
<event>
 6    1  0.1715574E-005  0.1443104E+03  0.7818608E-02  0.1243233E+00
          2   -1    0    0  502    0  0.00000000000E+00  0.00000000000E+00  0.13535610156E+03  0.13535610156E+03  0.00000000000E+00 0.  1.
          1   -1    0    0  501    0 -0.00000000000E+00 -0.00000000000E+00 -0.35153491505E+03  0.35153491505E+03  0.00000000000E+00 0. -1.
          2    1    1    2  501    0  0.49301128526E+02 -0.28383759610E+02  0.84650235948E+02  0.10198971286E+03  0.00000000000E+00 0.  1.
          1    1    1    2  502    0 -0.58836513045E+02 -0.32527078282E+02 -0.21120920132E+03  0.22165079023E+03  0.00000000000E+00 0. -1.
         22    1    1    2    0    0  0.40052979771E+01  0.70727492978E+02 -0.11523416104E+03  0.13526763303E+03  0.00000000000E+00 0.  1.
         22    1    1    2    0    0  0.55300865419E+01 -0.98166550864E+01  0.25614312921E+02  0.27982880493E+02  0.00000000000E+00 0.  1.
</event>
<event>
 6    1  0.1715574E-005  0.2175693E+03  0.7818608E-02  0.1141712E+00
          2   -1    0    0  502    0  0.00000000000E+00  0.00000000000E+00  0.21425963649E+03  0.21425963649E+03  0.00000000000E+00 0. -1.
          1   -1    0    0  501    0 -0.00000000000E+00 -0.00000000000E+00 -0.20167883458E+03  0.20167883458E+03  0.00000000000E+00 0.  1.
          2    1    1    2  501    0 -0.12636715233E+03  0.82685882083E+02  0.44311274617E+02  0.15738202357E+03  0.00000000000E+00 0. -1.
          1    1    1    2  502    0  0.32740571904E+02 -0.90790651660E+02  0.72675677849E+01  0.96786905204E+02  0.00000000000E+00 0.  1.
         22    1    1    2    0    0 -0.19394659134E+02  0.31494017928E+02  0.67859753780E+01  0.37604194314E+02  0.00000000000E+00 0. -1.
         22    1    1    2    0    0  0.11302123957E+03 -0.23389248351E+02 -0.45784015864E+02  0.12416534798E+03  0.00000000000E+00 0.  1.
</event>
<event>
 6    1  0.1715574E-005  0.1351228E+03  0.7818608E-02  0.1239064E+00
          2   -1    0    0  502    0  0.00000000000E+00  0.00000000000E+00  0.64484055058E+02  0.64484055058E+02  0.00000000000E+00 0. -1.
          1   -1    0    0  501    0 -0.00000000000E+00 -0.00000000000E+00 -0.45869790389E+03  0.45869790389E+03  0.00000000000E+00 0. -1.
          2    1    1    2  501    0 -0.20048416019E+02  0.11749467318E+01 -0.15771343681E+03  0.15898694171E+03  0.00000000000E+00 0. -1.
          1    1    1    2  502    0  0.51701619303E+02  0.30460121688E+01  0.36852872151E+02  0.63564689998E+02  0.00000000000E+00 0. -1.
         22    1    1    2    0    0 -0.53400898202E+02  0.38019784171E+02 -0.21820535712E+03  0.22783928062E+03  0.00000000000E+00 0.  1.
         22    1    1    2    0    0  0.21747694917E+02 -0.42240743072E+02 -0.55147927053E+02  0.72791046617E+02  0.00000000000E+00 0.  1.
</event>
<event>
 6    1  0.1715574E-005  0.4962762E+02  0.7818608E-02  0.1467498E+00
          2   -1    0    0  502    0  0.00000000000E+00  0.00000000000E+00  0.28099410226E+03  0.28099410226E+03  0.00000000000E+00 0. -1.
          1   -1    0    0  501    0 -0.00000000000E+00 -0.00000000000E+00 -0.52921044917E+02  0.52921044917E+02  0.00000000000E+00 0.  1.
          2    1    1    2  501    0  0.11885989051E+02 -0.17976022121E+02  0.12275091611E+03  0.12462825326E+03  0.00000000000E+00 0. -1.
          1    1    1    2  502    0 -0.38536348380E+02  0.14568389796E+02 -0.36245364183E+01  0.41357289465E+02  0.00000000000E+00 0.  1.
         22    1    1    2    0    0  0.18576034549E+02  0.31999032796E+02 -0.15404396371E+02  0.40078704907E+02  0.00000000000E+00 0.  1.
         22    1    1    2    0    0  0.80743247795E+01 -0.28591400472E+02  0.12435107402E+03  0.12785089954E+03  0.00000000000E+00 0. -1.
</event>
<event>
 6    1  0.1715574E-005  0.6829520E+02  0.7818608E-02  0.1366465E+00
          2   -1    0    0  502    0  0.00000000000E+00  0.00000000000E+00  0.45775621061E+02  0.45775621061E+02  0.00000000000E+00 0. -1.
          1   -1    0    0  501    0 -0.00000000000E+00 -0.00000000000E+00 -0.27562092820E+03  0.27562092820E+03  0.00000000000E+00 0. -1.
          2    1    1    2  501    0 -0.20308276064E+02 -0.39919798735E+02 -0.30765553380E+01  0.44894115433E+02  0.00000000000E+00 0. -1.
          1    1    1    2  502    0 -0.73869618788E+00  0.24610541388E+02 -0.83597447243E+02  0.87147906487E+02  0.00000000000E+00 0. -1.
         22    1    1    2    0    0 -0.69141249304E+01 -0.17467511146E+02  0.15863123588E+02  0.24587756286E+02  0.00000000000E+00 0. -1.
         22    1    1    2    0    0  0.27961097182E+02  0.32776768493E+02 -0.15903442814E+03  0.16476677105E+03  0.00000000000E+00 0. -1.
</event>
<event>
 6    1  0.1715574E-005  0.5117634E+03  0.7818608E-02  0.1015188E+00
          2   -1    0    0  502    0  0.00000000000E+00  0.00000000000E+00  0.68508775226E+02  0.68508775226E+02  0.00000000000E+00 0. -1.
          1   -1    0    0  501    0 -0.00000000000E+00 -0.00000000000E+00 -0.40234887548E+04  0.40234887548E+04  0.00000000000E+00 0. -1.
          2    1    1    2  501    0 -0.75419178516E+02  0.15207009849E+03 -0.11383402866E+04  0.11509265726E+04  0.00000000000E+00 0. -1.
          1    1    1    2  502    0 -0.11522035987E+03 -0.41868370234E+03 -0.99116861523E+03  0.10821215263E+04  0.00000000000E+00 0. -1.
         22    1    1    2    0    0 -0.38695284915E+01 -0.10810668569E+02 -0.40027082352E+02  0.41641459236E+02  0.00000000000E+00 0. -1.
         22    1    1    2    0    0  0.19450906687E+03  0.27742427242E+03 -0.17854439954E+04  0.18173079719E+04  0.00000000000E+00 0. -1.
</event>
<event>
 6    1  0.1715574E-005  0.5805878E+02  0.7818608E-02  0.1472851E+00
          2   -1    0    0  502    0  0.00000000000E+00  0.00000000000E+00  0.30593810101E+03  0.30593810101E+03  0.00000000000E+00 0. -1.
          1   -1    0    0  501    0 -0.00000000000E+00 -0.00000000000E+00 -0.55793915669E+02  0.55793915669E+02  0.00000000000E+00 0. -1.
          2    1    1    2  501    0 -0.21081726476E+02  0.10215318217E+00  0.12232292629E+03  0.12412633856E+03  0.00000000000E+00 0. -1.
          1    1    1    2  502    0  0.32704453401E+02 -0.32095956838E+02 -0.84649741831E+01  0.46598149164E+02  0.00000000000E+00 0. -1.
         22    1    1    2    0    0 -0.30492480666E+02  0.21893399049E+02  0.15687838954E+03  0.16130697879E+03  0.00000000000E+00 0. -1.
         22    1    1    2    0    0  0.18869753741E+02  0.10100404607E+02 -0.20592156307E+02  0.29700550178E+02  0.00000000000E+00 0. -1.
</event>
<event>
 6    1  0.1715574E-005  0.1442429E+03  0.7818608E-02  0.1210470E+00
          2   -1    0    0  502    0  0.00000000000E+00  0.00000000000E+00  0.76074551862E+03  0.76074551862E+03  0.00000000000E+00 0. -1.
          1   -1    0    0  501    0 -0.00000000000E+00 -0.00000000000E+00 -0.29569560639E+03  0.29569560639E+03  0.00000000000E+00 0.  1.
          2    1    1    2  501    0  0.54542826905E+02  0.47185953584E+02  0.52191430965E+03  0.52687378071E+03  0.00000000000E+00 0. -1.
          1    1    1    2  502    0 -0.75743526948E+02 -0.91846824313E+02 -0.25967054362E+03  0.28566013414E+03  0.00000000000E+00 0.  1.
         22    1    1    2    0    0  0.23707187077E+02  0.58378501270E+02  0.21582221307E+03  0.22483173215E+03  0.00000000000E+00 0. -1.
         22    1    1    2    0    0 -0.25064870348E+01 -0.13717630541E+02 -0.13016066869E+02  0.19075478019E+02  0.00000000000E+00 0. -1.
</event>
<event>
 6    1  0.1715574E-005  0.1014849E+03  0.7818608E-02  0.1282262E+00
          2   -1    0    0  502    0  0.00000000000E+00  0.00000000000E+00  0.25743111778E+02  0.25743111778E+02  0.00000000000E+00 0. -1.
          1   -1    0    0  501    0 -0.00000000000E+00 -0.00000000000E+00 -0.42279486497E+03  0.42279486497E+03  0.00000000000E+00 0. -1.
          2    1    1    2  501    0  0.17629034690E+02 -0.34276840193E+02 -0.13602446415E+03  0.14138012408E+03  0.00000000000E+00 0. -1.
          1    1    1    2  502    0  0.12418797904E+02  0.35683316881E+02 -0.55469493097E+02  0.67114754782E+02  0.00000000000E+00 0. -1.
         22    1    1    2    0    0  0.72132737424E+01 -0.52217561531E+02 -0.13768903240E+03  0.14743464550E+03  0.00000000000E+00 0. -1.
         22    1    1    2    0    0 -0.37261106336E+02  0.50811084844E+02 -0.67868763550E+02  0.92608452390E+02  0.00000000000E+00 0.  1.
</event>
<event>
 6    1  0.1715574E-005  0.1420704E+03  0.7818608E-02  0.1213937E+00
          2   -1    0    0  502    0  0.00000000000E+00  0.00000000000E+00  0.80879304858E+03  0.80879304858E+03  0.00000000000E+00 0. -1.
          1   -1    0    0  501    0 -0.00000000000E+00 -0.00000000000E+00 -0.27769791971E+02  0.27769791971E+02  0.00000000000E+00 0. -1.
          2    1    1    2  501    0  0.27490929718E+02  0.17889851998E+02  0.90323232861E+02  0.96094143504E+02  0.00000000000E+00 0. -1.
          1    1    1    2  502    0 -0.32804001030E+02 -0.10213297551E+03  0.19034511964E+03  0.21849144546E+03  0.00000000000E+00 0. -1.
         22    1    1    2    0    0  0.10870603871E+02  0.10586459621E+03  0.48036139144E+03  0.49200868808E+03  0.00000000000E+00 0.  1.
         22    1    1    2    0    0 -0.55575325582E+01 -0.21621472695E+02  0.19993512664E+02  0.29968563501E+02  0.00000000000E+00 0. -1.
</event>
<event>
 6    1  0.1715574E-005  0.5966666E+02  0.7818608E-02  0.1401148E+00
          2   -1    0    0  502    0  0.00000000000E+00  0.00000000000E+00  0.14857510060E+03  0.14857510060E+03  0.00000000000E+00 0. -1.
          1   -1    0    0  501    0 -0.00000000000E+00 -0.00000000000E+00 -0.13326857332E+03  0.13326857332E+03  0.00000000000E+00 0. -1.
          2    1    1    2  501    0 -0.18455280407E+02 -0.85346417966E+01  0.35804304158E+02  0.41175061406E+02  0.00000000000E+00 0. -1.
          1    1    1    2  502    0  0.31784761688E+02  0.25779340674E+02 -0.89395987303E+02  0.98318299553E+02  0.00000000000E+00 0. -1.
         22    1    1    2    0    0 -0.21521712630E+02 -0.31940094667E+02  0.99905685644E+02  0.10707240441E+03  0.00000000000E+00 0. -1.
         22    1    1    2    0    0  0.81922313495E+01  0.14695395790E+02 -0.31007475220E+02  0.35277908547E+02  0.00000000000E+00 0. -1.
</event>
<event>
 6    1  0.1715574E-005  0.1145027E+03  0.7818608E-02  0.1257195E+00
          2   -1    0    0  502    0  0.00000000000E+00  0.00000000000E+00  0.14177184360E+03  0.14177184360E+03  0.00000000000E+00 0.  1.
          1   -1    0    0  501    0 -0.00000000000E+00 -0.00000000000E+00 -0.14753579724E+03  0.14753579724E+03  0.00000000000E+00 0.  1.
          2    1    1    2  501    0 -0.23856648224E+01  0.71939708242E+02  0.54908406797E+02  0.90531465003E+02  0.00000000000E+00 0.  1.
          1    1    1    2  502    0  0.16263146729E+02 -0.62522587433E+02 -0.35530339711E+02  0.73729023599E+02  0.00000000000E+00 0.  1.
         22    1    1    2    0    0  0.73459571764E+01  0.30393896382E+02  0.36880458948E+02  0.48352045213E+02  0.00000000000E+00 0.  1.
         22    1    1    2    0    0 -0.21223439083E+02 -0.39811017191E+02 -0.62022479676E+02  0.76695107024E+02  0.00000000000E+00 0.  1.
</event>
<event>
 6    1  0.1715574E-005  0.1155977E+03  0.7818608E-02  0.1268220E+00
          2   -1    0    0  502    0  0.00000000000E+00  0.00000000000E+00  0.27126934054E+04  0.27126934054E+04  0.00000000000E+00 0.  1.
          1   -1    0    0  501    0 -0.00000000000E+00 -0.00000000000E+00 -0.61002857356E+02  0.61002857356E+02  0.00000000000E+00 0. -1.
          2    1    1    2  501    0 -0.19485400580E+02 -0.40836240341E+02  0.25436178661E+04  0.25440202688E+04  0.00000000000E+00 0.  1.
          1    1    1    2  502    0  0.15763254574E+02  0.19790434697E+02 -0.33511566146E+02  0.41990076992E+02  0.00000000000E+00 0. -1.
         22    1    1    2    0    0 -0.34032352474E+01 -0.24014522402E+02  0.13995025107E+03  0.14203644627E+03  0.00000000000E+00 0. -1.
         22    1    1    2    0    0  0.71253812530E+01  0.45060328047E+02  0.16339969583E+01  0.45649470618E+02  0.00000000000E+00 0.  1.
</event>
<event>
 6    1  0.1715574E-005  0.7421687E+02  0.7818608E-02  0.1401704E+00
          2   -1    0    0  502    0  0.00000000000E+00  0.00000000000E+00  0.99079129262E+02  0.99079129262E+02  0.00000000000E+00 0.  1.
          1   -1    0    0  501    0 -0.00000000000E+00 -0.00000000000E+00 -0.29291979656E+03  0.29291979656E+03  0.00000000000E+00 0.  1.
          2    1    1    2  501    0 -0.36103306726E+02  0.94454227248E+01  0.28489674728E+02  0.46950253813E+02  0.00000000000E+00 0.  1.
          1    1    1    2  502    0  0.55992546282E+02  0.19043787295E+02 -0.21033297613E+03  0.21848979821E+03  0.00000000000E+00 0.  1.
         22    1    1    2    0    0  0.16758061831E+02 -0.24661483159E+02 -0.59433535133E+02  0.66493356708E+02  0.00000000000E+00 0.  1.
         22    1    1    2    0    0 -0.36647301387E+02 -0.38277268605E+01  0.47436169236E+02  0.60065517093E+02  0.00000000000E+00 0.  1.
</event>
<event>
 6    1  0.1715574E-005  0.6320645E+02  0.7818608E-02  0.1388336E+00
          2   -1    0    0  502    0  0.00000000000E+00  0.00000000000E+00  0.16282208892E+03  0.16282208892E+03  0.00000000000E+00 0. -1.
          1   -1    0    0  501    0 -0.00000000000E+00 -0.00000000000E+00 -0.16143422430E+03  0.16143422430E+03  0.00000000000E+00 0. -1.
          2    1    1    2  501    0 -0.38416672947E+02 -0.11425074470E+02  0.73702336140E+02  0.83895217023E+02  0.00000000000E+00 0. -1.
          1    1    1    2  502    0  0.43837650388E+02  0.14266754892E+01 -0.99127280842E+02  0.10839738374E+03  0.00000000000E+00 0. -1.
         22    1    1    2    0    0 -0.19428648673E+02  0.42122707603E+01  0.77006819067E+02  0.79531539637E+02  0.00000000000E+00 0. -1.
         22    1    1    2    0    0  0.14007671232E+02  0.57861282205E+01 -0.50194009743E+02  0.52432172826E+02  0.00000000000E+00 0.  1.
</event>
<event>
 6    1  0.1715574E-005  0.1111039E+03  0.7818608E-02  0.1304817E+00
          2   -1    0    0  502    0  0.00000000000E+00  0.00000000000E+00  0.40523927347E+03  0.40523927347E+03  0.00000000000E+00 0.  1.
          1   -1    0    0  501    0 -0.00000000000E+00 -0.00000000000E+00 -0.75480155267E+02  0.75480155267E+02  0.00000000000E+00 0.  1.
          2    1    1    2  501    0  0.50580343665E+02 -0.14676003168E+02  0.18886424569E+03  0.19607003732E+03  0.00000000000E+00 0.  1.
          1    1    1    2  502    0 -0.10260227805E+03 -0.11472864682E+02  0.87675503571E+02  0.13544684570E+03  0.00000000000E+00 0.  1.
         22    1    1    2    0    0  0.48994978657E+02 -0.19898227346E+02  0.79962543828E+02  0.95866864978E+02  0.00000000000E+00 0.  1.
         22    1    1    2    0    0  0.30269557229E+01  0.46047095195E+02 -0.26743174886E+02  0.53335680738E+02  0.00000000000E+00 0.  1.
</event>
<event>
 6    1  0.1715574E-005  0.1160481E+03  0.7818608E-02  0.1253891E+00
          2   -1    0    0  502    0  0.00000000000E+00  0.00000000000E+00  0.54123076172E+03  0.54123076172E+03  0.00000000000E+00 0.  1.
          1   -1    0    0  501    0 -0.00000000000E+00 -0.00000000000E+00 -0.21880509966E+03  0.21880509966E+03  0.00000000000E+00 0. -1.
          2    1    1    2  501    0 -0.92427960713E+02  0.24643787779E+02  0.48884304230E+03  0.49811420799E+03  0.00000000000E+00 0.  1.
          1    1    1    2  502    0  0.20890335421E+02 -0.48466311508E+01 -0.98368217748E+02  0.10067870783E+03  0.00000000000E+00 0. -1.
         22    1    1    2    0    0  0.80271798382E+02 -0.14694546960E+02 -0.99222080164E+02  0.12846988954E+03  0.00000000000E+00 0. -1.
         22    1    1    2    0    0 -0.87341730898E+01 -0.51026096675E+01  0.31172917664E+02  0.32773056017E+02  0.00000000000E+00 0.  1.
</event>
<event>
 6    1  0.1715574E-005  0.1334276E+03  0.7818608E-02  0.1236831E+00
          2   -1    0    0  502    0  0.00000000000E+00  0.00000000000E+00  0.30300489901E+02  0.30300489901E+02  0.00000000000E+00 0. -1.
          1   -1    0    0  501    0 -0.00000000000E+00 -0.00000000000E+00 -0.45426747147E+03  0.45426747147E+03  0.00000000000E+00 0. -1.
          2    1    1    2  501    0  0.30872538047E+02 -0.29526252168E+02 -0.81432845770E+02  0.91957716059E+02  0.00000000000E+00 0. -1.
          1    1    1    2  502    0  0.31980053471E+02  0.39208892351E+02 -0.88631851410E+02  0.10205717096E+03  0.00000000000E+00 0. -1.
         22    1    1    2    0    0  0.75448568673E+01  0.46189921523E+02 -0.12445797164E+03  0.13296698997E+03  0.00000000000E+00 0. -1.
         22    1    1    2    0    0 -0.70397448385E+02 -0.55872561706E+02 -0.12944431275E+03  0.15758608439E+03  0.00000000000E+00 0. -1.
</event>
<event>
 6    1  0.1715574E-005  0.6641460E+02  0.7818608E-02  0.1398043E+00
          2   -1    0    0  502    0  0.00000000000E+00  0.00000000000E+00  0.39855008267E+03  0.39855008267E+03  0.00000000000E+00 0.  1.
          1   -1    0    0  501    0 -0.00000000000E+00 -0.00000000000E+00 -0.27761829356E+02  0.27761829356E+02  0.00000000000E+00 0.  1.
          2    1    1    2  501    0  0.23613595008E+02  0.44674172093E+01  0.49615624482E+02  0.55129573538E+02  0.00000000000E+00 0.  1.
          1    1    1    2  502    0 -0.47451204179E+02  0.25323534782E+02  0.14343927777E+03  0.15319179024E+03  0.00000000000E+00 0.  1.
         22    1    1    2    0    0  0.64782321434E+02 -0.13432430817E+02  0.15468148124E+03  0.16823655966E+03  0.00000000000E+00 0.  1.
         22    1    1    2    0    0 -0.40944712264E+02 -0.16358521174E+02  0.23051869824E+02  0.49753988581E+02  0.00000000000E+00 0.  1.
</event>
<event>
 6    1  0.1715574E-005  0.2359268E+03  0.7818608E-02  0.1218522E+00
          2   -1    0    0  502    0  0.00000000000E+00  0.00000000000E+00  0.18095997042E+04  0.18095997042E+04  0.00000000000E+00 0.  1.
          1   -1    0    0  501    0 -0.00000000000E+00 -0.00000000000E+00 -0.53753281157E+02  0.53753281157E+02  0.00000000000E+00 0.  1.
          2    1    1    2  501    0  0.26418132066E+03 -0.43745236940E+02  0.97146552899E+03  0.10076957328E+04  0.00000000000E+00 0.  1.
          1    1    1    2  502    0 -0.89877285739E+02  0.31631874887E+02  0.43043214394E+03  0.44085182606E+03  0.00000000000E+00 0.  1.
         22    1    1    2    0    0 -0.18652356330E+03  0.35302626520E+02  0.31720339430E+03  0.36966918788E+03  0.00000000000E+00 0. -1.
         22    1    1    2    0    0  0.12219528379E+02 -0.23189264466E+02  0.36745355758E+02  0.45136238546E+02  0.00000000000E+00 0.  1.
</event>
<event>
 6    1  0.1715574E-005  0.1540250E+03  0.7818608E-02  0.1220345E+00
          2   -1    0    0  502    0  0.00000000000E+00  0.00000000000E+00  0.20363458740E+03  0.20363458740E+03  0.00000000000E+00 0.  1.
          1   -1    0    0  501    0 -0.00000000000E+00 -0.00000000000E+00 -0.11115259017E+03  0.11115259017E+03  0.00000000000E+00 0.  1.
          2    1    1    2  501    0 -0.48644602944E+02 -0.17874094682E+02  0.94044875967E+02  0.10737885896E+03  0.00000000000E+00 0.  1.
          1    1    1    2  502    0 -0.35571932108E+01  0.44886210662E+02 -0.43065555902E+02  0.62306240749E+02  0.00000000000E+00 0.  1.
         22    1    1    2    0    0 -0.85707412226E+01  0.40116813722E+02 -0.81600192801E+01  0.41825856393E+02  0.00000000000E+00 0. -1.
         22    1    1    2    0    0  0.60772537377E+02 -0.67128929703E+02  0.49662696449E+02  0.10327622147E+03  0.00000000000E+00 0.  1.
</event>
<event>
 6    1  0.1715574E-005  0.1951528E+03  0.7818608E-02  0.1167041E+00
          2   -1    0    0  502    0  0.00000000000E+00  0.00000000000E+00  0.56196816771E+02  0.56196816771E+02  0.00000000000E+00 0. -1.
          1   -1    0    0  501    0 -0.00000000000E+00 -0.00000000000E+00 -0.73331796923E+03  0.73331796923E+03  0.00000000000E+00 0. -1.
          2    1    1    2  501    0 -0.53972841575E+02  0.32834088581E+02 -0.46599347896E+03  0.47025638479E+03  0.00000000000E+00 0. -1.
          1    1    1    2  502    0  0.43515909159E+02 -0.83912001721E+02 -0.45800225177E+02  0.10503579870E+03  0.00000000000E+00 0. -1.
         22    1    1    2    0    0 -0.25088034426E+02  0.82756055770E+02 -0.12400258823E+03  0.15117743259E+03  0.00000000000E+00 0. -1.
         22    1    1    2    0    0  0.35544966842E+02 -0.31678142631E+02 -0.41324860092E+02  0.63045169918E+02  0.00000000000E+00 0. -1.
</event>
<event>
 6    1  0.1715574E-005  0.1622434E+03  0.7818608E-02  0.1221899E+00
          2   -1    0    0  502    0  0.00000000000E+00  0.00000000000E+00  0.99512220676E+02  0.99512220676E+02  0.00000000000E+00 0. -1.
          1   -1    0    0  501    0 -0.00000000000E+00 -0.00000000000E+00 -0.20538855862E+03  0.20538855862E+03  0.00000000000E+00 0. -1.
          2    1    1    2  501    0  0.10311578399E+01  0.37019875950E+02 -0.53773630574E+02  0.65292708988E+02  0.00000000000E+00 0. -1.
          1    1    1    2  502    0 -0.57389988553E+02 -0.11230921332E+02 -0.80183213764E+02  0.99242592417E+02  0.00000000000E+00 0. -1.
         22    1    1    2    0    0  0.67499730485E+02 -0.17037414255E+02  0.68420112106E+02  0.97610444322E+02  0.00000000000E+00 0. -1.
         22    1    1    2    0    0 -0.11140899772E+02 -0.87515403633E+01 -0.40339605716E+02  0.42755033573E+02  0.00000000000E+00 0.  1.
</event>
<event>
 6    1  0.1715574E-005  0.8877237E+02  0.7818608E-02  0.1306306E+00
          2   -1    0    0  502    0  0.00000000000E+00  0.00000000000E+00  0.27120056634E+02  0.27120056634E+02  0.00000000000E+00 0.  1.
          1   -1    0    0  501    0 -0.00000000000E+00 -0.00000000000E+00 -0.33484376493E+03  0.33484376493E+03  0.00000000000E+00 0.  1.
          2    1    1    2  501    0 -0.18193518139E+02  0.10062945946E+02 -0.73948107096E+02  0.76815294873E+02  0.00000000000E+00 0.  1.
          1    1    1    2  502    0  0.38833828395E+02 -0.32259607044E+01 -0.48188322474E+02  0.61972473512E+02  0.00000000000E+00 0.  1.
         22    1    1    2    0    0  0.20999405485E+02 -0.25390645751E+02 -0.17268325429E+03  0.17579865254E+03  0.00000000000E+00 0.  1.
         22    1    1    2    0    0 -0.41639715741E+02  0.18553660509E+02 -0.12904024443E+02  0.47377400648E+02  0.00000000000E+00 0.  1.
</event>
<event>
 6    1  0.1715574E-005  0.9710503E+02  0.7818608E-02  0.1290552E+00
          2   -1    0    0  502    0  0.00000000000E+00  0.00000000000E+00  0.75381069892E+02  0.75381069892E+02  0.00000000000E+00 0. -1.
          1   -1    0    0  501    0 -0.00000000000E+00 -0.00000000000E+00 -0.12149130712E+03  0.12149130712E+03  0.00000000000E+00 0. -1.
          2    1    1    2  501    0 -0.26542158890E+02  0.20518811122E+02 -0.10314831444E+02  0.35098483672E+02  0.00000000000E+00 0. -1.
          1    1    1    2  502    0  0.24916611293E+02 -0.14100985912E+02 -0.12224331845E+02  0.31130525390E+02  0.00000000000E+00 0. -1.
         22    1    1    2    0    0  0.59527406151E+02  0.14740292627E+02 -0.30709920889E+02  0.68584893022E+02  0.00000000000E+00 0. -1.
         22    1    1    2    0    0 -0.57901858554E+02 -0.21158117837E+02  0.71388469516E+01  0.62058474927E+02  0.00000000000E+00 0. -1.
</event>
<event>
 6    1  0.1990878E-005  0.2522375E+03  0.7818608E-02  0.1112475E+00
          2   -1    0    0  502    0  0.00000000000E+00  0.00000000000E+00  0.87259760560E+03  0.87259760560E+03  0.00000000000E+00 0.  1.
          1   -1    0    0  501    0 -0.00000000000E+00 -0.00000000000E+00 -0.33339815040E+03  0.33339815040E+03  0.00000000000E+00 0. -1.
          2    1    1    2  501    0 -0.59057629529E+02 -0.19493567303E+03  0.58967530307E+03  0.62386271188E+03  0.00000000000E+00 0.  1.
          1    1    1    2  502    0  0.69761051873E+02  0.21697925504E+03 -0.25297408172E+03  0.34050328559E+03  0.00000000000E+00 0. -1.
         22    1    1    2    0    0 -0.19380626608E+02 -0.39384190962E+02  0.21442050993E+03  0.21886726175E+03  0.00000000000E+00 0. -1.
         22    1    1    2    0    0  0.86772042647E+01  0.17340608945E+02 -0.11922276083E+02  0.22762496774E+02  0.00000000000E+00 0.  1.
</event>
<event>
 6    1  0.1715574E-005  0.3055835E+02  0.7818608E-02  0.1594725E+00
          2   -1    0    0  502    0  0.00000000000E+00  0.00000000000E+00  0.54138213156E+03  0.54138213156E+03  0.00000000000E+00 0.  1.
          1   -1    0    0  501    0 -0.00000000000E+00 -0.00000000000E+00 -0.11062701783E+03  0.11062701783E+03  0.00000000000E+00 0.  1.
          2    1    1    2  501    0  0.17830945463E+02 -0.43021273025E+02  0.43204338412E+03  0.43454603705E+03  0.00000000000E+00 0.  1.
          1    1    1    2  502    0 -0.35804406877E+02  0.27697627760E+02 -0.62397546961E+02  0.77088053563E+02  0.00000000000E+00 0.  1.
         22    1    1    2    0    0  0.16845072612E+02 -0.96333539593E+00  0.98311133728E+02  0.99748501248E+02  0.00000000000E+00 0.  1.
         22    1    1    2    0    0  0.11283888019E+01  0.16286980660E+02 -0.37201857165E+02  0.40626557532E+02  0.00000000000E+00 0.  1.
</event>
<event>
 6    1  0.1715574E-005  0.8190115E+02  0.7818608E-02  0.1376799E+00
          2   -1    0    0  502    0  0.00000000000E+00  0.00000000000E+00  0.52612419334E+02  0.52612419334E+02  0.00000000000E+00 0.  1.
          1   -1    0    0  501    0 -0.00000000000E+00 -0.00000000000E+00 -0.55187832304E+03  0.55187832304E+03  0.00000000000E+00 0. -1.
          2    1    1    2  501    0 -0.33501649050E+02  0.43858630624E+02 -0.66942133636E+01  0.55594536259E+02  0.00000000000E+00 0.  1.
          1    1    1    2  502    0  0.25561513902E+02 -0.45114286915E+02 -0.38102522212E+03  0.38453726708E+03  0.00000000000E+00 0. -1.
         22    1    1    2    0    0 -0.32519098999E+01 -0.29918524224E+02 -0.12502730197E+03  0.12859828633E+03  0.00000000000E+00 0.  1.
         22    1    1    2    0    0  0.11192045048E+02  0.31174180515E+02  0.13480833753E+02  0.35760652704E+02  0.00000000000E+00 0.  1.
</event>
<event>
 6    1  0.1715574E-005  0.1695475E+03  0.7818608E-02  0.1225278E+00
          2   -1    0    0  502    0  0.00000000000E+00  0.00000000000E+00  0.80799277368E+03  0.80799277368E+03  0.00000000000E+00 0.  1.
          1   -1    0    0  501    0 -0.00000000000E+00 -0.00000000000E+00 -0.17056095159E+02  0.17056095159E+02  0.00000000000E+00 0.  1.
          2    1    1    2  501    0  0.58684315349E+02 -0.10789082996E+02  0.18219165477E+03  0.19171346391E+03  0.00000000000E+00 0.  1.
          1    1    1    2  502    0  0.21398252824E+02 -0.13557515153E+02  0.13701728452E+03  0.13933925397E+03  0.00000000000E+00 0.  1.
         22    1    1    2    0    0 -0.10975357636E+03  0.49454614848E+01  0.32586077678E+03  0.34388304837E+03  0.00000000000E+00 0.  1.
         22    1    1    2    0    0  0.29671008184E+02  0.19401136665E+02  0.14586696246E+03  0.15011310258E+03  0.00000000000E+00 0.  1.
</event>
<event>
 6    1  0.1715574E-005  0.2506259E+03  0.7818608E-02  0.1113381E+00
          2   -1    0    0  502    0  0.00000000000E+00  0.00000000000E+00  0.13561770151E+04  0.13561770151E+04  0.00000000000E+00 0. -1.
          1   -1    0    0  501    0 -0.00000000000E+00 -0.00000000000E+00 -0.82926454165E+02  0.82926454165E+02  0.00000000000E+00 0. -1.
          2    1    1    2  501    0 -0.99439999042E+02 -0.11540733656E+03  0.72247894033E+03  0.73836507634E+03  0.00000000000E+00 0. -1.
          1    1    1    2  502    0  0.12335808757E+03  0.19390257564E+03  0.15074547372E+03  0.27484472790E+03  0.00000000000E+00 0. -1.
         22    1    1    2    0    0 -0.32464415837E+02 -0.92081044765E+02  0.39789907695E+03  0.40970298088E+03  0.00000000000E+00 0. -1.
         22    1    1    2    0    0  0.85463273055E+01  0.13585805686E+02  0.21270699398E+01  0.16190684145E+02  0.00000000000E+00 0.  1.
</event>
<event>
 6    1  0.1715574E-005  0.5182069E+02  0.7818608E-02  0.1457842E+00
          2   -1    0    0  502    0  0.00000000000E+00  0.00000000000E+00  0.12055894743E+03  0.12055894743E+03  0.00000000000E+00 0.  1.
          1   -1    0    0  501    0 -0.00000000000E+00 -0.00000000000E+00 -0.51139133630E+03  0.51139133630E+03  0.00000000000E+00 0.  1.
          2    1    1    2  501    0 -0.13765045975E+02 -0.88985805988E+02  0.64260066201E+02  0.11062235880E+03  0.00000000000E+00 0.  1.
          1    1    1    2  502    0 -0.28922546332E+02  0.39240379880E+02 -0.32878899021E+03  0.33238309401E+03  0.00000000000E+00 0.  1.
         22    1    1    2    0    0 -0.80281700585E+00  0.33734160360E+02  0.17391124287E+02  0.37961681921E+02  0.00000000000E+00 0. -1.
         22    1    1    2    0    0  0.43490409313E+02  0.16011265748E+02 -0.14369458914E+03  0.15098314900E+03  0.00000000000E+00 0. -1.
</event>
<event>
 6    1  0.1715574E-005  0.1263073E+03  0.7818608E-02  0.1236578E+00
          2   -1    0    0  502    0  0.00000000000E+00  0.00000000000E+00  0.54959841146E+02  0.54959841146E+02  0.00000000000E+00 0. -1.
          1   -1    0    0  501    0 -0.00000000000E+00 -0.00000000000E+00 -0.39541725874E+03  0.39541725874E+03  0.00000000000E+00 0. -1.
          2    1    1    2  501    0 -0.39422214819E+02 -0.14905429080E+02 -0.73288611361E+02  0.84542908588E+02  0.00000000000E+00 0. -1.
          1    1    1    2  502    0  0.61587691884E+02  0.71778554840E+02 -0.51132750649E+02  0.10751633790E+03  0.00000000000E+00 0. -1.
         22    1    1    2    0    0  0.26973475322E+02 -0.45486297312E+01  0.32833641632E+01  0.27550660312E+02  0.00000000000E+00 0. -1.
         22    1    1    2    0    0 -0.49138952387E+02 -0.52324496028E+02 -0.21931941974E+03  0.23076719308E+03  0.00000000000E+00 0. -1.
</event>
<event>
 6    1  0.2393936E-005  0.2805547E+02  0.7818608E-02  0.1663922E+00
          2   -1    0    0  502    0  0.00000000000E+00  0.00000000000E+00  0.43255992953E+02  0.43255992953E+02  0.00000000000E+00 0.  1.
          1   -1    0    0  501    0 -0.00000000000E+00 -0.00000000000E+00 -0.62106514159E+03  0.62106514159E+03  0.00000000000E+00 0.  1.
          2    1    1    2  501    0  0.22616459210E+02 -0.20987332700E+02 -0.52201429945E+02  0.60637955518E+02  0.00000000000E+00 0.  1.
          1    1    1    2  502    0 -0.25683786042E+02  0.74444051492E+01 -0.46620940525E+03  0.46697567985E+03  0.00000000000E+00 0.  1.
         22    1    1    2    0    0 -0.71533088470E+01  0.27282422582E+02  0.32612367614E+02  0.43116898436E+02  0.00000000000E+00 0.  1.
         22    1    1    2    0    0  0.10220635680E+02 -0.13739495030E+02 -0.92010681059E+02  0.93590600737E+02  0.00000000000E+00 0. -1.
</event>
<event>
 6    1  0.1715574E-005  0.5664503E+02  0.7818608E-02  0.1513086E+00
          2   -1    0    0  502    0  0.00000000000E+00  0.00000000000E+00  0.14427417271E+03  0.14427417271E+03  0.00000000000E+00 0.  1.
          1   -1    0    0  501    0 -0.00000000000E+00 -0.00000000000E+00 -0.37952803090E+03  0.37952803090E+03  0.00000000000E+00 0.  1.
          2    1    1    2  501    0  0.37582504552E+02  0.36344115280E+02  0.99722742896E+02  0.11259646893E+03  0.00000000000E+00 0.  1.
          1    1    1    2  502    0 -0.30751653198E+02 -0.23482456304E+02 -0.26862480686E+03  0.27139708324E+03  0.00000000000E+00 0.  1.
         22    1    1    2    0    0  0.10345907074E+02 -0.81735715437E+01  0.34741517445E+02  0.37159360857E+02  0.00000000000E+00 0. -1.
         22    1    1    2    0    0 -0.17176758428E+02 -0.46880874320E+01 -0.10109331167E+03  0.10264929058E+03  0.00000000000E+00 0.  1.
</event>
<event>
 6    1  0.1715574E-005  0.2058930E+03  0.7818608E-02  0.1161961E+00
          2   -1    0    0  502    0  0.00000000000E+00  0.00000000000E+00  0.12960361367E+03  0.12960361367E+03  0.00000000000E+00 0. -1.
          1   -1    0    0  501    0 -0.00000000000E+00 -0.00000000000E+00 -0.30265311334E+03  0.30265311334E+03  0.00000000000E+00 0.  1.
          2    1    1    2  501    0  0.11699217936E+03  0.29567316580E+02  0.17551454234E+02  0.12194035340E+03  0.00000000000E+00 0. -1.
          1    1    1    2  502    0 -0.17917673710E+02 -0.74114268269E+02 -0.34413276852E+02  0.83655492443E+02  0.00000000000E+00 0.  1.
         22    1    1    2    0    0  0.11233737053E+02  0.56393308863E+01  0.14847599000E+02  0.19453793899E+02  0.00000000000E+00 0.  1.
         22    1    1    2    0    0 -0.11030824270E+03  0.38907620802E+02 -0.17103527604E+03  0.20720708727E+03  0.00000000000E+00 0.  1.
</event>
<event>
 6    1  0.1715574E-005  0.4486675E+02  0.7818608E-02  0.1475694E+00
          2   -1    0    0  502    0  0.00000000000E+00  0.00000000000E+00  0.26392464538E+03  0.26392464538E+03  0.00000000000E+00 0. -1.
          1   -1    0    0  501    0 -0.00000000000E+00 -0.00000000000E+00 -0.50988699641E+02  0.50988699641E+02  0.00000000000E+00 0. -1.
          2    1    1    2  501    0 -0.15076159918E+02 -0.15959856212E+02  0.11639607244E+03  0.11844852590E+03  0.00000000000E+00 0. -1.
          1    1    1    2  502    0  0.22834676428E+02  0.12947542536E+02 -0.15967792663E+02  0.30725098988E+02  0.00000000000E+00 0. -1.
         22    1    1    2    0    0  0.13295772133E+02  0.10937763314E+02 -0.22802526125E+02  0.28572144137E+02  0.00000000000E+00 0. -1.
         22    1    1    2    0    0 -0.21054288642E+02 -0.79254496375E+01  0.13531019208E+03  0.13716757599E+03  0.00000000000E+00 0. -1.
</event>
<event>
 6    1  0.1715574E-005  0.8480849E+02  0.7818608E-02  0.1317862E+00
          2   -1    0    0  502    0  0.00000000000E+00  0.00000000000E+00  0.26480626553E+02  0.26480626553E+02  0.00000000000E+00 0.  1.
          1   -1    0    0  501    0 -0.00000000000E+00 -0.00000000000E+00 -0.43683615738E+03  0.43683615738E+03  0.00000000000E+00 0. -1.
          2    1    1    2  501    0  0.26280957380E+02 -0.29952191900E+02 -0.32685917626E+02  0.51538255030E+02  0.00000000000E+00 0.  1.
          1    1    1    2  502    0 -0.24328699566E+02  0.43582668573E+01 -0.12382688203E+03  0.12626946118E+03  0.00000000000E+00 0. -1.
         22    1    1    2    0    0  0.44056589050E+02 -0.76564223611E+01 -0.28270882463E+02  0.52904126846E+02  0.00000000000E+00 0. -1.
         22    1    1    2    0    0 -0.46008846864E+02  0.33250347404E+02 -0.22557184871E+03  0.23260494088E+03  0.00000000000E+00 0. -1.
</event>
<event>
 6    1  0.1715574E-005  0.3843280E+02  0.7818608E-02  0.1541838E+00
          2   -1    0    0  502    0  0.00000000000E+00  0.00000000000E+00  0.16807549603E+03  0.16807549603E+03  0.00000000000E+00 0.  1.
          1   -1    0    0  501    0 -0.00000000000E+00 -0.00000000000E+00 -0.31274922681E+03  0.31274922681E+03  0.00000000000E+00 0.  1.
          2    1    1    2  501    0 -0.52895756827E+02 -0.39848671313E+01  0.12543633075E+03  0.13619145836E+03  0.00000000000E+00 0.  1.
          1    1    1    2  502    0  0.27482921010E+02 -0.13203570138E+01 -0.20179252887E+03  0.20365971374E+03  0.00000000000E+00 0.  1.
         22    1    1    2    0    0  0.69123663903E+01 -0.25419612414E+02 -0.93506953682E+02  0.97146733817E+02  0.00000000000E+00 0.  1.
         22    1    1    2    0    0  0.18500469427E+02  0.30724836559E+02  0.25189421023E+02  0.43826816929E+02  0.00000000000E+00 0. -1.
</event>
<event>
 6    1  0.1715574E-005  0.3601233E+03  0.7818608E-02  0.1065456E+00
          2   -1    0    0  502    0  0.00000000000E+00  0.00000000000E+00  0.25019117360E+03  0.25019117360E+03  0.00000000000E+00 0. -1.
          1   -1    0    0  501    0 -0.00000000000E+00 -0.00000000000E+00 -0.43139492865E+03  0.43139492865E+03  0.00000000000E+00 0. -1.
          2    1    1    2  501    0 -0.67186801043E+02 -0.53604595468E+02 -0.67898084274E+02  0.10953387028E+03  0.00000000000E+00 0. -1.
          1    1    1    2  502    0 -0.50521270729E+02  0.27494651677E+03 -0.67222062622E+02  0.28751833261E+03  0.00000000000E+00 0. -1.
         22    1    1    2    0    0  0.32180149148E+01  0.14694109835E+02 -0.13442346431E+02  0.20173476681E+02  0.00000000000E+00 0.  1.
         22    1    1    2    0    0  0.11449005686E+03 -0.23603603114E+03 -0.32641261716E+02  0.26436042269E+03  0.00000000000E+00 0. -1.
</event>
<event>
 6    1  0.1715574E-005  0.1900680E+03  0.7818608E-02  0.1163083E+00
          2   -1    0    0  502    0  0.00000000000E+00  0.00000000000E+00  0.15465323401E+04  0.15465323401E+04  0.00000000000E+00 0.  1.
          1   -1    0    0  501    0 -0.00000000000E+00 -0.00000000000E+00 -0.65621055209E+02  0.65621055209E+02  0.00000000000E+00 0.  1.
          2    1    1    2  501    0 -0.16874925553E+03 -0.17022734633E+03  0.59037471647E+03  0.63717812778E+03  0.00000000000E+00 0.  1.
          1    1    1    2  502    0  0.15010702411E+03 -0.11797713263E+02  0.20479898706E+03  0.25419270215E+03  0.00000000000E+00 0.  1.
         22    1    1    2    0    0  0.15933195607E+01  0.18580884988E+03  0.67538672601E+03  0.70048176067E+03  0.00000000000E+00 0.  1.
         22    1    1    2    0    0  0.17048911854E+02 -0.37837902946E+01  0.10350855319E+02  0.20300804669E+02  0.00000000000E+00 0.  1.
</event>
<event>
 6    1  0.1715574E-005  0.1198865E+03  0.7818608E-02  0.1248740E+00
          2   -1    0    0  502    0  0.00000000000E+00  0.00000000000E+00  0.43888712399E+02  0.43888712399E+02  0.00000000000E+00 0.  1.
          1   -1    0    0  501    0 -0.00000000000E+00 -0.00000000000E+00 -0.34880461654E+03  0.34880461654E+03  0.00000000000E+00 0.  1.
          2    1    1    2  501    0 -0.47069720884E+02 -0.58471599586E+00 -0.48036640786E+02  0.67256370515E+02  0.00000000000E+00 0.  1.
          1    1    1    2  502    0  0.37756733052E+02 -0.23896083750E+02 -0.14663903519E+03  0.15329579365E+03  0.00000000000E+00 0.  1.
         22    1    1    2    0    0 -0.29536127181E+02  0.63695207175E+02 -0.33982990998E+02  0.78001960893E+02  0.00000000000E+00 0.  1.
         22    1    1    2    0    0  0.38849115013E+02 -0.39214407429E+02 -0.76257237176E+02  0.94139203890E+02  0.00000000000E+00 0. -1.
</event>
<event>
 6    1  0.1715574E-005  0.1010775E+03  0.7818608E-02  0.1287959E+00
          2   -1    0    0  502    0  0.00000000000E+00  0.00000000000E+00  0.39593239985E+03  0.39593239985E+03  0.00000000000E+00 0. -1.
          1   -1    0    0  501    0 -0.00000000000E+00 -0.00000000000E+00 -0.85539571599E+02  0.85539571599E+02  0.00000000000E+00 0. -1.
          2    1    1    2  501    0  0.35402277672E+02  0.15219550260E+02  0.11400109457E+03  0.12033788073E+03  0.00000000000E+00 0. -1.
          1    1    1    2  502    0 -0.29097335383E+02 -0.66675024576E+02 -0.43866768620E+02  0.84950027768E+02  0.00000000000E+00 0. -1.
         22    1    1    2    0    0 -0.22657106382E+01 -0.97500689077E+01 -0.12542964277E+02  0.16047530690E+02  0.00000000000E+00 0. -1.
         22    1    1    2    0    0 -0.40392316503E+01  0.61205543224E+02  0.25280146658E+03  0.26013653226E+03  0.00000000000E+00 0. -1.
</event>
<event>
 6    1  0.4168275E-005  0.5312664E+03  0.7818608E-02  0.1007483E+00
          2   -1    0    0  502    0  0.00000000000E+00  0.00000000000E+00  0.49247812911E+03  0.49247812911E+03  0.00000000000E+00 0. -1.
          1   -1    0    0  501    0 -0.00000000000E+00 -0.00000000000E+00 -0.75912619328E+03  0.75912619328E+03  0.00000000000E+00 0. -1.
          2    1    1    2  501    0  0.48937030624E+03  0.26804594472E+02 -0.46072049463E+03  0.67265530333E+03  0.00000000000E+00 0. -1.
          1    1    1    2  502    0 -0.22143455008E+03  0.24308005605E+01  0.17659886643E+03  0.28324252573E+03  0.00000000000E+00 0. -1.
         22    1    1    2    0    0  0.12670301468E+02  0.11835395436E+01 -0.15318835554E+01  0.12817330938E+02  0.00000000000E+00 0. -1.
         22    1    1    2    0    0 -0.28060605763E+03 -0.30418934576E+02  0.19005447599E+02  0.28288916239E+03  0.00000000000E+00 0. -1.
</event>
<event>
 6    1  0.1715574E-005  0.7055949E+02  0.7818608E-02  0.1388911E+00
          2   -1    0    0  502    0  0.00000000000E+00  0.00000000000E+00  0.84027746165E+02  0.84027746165E+02  0.00000000000E+00 0. -1.
          1   -1    0    0  501    0 -0.00000000000E+00 -0.00000000000E+00 -0.25243091430E+03  0.25243091430E+03  0.00000000000E+00 0. -1.
          2    1    1    2  501    0 -0.29641100750E+02 -0.71091056656E+01  0.33657269882E+02  0.45408656146E+02  0.00000000000E+00 0. -1.
          1    1    1    2  502    0 -0.42635621402E+02 -0.37866605058E+02 -0.87493154914E+02  0.10443528210E+03  0.00000000000E+00 0. -1.
         22    1    1    2    0    0 -0.48372086309E+01 -0.10565429222E+02  0.19250037495E+02  0.22485346907E+02  0.00000000000E+00 0. -1.
         22    1    1    2    0    0  0.77113930783E+02  0.55541139946E+02 -0.13381732059E+03  0.16412937531E+03  0.00000000000E+00 0. -1.
</event>
<event>
 6    1  0.1715574E-005  0.5899739E+02  0.7818608E-02  0.1418265E+00
          2   -1    0    0  502    0  0.00000000000E+00  0.00000000000E+00  0.26981388556E+02  0.26981388556E+02  0.00000000000E+00 0. -1.
          1   -1    0    0  501    0 -0.00000000000E+00 -0.00000000000E+00 -0.69629857391E+03  0.69629857391E+03  0.00000000000E+00 0. -1.
          2    1    1    2  501    0 -0.21653646202E+02  0.22391133287E+01 -0.18057225734E+02  0.28283518585E+02  0.00000000000E+00 0. -1.
          1    1    1    2  502    0  0.38180677539E+02  0.51573093407E+02 -0.43023144956E+03  0.43499040023E+03  0.00000000000E+00 0. -1.
         22    1    1    2    0    0 -0.32055279405E+02 -0.10685591384E+02  0.49197015963E+00  0.33792970210E+02  0.00000000000E+00 0. -1.
         22    1    1    2    0    0  0.15528248068E+02 -0.43126615351E+02 -0.22152048023E+03  0.22621307345E+03  0.00000000000E+00 0.  1.
</event>
<event>
 6    1  0.1715574E-005  0.5877661E+02  0.7818608E-02  0.1421859E+00
          2   -1    0    0  502    0  0.00000000000E+00  0.00000000000E+00  0.17348235950E+02  0.17348235950E+02  0.00000000000E+00 0. -1.
          1   -1    0    0  501    0 -0.00000000000E+00 -0.00000000000E+00 -0.16060486432E+04  0.16060486432E+04  0.00000000000E+00 0. -1.
          2    1    1    2  501    0  0.52078879751E+02  0.57433248070E+01 -0.12209674617E+04  0.12220911333E+04  0.00000000000E+00 0. -1.
          1    1    1    2  502    0 -0.27310187697E+02 -0.12742154056E+02 -0.96503490441E+02  0.10109961676E+03  0.00000000000E+00 0. -1.
         22    1    1    2    0    0 -0.67910457334E+02 -0.92248799974E+00 -0.23068468980E+03  0.24047475400E+03  0.00000000000E+00 0. -1.
         22    1    1    2    0    0  0.43141765281E+02  0.79213172483E+01 -0.40544765270E+02  0.59731375083E+02  0.00000000000E+00 0. -1.
</event>
<event>
 6    1  0.1715574E-005  0.7774144E+02  0.7818608E-02  0.1345482E+00
          2   -1    0    0  502    0  0.00000000000E+00  0.00000000000E+00  0.14628191379E+03  0.14628191379E+03  0.00000000000E+00 0. -1.
          1   -1    0    0  501    0 -0.00000000000E+00 -0.00000000000E+00 -0.18973155408E+03  0.18973155408E+03  0.00000000000E+00 0. -1.
          2    1    1    2  501    0  0.25166556859E+02  0.15814520688E+02  0.97045301450E+02  0.10149505004E+03  0.00000000000E+00 0. -1.
          1    1    1    2  502    0 -0.40711441570E+02  0.26961400324E+02 -0.72710707943E+02  0.87585304885E+02  0.00000000000E+00 0. -1.
         22    1    1    2    0    0 -0.12363969115E+01 -0.18743734114E+02 -0.10094324471E+03  0.10267616519E+03  0.00000000000E+00 0. -1.
         22    1    1    2    0    0  0.16781281622E+02 -0.24032186898E+02  0.33159010914E+02  0.44256947757E+02  0.00000000000E+00 0. -1.
</event>
<event>
 6    1  0.1715574E-005  0.6372826E+02  0.7818608E-02  0.1462007E+00
          2   -1    0    0  502    0  0.00000000000E+00  0.00000000000E+00  0.82888979631E+02  0.82888979631E+02  0.00000000000E+00 0. -1.
          1   -1    0    0  501    0 -0.00000000000E+00 -0.00000000000E+00 -0.21470512142E+03  0.21470512142E+03  0.00000000000E+00 0. -1.
          2    1    1    2  501    0  0.28994180627E+02  0.44454611644E+02  0.24865671537E+02  0.58610379863E+02  0.00000000000E+00 0. -1.
          1    1    1    2  502    0 -0.10527596449E+01 -0.29789775639E+02 -0.80306395061E+02  0.85660119795E+02  0.00000000000E+00 0. -1.
         22    1    1    2    0    0 -0.10478198538E+02  0.15746652554E+02  0.33234801006E+02  0.38240053728E+02  0.00000000000E+00 0. -1.
         22    1    1    2    0    0 -0.17463222444E+02 -0.30411488559E+02 -0.10961021927E+03  0.11508354767E+03  0.00000000000E+00 0. -1.
</event>
<event>
 6    1  0.1715574E-005  0.5714972E+02  0.7818608E-02  0.1513646E+00
          2   -1    0    0  502    0  0.00000000000E+00  0.00000000000E+00  0.22441263243E+03  0.22441263243E+03  0.00000000000E+00 0.  1.
          1   -1    0    0  501    0 -0.00000000000E+00 -0.00000000000E+00 -0.54324283719E+02  0.54324283719E+02  0.00000000000E+00 0.  1.
          2    1    1    2  501    0  0.15730464784E+02  0.14124840864E+02  0.78935264738E+02  0.81717407393E+02  0.00000000000E+00 0.  1.
          1    1    1    2  502    0 -0.41199293686E+02 -0.17441972874E+02  0.29053238740E+01  0.44833526794E+02  0.00000000000E+00 0.  1.
         22    1    1    2    0    0 -0.11287362541E+02 -0.59126992133E+01 -0.27544911429E+02  0.30349410386E+02  0.00000000000E+00 0.  1.
         22    1    1    2    0    0  0.36756191443E+02  0.92298312230E+01  0.11579267153E+03  0.12183657157E+03  0.00000000000E+00 0. -1.
</event>
<event>
 6    1  0.1715574E-005  0.1149760E+03  0.7818608E-02  0.1262324E+00
          2   -1    0    0  502    0  0.00000000000E+00  0.00000000000E+00  0.14778834398E+03  0.14778834398E+03  0.00000000000E+00 0.  1.
          1   -1    0    0  501    0 -0.00000000000E+00 -0.00000000000E+00 -0.75322940424E+02  0.75322940424E+02  0.00000000000E+00 0.  1.
          2    1    1    2  501    0  0.12619521476E+01  0.27612535796E+02  0.47842176276E+02  0.55253221509E+02  0.00000000000E+00 0.  1.
          1    1    1    2  502    0  0.19005795757E+02 -0.29416308647E+02  0.19464921591E+02  0.40067725906E+02  0.00000000000E+00 0.  1.
         22    1    1    2    0    0 -0.71541546862E+02 -0.14377402903E+02  0.10646492725E+02  0.73744494364E+02  0.00000000000E+00 0.  1.
         22    1    1    2    0    0  0.51273798957E+02  0.16181175753E+02 -0.54881870347E+01  0.54045842626E+02  0.00000000000E+00 0.  1.
</event>
<event>
 6    1  0.1715574E-005  0.3252237E+02  0.7818608E-02  0.1606956E+00
          2   -1    0    0  502    0  0.00000000000E+00  0.00000000000E+00  0.93254904907E+02  0.93254904907E+02  0.00000000000E+00 0. -1.
          1   -1    0    0  501    0 -0.00000000000E+00 -0.00000000000E+00 -0.11732239369E+03  0.11732239369E+03  0.00000000000E+00 0.  1.
          2    1    1    2  501    0  0.35645200412E+02 -0.17353293813E+01  0.15624054491E+02  0.38957704748E+02  0.00000000000E+00 0. -1.
          1    1    1    2  502    0 -0.36343521781E+02 -0.14409700662E+02 -0.20796179099E+02  0.44282864787E+02  0.00000000000E+00 0.  1.
         22    1    1    2    0    0  0.16904119990E+02  0.21083875261E+02  0.49758611855E+02  0.56623303705E+02  0.00000000000E+00 0. -1.
         22    1    1    2    0    0 -0.16205798622E+02 -0.49388452180E+01 -0.68653976026E+02  0.70713425354E+02  0.00000000000E+00 0.  1.
</event>
<event>
 6    1  0.1715574E-005  0.3826214E+02  0.7818608E-02  0.1603264E+00
          2   -1    0    0  502    0  0.00000000000E+00  0.00000000000E+00  0.11433807138E+03  0.11433807138E+03  0.00000000000E+00 0.  1.
          1   -1    0    0  501    0 -0.00000000000E+00 -0.00000000000E+00 -0.21487293651E+03  0.21487293651E+03  0.00000000000E+00 0. -1.
          2    1    1    2  501    0 -0.13913083701E+02 -0.21957810429E+02  0.37978071005E+02  0.46022312134E+02  0.00000000000E+00 0.  1.
          1    1    1    2  502    0  0.19448807167E+02  0.13550973374E+02 -0.15401523567E+03  0.15582868092E+03  0.00000000000E+00 0. -1.
         22    1    1    2    0    0  0.76665582280E+01  0.11621138239E+02 -0.54397985965E+02  0.56151294251E+02  0.00000000000E+00 0. -1.
         22    1    1    2    0    0 -0.13202281694E+02 -0.32143011849E+01  0.69900285501E+02  0.71208720584E+02  0.00000000000E+00 0.  1.
</event>
<event>
 6    1  0.1715574E-005  0.3522548E+02  0.7818608E-02  0.1610196E+00
          2   -1    0    0  502    0  0.00000000000E+00  0.00000000000E+00  0.28662060958E+03  0.28662060958E+03  0.00000000000E+00 0. -1.
          1   -1    0    0  501    0 -0.00000000000E+00 -0.00000000000E+00 -0.11839343953E+03  0.11839343953E+03  0.00000000000E+00 0.  1.
          2    1    1    2  501    0 -0.32584005052E+01 -0.23107287356E+02  0.20127480734E+03  0.20262307858E+03  0.00000000000E+00 0. -1.
          1    1    1    2  502    0 -0.10469810908E+02  0.19562899020E+02 -0.65177111676E+02  0.68850416447E+02  0.00000000000E+00 0.  1.
         22    1    1    2    0    0  0.12995443393E+02 -0.93878347049E+01  0.81211179523E+02  0.82778431182E+02  0.00000000000E+00 0.  1.
         22    1    1    2    0    0  0.73276802089E+00  0.12932223041E+02 -0.49081705139E+02  0.50762122898E+02  0.00000000000E+00 0.  1.
</event>
<event>
 6    1  0.1715574E-005  0.5896771E+02  0.7818608E-02  0.1505558E+00
          2   -1    0    0  502    0  0.00000000000E+00  0.00000000000E+00  0.96591371083E+03  0.96591371083E+03  0.00000000000E+00 0. -1.
          1   -1    0    0  501    0 -0.00000000000E+00 -0.00000000000E+00 -0.26093419329E+02  0.26093419329E+02  0.00000000000E+00 0. -1.
          2    1    1    2  501    0  0.64774888337E+01 -0.79944185878E+02  0.57490051655E+03  0.58046846137E+03  0.00000000000E+00 0. -1.
          1    1    1    2  502    0 -0.42000337140E+02  0.29070532832E+02  0.97100429582E+02  0.10971607733E+03  0.00000000000E+00 0. -1.
         22    1    1    2    0    0  0.28110430112E+02  0.40261676374E+02  0.27986522793E+03  0.28414036086E+03  0.00000000000E+00 0. -1.
         22    1    1    2    0    0  0.74124181933E+01  0.10611976672E+02 -0.12045882560E+02  0.17682230600E+02  0.00000000000E+00 0. -1.
</event>
<event>
 6    1  0.1715574E-005  0.8223316E+02  0.7818608E-02  0.1401942E+00
          2   -1    0    0  502    0  0.00000000000E+00  0.00000000000E+00  0.31858969599E+03  0.31858969599E+03  0.00000000000E+00 0.  1.
          1   -1    0    0  501    0 -0.00000000000E+00 -0.00000000000E+00 -0.50851041000E+02  0.50851041000E+02  0.00000000000E+00 0.  1.
          2    1    1    2  501    0 -0.65550692879E+01  0.20672618640E+02  0.23059003692E+02  0.31655074570E+02  0.00000000000E+00 0.  1.
          1    1    1    2  502    0  0.12909498094E+02 -0.82746829696E+02  0.14967187784E+03  0.17150907843E+03  0.00000000000E+00 0.  1.
         22    1    1    2    0    0  0.17739469894E+02  0.12734387511E+02 -0.25665600403E+02  0.33698315410E+02  0.00000000000E+00 0.  1.
         22    1    1    2    0    0 -0.24093898700E+02  0.49339823545E+02  0.12067337386E+03  0.13257826859E+03  0.00000000000E+00 0.  1.
</event>
<event>
 6    1  0.1715574E-005  0.5433364E+02  0.7818608E-02  0.1530201E+00
          2   -1    0    0  502    0  0.00000000000E+00  0.00000000000E+00  0.16994245299E+03  0.16994245299E+03  0.00000000000E+00 0. -1.
          1   -1    0    0  501    0 -0.00000000000E+00 -0.00000000000E+00 -0.77237428145E+03  0.77237428145E+03  0.00000000000E+00 0. -1.
          2    1    1    2  501    0  0.18814498848E+02  0.20138976486E+02  0.89489089100E+02  0.93636856038E+02  0.00000000000E+00 0. -1.
          1    1    1    2  502    0 -0.13278249698E+02 -0.56987234495E+02 -0.71429690785E+03  0.71668956277E+03  0.00000000000E+00 0. -1.
         22    1    1    2    0    0 -0.60085867564E+01  0.10259928041E+02 -0.51823242058E+02  0.53169706183E+02  0.00000000000E+00 0. -1.
         22    1    1    2    0    0  0.47233760573E+00  0.26588329968E+02  0.74199232351E+02  0.78820609455E+02  0.00000000000E+00 0. -1.
</event>
<event>
 6    1  0.1715574E-005  0.1573302E+03  0.7818608E-02  0.1191823E+00
          2   -1    0    0  502    0  0.00000000000E+00  0.00000000000E+00  0.54829319895E+03  0.54829319895E+03  0.00000000000E+00 0.  1.
          1   -1    0    0  501    0 -0.00000000000E+00 -0.00000000000E+00 -0.77773104244E+02  0.77773104244E+02  0.00000000000E+00 0. -1.
          2    1    1    2  501    0 -0.51870759367E+02  0.60142914624E+02  0.17443010067E+03  0.19166013116E+03  0.00000000000E+00 0.  1.
          1    1    1    2  502    0  0.83846599740E+02 -0.95465432710E+02  0.23970330846E+02  0.12929995318E+03  0.00000000000E+00 0. -1.
         22    1    1    2    0    0  0.29322271597E+02 -0.59363053819E+01  0.81749218963E+01  0.31013943335E+02  0.00000000000E+00 0. -1.
         22    1    1    2    0    0 -0.61298111970E+02  0.41258823468E+02  0.26394474130E+03  0.27409227553E+03  0.00000000000E+00 0.  1.
</event>
<event>
 6    1  0.1715574E-005  0.1077562E+03  0.7818608E-02  0.1266786E+00
          2   -1    0    0  502    0  0.00000000000E+00  0.00000000000E+00  0.54452948861E+02  0.54452948861E+02  0.00000000000E+00 0. -1.
          1   -1    0    0  501    0 -0.00000000000E+00 -0.00000000000E+00 -0.22865507297E+03  0.22865507297E+03  0.00000000000E+00 0.  1.
          2    1    1    2  501    0 -0.19684290219E+02  0.34025951185E+02 -0.14264961917E+02  0.41817768639E+02  0.00000000000E+00 0. -1.
          1    1    1    2  502    0 -0.24047106961E+01 -0.54319865882E+02 -0.37754190529E+02  0.66195236728E+02  0.00000000000E+00 0.  1.
         22    1    1    2    0    0  0.50541449234E+02  0.46098006609E+02 -0.28988756194E+02  0.74295439225E+02  0.00000000000E+00 0. -1.
         22    1    1    2    0    0 -0.28452448319E+02 -0.25804091911E+02 -0.93194215471E+02  0.10079957724E+03  0.00000000000E+00 0.  1.
</event>
<event>
 6    1  0.1715574E-005  0.5388360E+02  0.7818608E-02  0.1531207E+00
          2   -1    0    0  502    0  0.00000000000E+00  0.00000000000E+00  0.11153356330E+03  0.11153356330E+03  0.00000000000E+00 0.  1.
          1   -1    0    0  501    0 -0.00000000000E+00 -0.00000000000E+00 -0.19280231933E+03  0.19280231933E+03  0.00000000000E+00 0. -1.
          2    1    1    2  501    0 -0.23294915435E+02  0.36656995321E+02  0.58825520773E+02  0.73122023258E+02  0.00000000000E+00 0.  1.
          1    1    1    2  502    0  0.75680048802E+01 -0.19349918573E+02 -0.89932684341E+02  0.92301580481E+02  0.00000000000E+00 0. -1.
         22    1    1    2    0    0  0.14285389875E+02 -0.29250133848E+02 -0.90837905841E+02  0.96494392747E+02  0.00000000000E+00 0. -1.
         22    1    1    2    0    0  0.14415206803E+01  0.11943057101E+02  0.40676313380E+02  0.42417886145E+02  0.00000000000E+00 0.  1.
</event>
<event>
 6    1  0.1715574E-005  0.1150434E+03  0.7818608E-02  0.1375580E+00
          2   -1    0    0  502    0  0.00000000000E+00  0.00000000000E+00  0.20939842673E+03  0.20939842673E+03  0.00000000000E+00 0.  1.
          1   -1    0    0  501    0 -0.00000000000E+00 -0.00000000000E+00 -0.11214464015E+03  0.11214464015E+03  0.00000000000E+00 0.  1.
          2    1    1    2  501    0  0.21829886665E+02 -0.36839310395E+01  0.28970878513E+02  0.36461309652E+02  0.00000000000E+00 0.  1.
          1    1    1    2  502    0  0.68000190347E+02 -0.79198697155E+02  0.20738742562E+02  0.10642628886E+03  0.00000000000E+00 0.  1.
         22    1    1    2    0    0 -0.63571186964E+01 -0.10403950808E+02  0.51985714614E+02  0.53396345141E+02  0.00000000000E+00 0.  1.
         22    1    1    2    0    0 -0.83472958315E+02  0.93286579002E+02 -0.44415491021E+01  0.12525912322E+03  0.00000000000E+00 0.  1.
</event>
<event>
 6    1  0.1715574E-005  0.7494430E+02  0.7818608E-02  0.1344723E+00
          2   -1    0    0  502    0  0.00000000000E+00  0.00000000000E+00  0.25871538030E+03  0.25871538030E+03  0.00000000000E+00 0.  1.
          1   -1    0    0  501    0 -0.00000000000E+00 -0.00000000000E+00 -0.11460768295E+03  0.11460768295E+03  0.00000000000E+00 0.  1.
          2    1    1    2  501    0  0.30851177020E+02  0.30680303854E+02  0.19071513742E+03  0.19561528521E+03  0.00000000000E+00 0.  1.
          1    1    1    2  502    0 -0.26687623864E+02 -0.83067981163E+01 -0.37185828383E+02  0.46519006814E+02  0.00000000000E+00 0.  1.
         22    1    1    2    0    0 -0.20255947297E+02 -0.42383564382E+02 -0.58963229684E+02  0.75387879566E+02  0.00000000000E+00 0.  1.
         22    1    1    2    0    0  0.16092394141E+02  0.20010058644E+02  0.49541617996E+02  0.55800891658E+02  0.00000000000E+00 0. -1.
</event>
<event>
 6    1  0.1715574E-005  0.4880377E+02  0.7818608E-02  0.1488235E+00
          2   -1    0    0  502    0  0.00000000000E+00  0.00000000000E+00  0.31683510889E+03  0.31683510889E+03  0.00000000000E+00 0.  1.
          1   -1    0    0  501    0 -0.00000000000E+00 -0.00000000000E+00 -0.60716701923E+02  0.60716701923E+02  0.00000000000E+00 0.  1.
          2    1    1    2  501    0 -0.24816415756E+02  0.10579393684E+02  0.17690460134E+03  0.17894975842E+03  0.00000000000E+00 0.  1.
          1    1    1    2  502    0  0.47872616098E+02  0.14292112401E+02  0.15982827160E+02  0.52454767305E+02  0.00000000000E+00 0.  1.
         22    1    1    2    0    0 -0.21298749741E+02  0.40754537078E+01  0.98286948416E+02  0.10065073419E+03  0.00000000000E+00 0.  1.
         22    1    1    2    0    0 -0.17574506008E+01 -0.28946959792E+02 -0.35055969958E+02  0.45496550897E+02  0.00000000000E+00 0.  1.
</event>
<event>
 6    1  0.1715574E-005  0.1051906E+03  0.7818608E-02  0.1355296E+00
          2   -1    0    0  502    0  0.00000000000E+00  0.00000000000E+00  0.26622679450E+03  0.26622679450E+03  0.00000000000E+00 0.  1.
          1   -1    0    0  501    0 -0.00000000000E+00 -0.00000000000E+00 -0.12057369164E+03  0.12057369164E+03  0.00000000000E+00 0.  1.
          2    1    1    2  501    0  0.47995463091E+02  0.10157158034E+03  0.15957901986E+03  0.19515587101E+03  0.00000000000E+00 0.  1.
          1    1    1    2  502    0 -0.20473162830E+02 -0.35900938138E+02 -0.23655588325E+02  0.47619477260E+02  0.00000000000E+00 0.  1.
         22    1    1    2    0    0 -0.54707218075E+01 -0.61931187176E+02 -0.50295072793E+02  0.79968713191E+02  0.00000000000E+00 0.  1.
         22    1    1    2    0    0 -0.22051578453E+02 -0.37394550306E+01  0.60024744121E+02  0.64056424681E+02  0.00000000000E+00 0. -1.
</event>
<event>
 6    1  0.1715574E-005  0.7676470E+02  0.7818608E-02  0.1374500E+00
          2   -1    0    0  502    0  0.00000000000E+00  0.00000000000E+00  0.34242635639E+03  0.34242635639E+03  0.00000000000E+00 0.  1.
          1   -1    0    0  501    0 -0.00000000000E+00 -0.00000000000E+00 -0.12749811845E+03  0.12749811845E+03  0.00000000000E+00 0.  1.
          2    1    1    2  501    0  0.40620433127E+02 -0.40466960946E+02  0.15076724012E+03  0.16130206202E+03  0.00000000000E+00 0.  1.
          1    1    1    2  502    0 -0.65751750319E+02  0.80799105375E+01 -0.87935438549E+02  0.11009640765E+03  0.00000000000E+00 0.  1.
         22    1    1    2    0    0  0.34308936819E+02  0.23831041221E+02  0.17089400642E+03  0.17592550441E+03  0.00000000000E+00 0.  1.
         22    1    1    2    0    0 -0.91776196267E+01  0.85560091874E+01 -0.18797570048E+02  0.22600500768E+02  0.00000000000E+00 0.  1.
</event>
<event>
 6    1  0.1715574E-005  0.2237234E+03  0.7818608E-02  0.1131206E+00
          2   -1    0    0  502    0  0.00000000000E+00  0.00000000000E+00  0.96652142104E+03  0.96652142104E+03  0.00000000000E+00 0. -1.
          1   -1    0    0  501    0 -0.00000000000E+00 -0.00000000000E+00 -0.31366562498E+03  0.31366562498E+03  0.00000000000E+00 0.  1.
          2    1    1    2  501    0  0.88640805592E+02 -0.15971872714E+03  0.70278412185E+03  0.72613551499E+03  0.00000000000E+00 0. -1.
          1    1    1    2  502    0 -0.10617111218E+03  0.16928175307E+03 -0.24828786664E+03  0.31870908632E+03  0.00000000000E+00 0.  1.
         22    1    1    2    0    0 -0.11971443715E+02  0.16693493784E+02 -0.10298792406E+02  0.22979410879E+02  0.00000000000E+00 0.  1.
         22    1    1    2    0    0  0.29501750300E+02 -0.26256519713E+02  0.20865833326E+03  0.21236303383E+03  0.00000000000E+00 0.  1.
</event>
<event>
 6    1  0.1715574E-005  0.2401236E+02  0.7818608E-02  0.1687210E+00
          2   -1    0    0  502    0  0.00000000000E+00  0.00000000000E+00  0.95432963625E+02  0.95432963625E+02  0.00000000000E+00 0. -1.
          1   -1    0    0  501    0 -0.00000000000E+00 -0.00000000000E+00 -0.75537043778E+03  0.75537043778E+03  0.00000000000E+00 0.  1.
          2    1    1    2  501    0 -0.39385050489E+02  0.24167422758E+02  0.18729316786E+02  0.49860142720E+02  0.00000000000E+00 0. -1.
          1    1    1    2  502    0  0.25523753326E+02 -0.19492913675E+02 -0.67654256986E+03  0.67730442528E+03  0.00000000000E+00 0.  1.
         22    1    1    2    0    0  0.12305826645E+02  0.80953025259E+01 -0.61318487097E+02  0.63062858738E+02  0.00000000000E+00 0. -1.
         22    1    1    2    0    0  0.15554705184E+01 -0.12769811609E+02  0.59194266020E+02  0.60575974666E+02  0.00000000000E+00 0. -1.
</event>
<event>
 6    1  0.1715574E-005  0.6540922E+02  0.7818608E-02  0.1378627E+00
          2   -1    0    0  502    0  0.00000000000E+00  0.00000000000E+00  0.15952795220E+03  0.15952795220E+03  0.00000000000E+00 0. -1.
          1   -1    0    0  501    0 -0.00000000000E+00 -0.00000000000E+00 -0.14745524733E+03  0.14745524733E+03  0.00000000000E+00 0.  1.
          2    1    1    2  501    0 -0.13538929073E+02  0.44022294951E+02  0.98782405234E+02  0.10899187418E+03  0.00000000000E+00 0. -1.
          1    1    1    2  502    0  0.11843333593E+01 -0.29524303599E+02 -0.55705240821E+02  0.63056807748E+02  0.00000000000E+00 0.  1.
         22    1    1    2    0    0  0.23030161631E+02 -0.27318676582E+02 -0.77606086783E+02  0.85436544526E+02  0.00000000000E+00 0. -1.
         22    1    1    2    0    0 -0.10675565916E+02  0.12820685229E+02  0.46601627243E+02  0.49497973080E+02  0.00000000000E+00 0. -1.
</event>
<event>
 6    1  0.2352872E-005  0.3038679E+03  0.7818608E-02  0.1086100E+00
          2   -1    0    0  502    0  0.00000000000E+00  0.00000000000E+00  0.21253905930E+04  0.21253905930E+04  0.00000000000E+00 0. -1.
          1   -1    0    0  501    0 -0.00000000000E+00 -0.00000000000E+00 -0.12579122857E+03  0.12579122857E+03  0.00000000000E+00 0. -1.
          2    1    1    2  501    0  0.65408687184E+02 -0.26255066247E+03  0.54296050403E+02  0.27596957769E+03  0.00000000000E+00 0. -1.
          1    1    1    2  502    0 -0.37602551255E+02  0.97041984275E+02  0.11006893451E+04  0.11055985406E+04  0.00000000000E+00 0. -1.
         22    1    1    2    0    0  0.47265995131E+01 -0.98182892814E+01  0.63899916680E+01  0.12632162954E+02  0.00000000000E+00 0. -1.
         22    1    1    2    0    0 -0.32532735443E+02  0.17532696748E+03  0.83822397727E+03  0.85698154033E+03  0.00000000000E+00 0. -1.
</event>
<event>
 6    1  0.1715574E-005  0.5305364E+02  0.7818608E-02  0.1528805E+00
          2   -1    0    0  502    0  0.00000000000E+00  0.00000000000E+00  0.18341273905E+03  0.18341273905E+03  0.00000000000E+00 0. -1.
          1   -1    0    0  501    0 -0.00000000000E+00 -0.00000000000E+00 -0.12467748387E+03  0.12467748387E+03  0.00000000000E+00 0. -1.
          2    1    1    2  501    0 -0.23311565846E+02  0.31816442182E+02  0.11338217367E+03  0.12004679255E+03  0.00000000000E+00 0. -1.
          1    1    1    2  502    0  0.13695155277E+02 -0.41750834124E+02 -0.41381110254E+02  0.60357979704E+02  0.00000000000E+00 0. -1.
         22    1    1    2    0    0  0.12534604461E+02 -0.34806949982E+01 -0.69035657722E+02  0.70250648280E+02  0.00000000000E+00 0. -1.
         22    1    1    2    0    0 -0.29181938921E+01  0.13415086940E+02  0.55769849492E+02  0.57434802390E+02  0.00000000000E+00 0. -1.
</event>
<event>
 6    1  0.1715574E-005  0.9286755E+02  0.7818608E-02  0.1337945E+00
          2   -1    0    0  502    0  0.00000000000E+00  0.00000000000E+00  0.32950732565E+03  0.32950732565E+03  0.00000000000E+00 0.  1.
          1   -1    0    0  501    0 -0.00000000000E+00 -0.00000000000E+00 -0.87012203519E+02  0.87012203519E+02  0.00000000000E+00 0. -1.
          2    1    1    2  501    0 -0.54120139682E+02  0.31810909624E+02  0.23587226720E+03  0.24408328481E+03  0.00000000000E+00 0.  1.
          1    1    1    2  502    0  0.41558391555E+02 -0.15515805470E+02 -0.11309118217E+02  0.45779212344E+02  0.00000000000E+00 0. -1.
         22    1    1    2    0    0 -0.38210274073E+02 -0.21350232285E+02  0.49954393649E+02  0.66417609925E+02  0.00000000000E+00 0.  1.
         22    1    1    2    0    0  0.50772022200E+02  0.50551281313E+01 -0.32022420501E+02  0.60239422087E+02  0.00000000000E+00 0.  1.
</event>
<event>
 6    1  0.1715574E-005  0.4097989E+02  0.7818608E-02  0.1592914E+00
          2   -1    0    0  502    0  0.00000000000E+00  0.00000000000E+00  0.93878550970E+02  0.93878550970E+02  0.00000000000E+00 0.  1.
          1   -1    0    0  501    0 -0.00000000000E+00 -0.00000000000E+00 -0.12138668991E+04  0.12138668991E+04  0.00000000000E+00 0.  1.
          2    1    1    2  501    0 -0.14252853515E+02  0.49179894539E+02  0.43051267309E+02  0.66897066282E+02  0.00000000000E+00 0.  1.
          1    1    1    2  502    0  0.54654399867E+02 -0.23432741820E+02 -0.10759225363E+04  0.10775646156E+04  0.00000000000E+00 0.  1.
         22    1    1    2    0    0 -0.30259207788E+01 -0.11923934148E+02  0.33800135226E+02  0.35969230509E+02  0.00000000000E+00 0.  1.
         22    1    1    2    0    0 -0.37375625574E+02 -0.13823218570E+02 -0.12091721440E+03  0.12731453765E+03  0.00000000000E+00 0.  1.
</event>
<event>
 6    1  0.1715574E-005  0.4485059E+02  0.7818608E-02  0.1483788E+00
          2   -1    0    0  502    0  0.00000000000E+00  0.00000000000E+00  0.22860076040E+03  0.22860076040E+03  0.00000000000E+00 0.  1.
          1   -1    0    0  501    0 -0.00000000000E+00 -0.00000000000E+00 -0.68899962779E+02  0.68899962779E+02  0.00000000000E+00 0. -1.
          2    1    1    2  501    0  0.62255575280E+01 -0.19909510822E+02  0.11847351257E+03  0.12029596572E+03  0.00000000000E+00 0.  1.
          1    1    1    2  502    0  0.67075234352E+01  0.19460180432E+02 -0.24943988942E+02  0.32340254752E+02  0.00000000000E+00 0. -1.
         22    1    1    2    0    0  0.25498616156E+01  0.18250418613E+02 -0.35765240608E+02  0.40233468774E+02  0.00000000000E+00 0. -1.
         22    1    1    2    0    0 -0.15482942579E+02 -0.17801088223E+02  0.10193651460E+03  0.10463103393E+03  0.00000000000E+00 0.  1.
</event>
<event>
 6    1  0.1715574E-005  0.1122571E+03  0.7818608E-02  0.1321264E+00
          2   -1    0    0  502    0  0.00000000000E+00  0.00000000000E+00  0.10929336305E+04  0.10929336305E+04  0.00000000000E+00 0. -1.
          1   -1    0    0  501    0 -0.00000000000E+00 -0.00000000000E+00 -0.10177129031E+03  0.10177129031E+03  0.00000000000E+00 0. -1.
          2    1    1    2  501    0 -0.89890539863E+01 -0.77467619300E+02  0.91861346830E+03  0.92191796776E+03  0.00000000000E+00 0. -1.
          1    1    1    2  502    0  0.21868484275E+02  0.85204146596E+02 -0.48895043711E+02  0.10064145518E+03  0.00000000000E+00 0. -1.
         22    1    1    2    0    0 -0.72405821679E+01 -0.32442451887E+02  0.13795283074E+03  0.14190110015E+03  0.00000000000E+00 0. -1.
         22    1    1    2    0    0 -0.56388481209E+01  0.24705924591E+02 -0.16508915105E+02  0.30244397761E+02  0.00000000000E+00 0. -1.
</event>
<event>
 6    1  0.1715574E-005  0.2688596E+02  0.7818608E-02  0.1701446E+00
          2   -1    0    0  502    0  0.00000000000E+00  0.00000000000E+00  0.93737383568E+03  0.93737383568E+03  0.00000000000E+00 0. -1.
          1   -1    0    0  501    0 -0.00000000000E+00 -0.00000000000E+00 -0.19878355771E+03  0.19878355771E+03  0.00000000000E+00 0. -1.
          2    1    1    2  501    0  0.48301895023E+02 -0.11463895776E+02  0.86491138541E+03  0.86633492287E+03  0.00000000000E+00 0. -1.
          1    1    1    2  502    0 -0.17343209492E+02  0.23897680614E+02 -0.13719907547E+03  0.14034055851E+03  0.00000000000E+00 0. -1.
         22    1    1    2    0    0 -0.89521270706E+01 -0.64750082247E+01 -0.56904880853E+02  0.57967506204E+02  0.00000000000E+00 0.  1.
         22    1    1    2    0    0 -0.22006558460E+02 -0.59587766136E+01  0.67782848891E+02  0.71514405806E+02  0.00000000000E+00 0.  1.
</event>
<event>
 6    1  0.1715574E-005  0.4982288E+02  0.7818608E-02  0.1499859E+00
          2   -1    0    0  502    0  0.00000000000E+00  0.00000000000E+00  0.13696855483E+03  0.13696855483E+03  0.00000000000E+00 0. -1.
          1   -1    0    0  501    0 -0.00000000000E+00 -0.00000000000E+00 -0.47707877648E+03  0.47707877648E+03  0.00000000000E+00 0.  1.
          2    1    1    2  501    0  0.14618754980E+02 -0.32210802864E+02  0.81543136807E+02  0.88884908610E+02  0.00000000000E+00 0. -1.
          1    1    1    2  502    0 -0.16080188361E+02  0.23043042460E+02 -0.39788504663E+03  0.39887600153E+03  0.00000000000E+00 0.  1.
         22    1    1    2    0    0  0.42402461486E+01  0.22811372997E+02 -0.72229511859E+02  0.75864621589E+02  0.00000000000E+00 0.  1.
         22    1    1    2    0    0 -0.27788127683E+01 -0.13643612594E+02  0.48461200035E+02  0.50421799590E+02  0.00000000000E+00 0.  1.
</event>
<event>
 6    1  0.1715574E-005  0.9971011E+02  0.7818608E-02  0.1314376E+00
          2   -1    0    0  502    0  0.00000000000E+00  0.00000000000E+00  0.43083321376E+03  0.43083321376E+03  0.00000000000E+00 0.  1.
          1   -1    0    0  501    0 -0.00000000000E+00 -0.00000000000E+00 -0.43935273205E+03  0.43935273205E+03  0.00000000000E+00 0.  1.
          2    1    1    2  501    0  0.65618667702E+02 -0.51081647107E+02  0.30799525221E+03  0.31902385429E+03  0.00000000000E+00 0.  1.
          1    1    1    2  502    0 -0.50316568940E+02  0.99789936977E+02 -0.38483433328E+03  0.40073339354E+03  0.00000000000E+00 0.  1.
         22    1    1    2    0    0 -0.29807255435E+02 -0.44630577681E+02 -0.22626005709E+02  0.58243429458E+02  0.00000000000E+00 0. -1.
         22    1    1    2    0    0  0.14505156673E+02 -0.40777121897E+01  0.90945568487E+02  0.92185268531E+02  0.00000000000E+00 0. -1.
</event>
<event>
 6    1  0.1715574E-005  0.6323861E+02  0.7818608E-02  0.1390653E+00
          2   -1    0    0  502    0  0.00000000000E+00  0.00000000000E+00  0.21357145923E+03  0.21357145923E+03  0.00000000000E+00 0.  1.
          1   -1    0    0  501    0 -0.00000000000E+00 -0.00000000000E+00 -0.12489708088E+03  0.12489708088E+03  0.00000000000E+00 0.  1.
          2    1    1    2  501    0  0.25583576336E+02  0.23442651492E+02  0.13636037006E+03  0.14070617545E+03  0.00000000000E+00 0.  1.
          1    1    1    2  502    0 -0.33572815217E+02 -0.15505857894E+02 -0.59975414893E+02  0.70460030813E+02  0.00000000000E+00 0.  1.
         22    1    1    2    0    0  0.26592499032E+02 -0.43803712839E+01  0.65496495482E+02  0.70824710220E+02  0.00000000000E+00 0. -1.
         22    1    1    2    0    0 -0.18603260151E+02 -0.35564223143E+01 -0.53207072295E+02  0.56477623624E+02  0.00000000000E+00 0.  1.
</event>
<event>
 6    1  0.1715574E-005  0.7521102E+02  0.7818608E-02  0.1357022E+00
          2   -1    0    0  502    0  0.00000000000E+00  0.00000000000E+00  0.19140186024E+03  0.19140186024E+03  0.00000000000E+00 0.  1.
          1   -1    0    0  501    0 -0.00000000000E+00 -0.00000000000E+00 -0.52346065793E+02  0.52346065793E+02  0.00000000000E+00 0. -1.
          2    1    1    2  501    0  0.15207091245E+02  0.32556458310E+02  0.63876988054E+02  0.73290164447E+02  0.00000000000E+00 0.  1.
          1    1    1    2  502    0 -0.20926438345E+02  0.33955097240E+00  0.95325880220E+01  0.22997855358E+02  0.00000000000E+00 0. -1.
         22    1    1    2    0    0  0.90959268792E+01  0.14235712574E+02  0.91875481783E+02  0.93415713620E+02  0.00000000000E+00 0. -1.
         22    1    1    2    0    0 -0.33765797795E+01 -0.47131721856E+02 -0.26229263408E+02  0.54044192612E+02  0.00000000000E+00 0. -1.
</event>
<event>
 6    1  0.1715574E-005  0.7025620E+02  0.7818608E-02  0.1360992E+00
          2   -1    0    0  502    0  0.00000000000E+00  0.00000000000E+00  0.27063038202E+03  0.27063038202E+03  0.00000000000E+00 0. -1.
          1   -1    0    0  501    0 -0.00000000000E+00 -0.00000000000E+00 -0.59791302431E+03  0.59791302431E+03  0.00000000000E+00 0.  1.
          2    1    1    2  501    0 -0.54779184838E+02 -0.20919719493E+01  0.21404304783E+03  0.22095149188E+03  0.00000000000E+00 0. -1.
          1    1    1    2  502    0  0.54608779236E+02  0.34001717931E+01 -0.51176975060E+03  0.51468627101E+03  0.00000000000E+00 0.  1.
         22    1    1    2    0    0 -0.12120742427E+02  0.56491685577E+01  0.50178576063E+02  0.51929904661E+02  0.00000000000E+00 0. -1.
         22    1    1    2    0    0  0.12291148029E+02 -0.69573684014E+01 -0.79734515587E+02  0.80975738779E+02  0.00000000000E+00 0. -1.
</event>
<event>
 6    1  0.1715574E-005  0.3274736E+03  0.7818608E-02  0.1074502E+00
          2   -1    0    0  502    0  0.00000000000E+00  0.00000000000E+00  0.68835343473E+03  0.68835343473E+03  0.00000000000E+00 0.  1.
          1   -1    0    0  501    0 -0.00000000000E+00 -0.00000000000E+00 -0.16483272065E+03  0.16483272065E+03  0.00000000000E+00 0.  1.
          2    1    1    2  501    0 -0.12575165410E+03  0.22557514127E+03  0.41369758302E+03  0.48769182181E+03  0.00000000000E+00 0.  1.
          1    1    1    2  502    0  0.53744324917E+02 -0.18083352295E+03  0.10048211109E+03  0.21374253234E+03  0.00000000000E+00 0.  1.
         22    1    1    2    0    0 -0.36019087428E+02 -0.91907375753E+01 -0.33310522309E+01  0.37322114427E+02  0.00000000000E+00 0. -1.
         22    1    1    2    0    0  0.10802641661E+03 -0.35550880748E+02  0.12672072197E+02  0.11442968680E+03  0.00000000000E+00 0.  1.
</event>
<event>
 6    1  0.1715574E-005  0.7246295E+02  0.7818608E-02  0.1352083E+00
          2   -1    0    0  502    0  0.00000000000E+00  0.00000000000E+00  0.31510507719E+03  0.31510507719E+03  0.00000000000E+00 0. -1.
          1   -1    0    0  501    0 -0.00000000000E+00 -0.00000000000E+00 -0.45664431038E+02  0.45664431038E+02  0.00000000000E+00 0.  1.
          2    1    1    2  501    0  0.28495535481E+02 -0.11809931132E+00  0.10606463457E+03  0.10982584485E+03  0.00000000000E+00 0. -1.
          1    1    1    2  502    0 -0.29682047702E+02  0.56377912394E+01 -0.12363497426E+02  0.32644520435E+02  0.00000000000E+00 0.  1.
         22    1    1    2    0    0 -0.37104945869E+02  0.15601224208E+02  0.32834950552E+01  0.40385103002E+02  0.00000000000E+00 0. -1.
         22    1    1    2    0    0  0.38291458089E+02 -0.21120916136E+02  0.17245601395E+03  0.17791403994E+03  0.00000000000E+00 0. -1.
</event>
<event>
 6    1  0.1715574E-005  0.3236389E+02  0.7818608E-02  0.1580779E+00
          2   -1    0    0  502    0  0.00000000000E+00  0.00000000000E+00  0.12823208852E+03  0.12823208852E+03  0.00000000000E+00 0.  1.
          1   -1    0    0  501    0 -0.00000000000E+00 -0.00000000000E+00 -0.30802038381E+03  0.30802038381E+03  0.00000000000E+00 0. -1.
          2    1    1    2  501    0  0.68749082723E+01  0.58410722948E+02  0.70709687849E+02  0.91972478899E+02  0.00000000000E+00 0.  1.
          1    1    1    2  502    0  0.21330723612E+02 -0.56522908383E+02 -0.19988533023E+03  0.20881567035E+03  0.00000000000E+00 0. -1.
         22    1    1    2    0    0 -0.10218051529E+02 -0.22566385732E+02  0.36516626173E+02  0.44126118446E+02  0.00000000000E+00 0.  1.
         22    1    1    2    0    0 -0.17987580355E+02  0.20678571167E+02 -0.87129279085E+02  0.91338204637E+02  0.00000000000E+00 0.  1.
</event>
<event>
 6    1  0.1715574E-005  0.6509834E+02  0.7818608E-02  0.1379136E+00
          2   -1    0    0  502    0  0.00000000000E+00  0.00000000000E+00  0.43845584320E+03  0.43845584320E+03  0.00000000000E+00 0.  1.
          1   -1    0    0  501    0 -0.00000000000E+00 -0.00000000000E+00 -0.13918314221E+03  0.13918314221E+03  0.00000000000E+00 0. -1.
          2    1    1    2  501    0  0.36024384045E+02  0.29747176667E+02  0.33944353846E+03  0.34264349777E+03  0.00000000000E+00 0.  1.
          1    1    1    2  502    0 -0.26498607423E+02 -0.37408850696E+02 -0.86951589659E+02  0.98296374551E+02  0.00000000000E+00 0. -1.
         22    1    1    2    0    0  0.85822015646E+01  0.13840396864E+02  0.88930890566E+02  0.90409701171E+02  0.00000000000E+00 0.  1.
         22    1    1    2    0    0 -0.18107978186E+02 -0.61787228351E+01 -0.42150138377E+02  0.46289411911E+02  0.00000000000E+00 0. -1.
</event>
<event>
 6    1  0.1715574E-005  0.1239483E+03  0.7818608E-02  0.1270804E+00
          2   -1    0    0  502    0  0.00000000000E+00  0.00000000000E+00  0.16922228347E+03  0.16922228347E+03  0.00000000000E+00 0. -1.
          1   -1    0    0  501    0 -0.00000000000E+00 -0.00000000000E+00 -0.95421743299E+02  0.95421743299E+02  0.00000000000E+00 0.  1.
          2    1    1    2  501    0 -0.41548708651E+02  0.50303891754E+02  0.27942008653E+02  0.70975577234E+02  0.00000000000E+00 0. -1.
          1    1    1    2  502    0 -0.16212836373E+02 -0.14061614596E+02 -0.24429806532E+02  0.32517695421E+02  0.00000000000E+00 0.  1.
         22    1    1    2    0    0  0.20794748571E+02 -0.35416187942E+02 -0.32205409978E+02  0.52191152203E+02  0.00000000000E+00 0. -1.
         22    1    1    2    0    0  0.36966796453E+02 -0.82608921710E+00  0.10249374803E+03  0.10895960191E+03  0.00000000000E+00 0. -1.
</event>
<event>
 6    1  0.1715574E-005  0.6527266E+02  0.7818608E-02  0.1453932E+00
          2   -1    0    0  502    0  0.00000000000E+00  0.00000000000E+00  0.12278284631E+03  0.12278284631E+03  0.00000000000E+00 0. -1.
          1   -1    0    0  501    0 -0.00000000000E+00 -0.00000000000E+00 -0.45346769303E+03  0.45346769303E+03  0.00000000000E+00 0.  1.
          2    1    1    2  501    0 -0.35510160863E+02  0.65655282327E+02 -0.59153621449E+02  0.95240424991E+02  0.00000000000E+00 0. -1.
          1    1    1    2  502    0 -0.91115660526E+01 -0.38100375628E+02 -0.33095418616E+03  0.33326465849E+03  0.00000000000E+00 0.  1.
         22    1    1    2    0    0 -0.18571551825E+02 -0.68683857216E+01 -0.30222691782E+02  0.36131542427E+02  0.00000000000E+00 0. -1.
         22    1    1    2    0    0  0.63193278740E+02 -0.20686520977E+02  0.89645652676E+02  0.11161391343E+03  0.00000000000E+00 0. -1.
</event>
<event>
 6    1  0.1715574E-005  0.4937579E+02  0.7818608E-02  0.1558213E+00
          2   -1    0    0  502    0  0.00000000000E+00  0.00000000000E+00  0.19040584793E+03  0.19040584793E+03  0.00000000000E+00 0. -1.
          1   -1    0    0  501    0 -0.00000000000E+00 -0.00000000000E+00 -0.82993599817E+02  0.82993599817E+02  0.00000000000E+00 0. -1.
          2    1    1    2  501    0 -0.31418184124E+02  0.32998811571E+02  0.55919822495E+02  0.72132173173E+02  0.00000000000E+00 0. -1.
          1    1    1    2  502    0 -0.10489533153E+02 -0.53058588639E+02  0.39286157250E+02  0.66847934041E+02  0.00000000000E+00 0. -1.
         22    1    1    2    0    0  0.51758074136E+02  0.15109751281E+02 -0.48619843498E+02  0.72602286492E+02  0.00000000000E+00 0. -1.
         22    1    1    2    0    0 -0.98503568589E+01  0.49500257875E+01  0.60826111864E+02  0.61817054039E+02  0.00000000000E+00 0.  1.
</event>
<event>
 6    1  0.1715574E-005  0.5874039E+02  0.7818608E-02  0.1404360E+00
          2   -1    0    0  502    0  0.00000000000E+00  0.00000000000E+00  0.22397111952E+03  0.22397111952E+03  0.00000000000E+00 0. -1.
          1   -1    0    0  501    0 -0.00000000000E+00 -0.00000000000E+00 -0.44775638393E+02  0.44775638393E+02  0.00000000000E+00 0. -1.
          2    1    1    2  501    0  0.27354659244E+00 -0.28021314663E+02  0.74498368643E+02  0.79594445998E+02  0.00000000000E+00 0. -1.
          1    1    1    2  502    0  0.60136238650E+01  0.23786057279E+02 -0.16321090179E+01  0.24588696035E+02  0.00000000000E+00 0. -1.
         22    1    1    2    0    0 -0.18935344432E+00 -0.27944418558E+02  0.12416425489E+03  0.12727014016E+03  0.00000000000E+00 0. -1.
         22    1    1    2    0    0 -0.60978170132E+01  0.32179675942E+02 -0.17835033383E+02  0.37293475728E+02  0.00000000000E+00 0. -1.
</event>
<event>
 6    1  0.2572927E-005  0.2242983E+03  0.7818608E-02  0.1199973E+00
          2   -1    0    0  502    0  0.00000000000E+00  0.00000000000E+00  0.41737210664E+03  0.41737210664E+03  0.00000000000E+00 0.  1.
          1   -1    0    0  501    0 -0.00000000000E+00 -0.00000000000E+00 -0.38717051156E+03  0.38717051156E+03  0.00000000000E+00 0.  1.
          2    1    1    2  501    0 -0.51540767400E+02  0.21300579789E+03  0.31120895750E+03  0.38062965711E+03  0.00000000000E+00 0.  1.
          1    1    1    2  502    0  0.50983814349E+02 -0.17810038768E+03 -0.15663277690E+03  0.24259621641E+03  0.00000000000E+00 0.  1.
         22    1    1    2    0    0 -0.53433857890E+01  0.10061442012E+02  0.23784328723E+02  0.26371929771E+02  0.00000000000E+00 0. -1.
         22    1    1    2    0    0  0.59003388395E+01 -0.44966852223E+02 -0.14815891425E+03  0.15494481492E+03  0.00000000000E+00 0.  1.
</event>
<event>
 6    1  0.1748050E-005  0.4814370E+02  0.7818608E-02  0.1564111E+00
          2   -1    0    0  502    0  0.00000000000E+00  0.00000000000E+00  0.46096463970E+03  0.46096463970E+03  0.00000000000E+00 0. -1.
          1   -1    0    0  501    0 -0.00000000000E+00 -0.00000000000E+00 -0.15242909719E+03  0.15242909719E+03  0.00000000000E+00 0. -1.
          2    1    1    2  501    0  0.22452897233E+02 -0.28773055958E+02  0.39732787596E+03  0.39900057940E+03  0.00000000000E+00 0. -1.
          1    1    1    2  502    0 -0.19925159960E+02  0.34414987534E+02 -0.81305816087E+02  0.90509883968E+02  0.00000000000E+00 0. -1.
         22    1    1    2    0    0 -0.11034443707E+02 -0.23390814121E+00 -0.64778126328E+02  0.65711637565E+02  0.00000000000E+00 0. -1.
         22    1    1    2    0    0  0.85067064340E+01 -0.54080234349E+01  0.57291608970E+02  0.58171635959E+02  0.00000000000E+00 0.  1.
</event>
<event>
 6    1  0.1715574E-005  0.1441473E+03  0.7818608E-02  0.1244663E+00
          2   -1    0    0  502    0  0.00000000000E+00  0.00000000000E+00  0.50348686075E+02  0.50348686075E+02  0.00000000000E+00 0.  1.
          1   -1    0    0  501    0 -0.00000000000E+00 -0.00000000000E+00 -0.50737120347E+03  0.50737120347E+03  0.00000000000E+00 0. -1.
          2    1    1    2  501    0 -0.30756488463E+02 -0.23804647018E+01 -0.70006666683E+02  0.76502036410E+02  0.00000000000E+00 0.  1.
          1    1    1    2  502    0 -0.14957983887E+02  0.45432784162E+02 -0.32976296260E+03  0.33321388126E+03  0.00000000000E+00 0. -1.
         22    1    1    2    0    0 -0.12058826919E+02  0.12150281029E+02 -0.65474553872E+02  0.67675415333E+02  0.00000000000E+00 0.  1.
         22    1    1    2    0    0  0.57773299269E+02 -0.55202600489E+02  0.82216657584E+01  0.80328556548E+02  0.00000000000E+00 0.  1.
</event>
<event>
 6    1  0.1715574E-005  0.1251442E+03  0.7818608E-02  0.1239143E+00
          2   -1    0    0  502    0  0.00000000000E+00  0.00000000000E+00  0.14688334964E+02  0.14688334964E+02  0.00000000000E+00 0. -1.
          1   -1    0    0  501    0 -0.00000000000E+00 -0.00000000000E+00 -0.98138990448E+03  0.98138990448E+03  0.00000000000E+00 0. -1.
          2    1    1    2  501    0  0.67196201882E+02  0.22093576808E+02 -0.29637034872E+03  0.30469466567E+03  0.00000000000E+00 0. -1.
          1    1    1    2  502    0 -0.24973779658E+02  0.20713216383E+02 -0.13384637453E+03  0.13772283391E+03  0.00000000000E+00 0. -1.
         22    1    1    2    0    0 -0.85482622592E+02 -0.35533752061E+02 -0.34379769018E+03  0.35604322501E+03  0.00000000000E+00 0. -1.
         22    1    1    2    0    0  0.43260200368E+02 -0.72730411297E+01 -0.19268715608E+03  0.19761751486E+03  0.00000000000E+00 0. -1.
</event>
<event>
 6    1  0.1715574E-005  0.5211673E+02  0.7818608E-02  0.1436986E+00
          2   -1    0    0  502    0  0.00000000000E+00  0.00000000000E+00  0.17175927640E+03  0.17175927640E+03  0.00000000000E+00 0. -1.
          1   -1    0    0  501    0 -0.00000000000E+00 -0.00000000000E+00 -0.17522358280E+03  0.17522358280E+03  0.00000000000E+00 0.  1.
          2    1    1    2  501    0 -0.19238478500E+02 -0.18316607563E+02  0.71627336765E+02  0.76394322692E+02  0.00000000000E+00 0. -1.
          1    1    1    2  502    0  0.34307520655E+02  0.19752641242E+02 -0.12454981223E+03  0.13068981802E+03  0.00000000000E+00 0.  1.
         22    1    1    2    0    0 -0.17846989942E+02 -0.13617726029E+02  0.92445635620E+02  0.95132292401E+02  0.00000000000E+00 0. -1.
         22    1    1    2    0    0  0.27779477869E+01  0.12181692350E+02 -0.42987466566E+02  0.44766426083E+02  0.00000000000E+00 0. -1.
</event>
<event>
 6    1  0.1715575E-005  0.1273609E+03  0.7818608E-02  0.1263617E+00
          2   -1    0    0  502    0  0.00000000000E+00  0.00000000000E+00  0.11991397889E+04  0.11991397889E+04  0.00000000000E+00 0. -1.
          1   -1    0    0  501    0 -0.00000000000E+00 -0.00000000000E+00 -0.52083661181E+02  0.52083661181E+02  0.00000000000E+00 0.  1.
          2    1    1    2  501    0  0.78861455657E+01  0.12489478034E+03  0.93317486141E+03  0.94152866096E+03  0.00000000000E+00 0. -1.
          1    1    1    2  502    0 -0.64647035255E+00 -0.79254268393E+02  0.12666473114E+03  0.14941757292E+03  0.00000000000E+00 0.  1.
         22    1    1    2    0    0  0.60361559057E+00  0.20660472424E+02  0.91086168119E+02  0.93401870941E+02  0.00000000000E+00 0. -1.
         22    1    1    2    0    0 -0.78432908037E+01 -0.66300984372E+02 -0.38696329834E+01  0.66875345224E+02  0.00000000000E+00 0.  1.
</event>
<event>
 6    1  0.1715574E-005  0.7397273E+02  0.7818608E-02  0.1365861E+00
          2   -1    0    0  502    0  0.00000000000E+00  0.00000000000E+00  0.67300691246E+03  0.67300691246E+03  0.00000000000E+00 0.  1.
          1   -1    0    0  501    0 -0.00000000000E+00 -0.00000000000E+00 -0.20268708545E+02  0.20268708545E+02  0.00000000000E+00 0.  1.
          2    1    1    2  501    0 -0.30952976568E+02 -0.20077980317E+02  0.19361982626E+03  0.19710365083E+03  0.00000000000E+00 0.  1.
          1    1    1    2  502    0  0.55752288051E+02  0.69291848283E+01  0.93133349484E+02  0.10876650225E+03  0.00000000000E+00 0.  1.
         22    1    1    2    0    0  0.22563709160E+01  0.53812200548E+02  0.74917481610E+02  0.92268484263E+02  0.00000000000E+00 0.  1.
         22    1    1    2    0    0 -0.27055682399E+02 -0.40663405058E+02  0.29106754657E+03  0.29513698366E+03  0.00000000000E+00 0.  1.
</event>
<event>
 6    1  0.1715574E-005  0.4896101E+02  0.7818608E-02  0.1470718E+00
          2   -1    0    0  502    0  0.00000000000E+00  0.00000000000E+00  0.25076795701E+03  0.25076795701E+03  0.00000000000E+00 0. -1.
          1   -1    0    0  501    0 -0.00000000000E+00 -0.00000000000E+00 -0.65004738633E+02  0.65004738633E+02  0.00000000000E+00 0. -1.
          2    1    1    2  501    0  0.28375541963E+02  0.69856421935E+01  0.10979890761E+03  0.11362117184E+03  0.00000000000E+00 0. -1.
          1    1    1    2  502    0 -0.21919513585E+02 -0.34322617161E+02 -0.19635585059E+02  0.45211318551E+02  0.00000000000E+00 0. -1.
         22    1    1    2    0    0  0.20387423556E+02  0.21747881314E+01  0.11398176983E+03  0.11581114193E+03  0.00000000000E+00 0.  1.
         22    1    1    2    0    0 -0.26843451934E+02  0.25162186836E+02 -0.18381873997E+02  0.41129063322E+02  0.00000000000E+00 0. -1.
</event>
<event>
 6    1  0.1715574E-005  0.7101349E+02  0.7818608E-02  0.1376670E+00
          2   -1    0    0  502    0  0.00000000000E+00  0.00000000000E+00  0.10223291286E+04  0.10223291286E+04  0.00000000000E+00 0. -1.
          1   -1    0    0  501    0 -0.00000000000E+00 -0.00000000000E+00 -0.44645238324E+02  0.44645238324E+02  0.00000000000E+00 0. -1.
          2    1    1    2  501    0  0.91123109384E+02  0.55453496409E+02  0.74569330260E+02  0.13015028368E+03  0.00000000000E+00 0. -1.
          1    1    1    2  502    0 -0.11112474530E+03 -0.41551155136E+02  0.47394032592E+03  0.48856385463E+03  0.00000000000E+00 0. -1.
         22    1    1    2    0    0 -0.41437782856E+02 -0.83851246273E+01  0.56777876554E+02  0.70789317195E+02  0.00000000000E+00 0. -1.
         22    1    1    2    0    0  0.61439418772E+02 -0.55172166457E+01  0.37239635754E+03  0.37747091142E+03  0.00000000000E+00 0. -1.
</event>
<event>
 6    1  0.1715574E-005  0.9282519E+02  0.7818608E-02  0.1299240E+00
          2   -1    0    0  502    0  0.00000000000E+00  0.00000000000E+00  0.20575894561E+03  0.20575894561E+03  0.00000000000E+00 0.  1.
          1   -1    0    0  501    0 -0.00000000000E+00 -0.00000000000E+00 -0.12551268268E+03  0.12551268268E+03  0.00000000000E+00 0.  1.
          2    1    1    2  501    0  0.75838395870E+01 -0.20770588643E+02  0.83763459197E+02  0.86632840610E+02  0.00000000000E+00 0.  1.
          1    1    1    2  502    0 -0.40425718802E+01  0.64490616477E+02 -0.68663021445E+02  0.94286756837E+02  0.00000000000E+00 0.  1.
         22    1    1    2    0    0 -0.10909927645E+02  0.20163951287E+02 -0.28609124042E+02  0.36661879809E+02  0.00000000000E+00 0.  1.
         22    1    1    2    0    0  0.73686599384E+01 -0.63883979121E+02  0.93754949228E+02  0.11369015103E+03  0.00000000000E+00 0.  1.
</event>
<event>
 6    1  0.1715574E-005  0.9762253E+02  0.7818608E-02  0.1337367E+00
          2   -1    0    0  502    0  0.00000000000E+00  0.00000000000E+00  0.19012176886E+03  0.19012176886E+03  0.00000000000E+00 0.  1.
          1   -1    0    0  501    0 -0.00000000000E+00 -0.00000000000E+00 -0.85406702517E+02  0.85406702517E+02  0.00000000000E+00 0.  1.
          2    1    1    2  501    0 -0.39338307545E+02 -0.31910526524E+02  0.16067731033E+02  0.53140908198E+02  0.00000000000E+00 0.  1.
          1    1    1    2  502    0  0.43053470007E+02  0.63892346694E+02  0.44857156785E+02  0.89151543793E+02  0.00000000000E+00 0.  1.
         22    1    1    2    0    0 -0.40390459097E+02 -0.42159394224E+02  0.66832379311E+02  0.88743284995E+02  0.00000000000E+00 0.  1.
         22    1    1    2    0    0  0.36675296635E+02  0.10177574054E+02 -0.23042200784E+02  0.44492734394E+02  0.00000000000E+00 0.  1.
</event>
<event>
 6    1  0.1715574E-005  0.6736876E+02  0.7818608E-02  0.1380775E+00
          2   -1    0    0  502    0  0.00000000000E+00  0.00000000000E+00  0.10992480316E+03  0.10992480316E+03  0.00000000000E+00 0.  1.
          1   -1    0    0  501    0 -0.00000000000E+00 -0.00000000000E+00 -0.28195458022E+03  0.28195458022E+03  0.00000000000E+00 0.  1.
          2    1    1    2  501    0 -0.21754229384E+02 -0.20504982766E+02  0.64386015904E+02  0.70987744423E+02  0.00000000000E+00 0.  1.
          1    1    1    2  502    0  0.21569267249E+02  0.10163385661E+02 -0.19046275287E+03  0.19194944107E+03  0.00000000000E+00 0.  1.
         22    1    1    2    0    0 -0.15565370024E+02 -0.19362400244E+02  0.34056908970E+02  0.42155146018E+02  0.00000000000E+00 0.  1.
         22    1    1    2    0    0  0.15750332159E+02  0.29703997349E+02 -0.80009949075E+02  0.86787051872E+02  0.00000000000E+00 0.  1.
</event>
<event>
 6    1  0.1715574E-005  0.2691203E+03  0.7818608E-02  0.1218774E+00
          2   -1    0    0  502    0  0.00000000000E+00  0.00000000000E+00  0.50498173229E+03  0.50498173229E+03  0.00000000000E+00 0. -1.
          1   -1    0    0  501    0 -0.00000000000E+00 -0.00000000000E+00 -0.28141588950E+03  0.28141588950E+03  0.00000000000E+00 0. -1.
          2    1    1    2  501    0 -0.14452205282E+03  0.39749185033E+02  0.23589562559E+03  0.27948768780E+03  0.00000000000E+00 0. -1.
          1    1    1    2  502    0  0.27558892644E+03 -0.26207359505E+02 -0.11408285165E+03  0.29941773346E+03  0.00000000000E+00 0. -1.
         22    1    1    2    0    0 -0.17240428033E+02 -0.33697380936E+01 -0.28957059864E+02  0.33868847183E+02  0.00000000000E+00 0. -1.
         22    1    1    2    0    0 -0.11382644559E+03 -0.10172087434E+02  0.13071012871E+03  0.17362335334E+03  0.00000000000E+00 0. -1.
</event>
<event>
 6    1  0.1715574E-005  0.7251779E+02  0.7818608E-02  0.1370528E+00
          2   -1    0    0  502    0  0.00000000000E+00  0.00000000000E+00  0.24800010028E+03  0.24800010028E+03  0.00000000000E+00 0. -1.
          1   -1    0    0  501    0 -0.00000000000E+00 -0.00000000000E+00 -0.12984955300E+03  0.12984955300E+03  0.00000000000E+00 0.  1.
          2    1    1    2  501    0  0.22251698318E+02 -0.52478500084E+02  0.48390321182E+02  0.74771346338E+02  0.00000000000E+00 0. -1.
          1    1    1    2  502    0  0.40854557592E+02  0.37238872094E+01 -0.81244690067E+02  0.91014624517E+02  0.00000000000E+00 0.  1.
         22    1    1    2    0    0  0.10921672540E+02 -0.39281160109E+01 -0.17280317592E+02  0.20816397444E+02  0.00000000000E+00 0.  1.
         22    1    1    2    0    0 -0.74027928449E+02  0.52682728885E+02  0.16828523376E+03  0.19124728499E+03  0.00000000000E+00 0. -1.
</event>
<event>
 6    1  0.1715574E-005  0.1226344E+03  0.7818608E-02  0.1373021E+00
          2   -1    0    0  502    0  0.00000000000E+00  0.00000000000E+00  0.68756586349E+03  0.68756586349E+03  0.00000000000E+00 0. -1.
          1   -1    0    0  501    0 -0.00000000000E+00 -0.00000000000E+00 -0.50264902550E+02  0.50264902550E+02  0.00000000000E+00 0. -1.
          2    1    1    2  501    0  0.32421848817E+02 -0.53592826214E+02  0.26961229334E+03  0.27679262277E+03  0.00000000000E+00 0. -1.
          1    1    1    2  502    0 -0.75257419942E+02  0.81222914745E+02  0.64368354052E+02  0.12807859360E+03  0.00000000000E+00 0. -1.
         22    1    1    2    0    0 -0.10153550338E+02  0.26684969172E+01 -0.95490062638E+01  0.14191510874E+02  0.00000000000E+00 0.  1.
         22    1    1    2    0    0  0.52989121463E+02 -0.30298585448E+02  0.31286931982E+03  0.31876803879E+03  0.00000000000E+00 0.  1.
</event>
<event>
 6    1  0.1715574E-005  0.1578328E+03  0.7818608E-02  0.1191402E+00
          2   -1    0    0  502    0  0.00000000000E+00  0.00000000000E+00  0.26206346546E+03  0.26206346546E+03  0.00000000000E+00 0.  1.
          1   -1    0    0  501    0 -0.00000000000E+00 -0.00000000000E+00 -0.14332737985E+03  0.14332737985E+03  0.00000000000E+00 0.  1.
          2    1    1    2  501    0  0.62552857146E+02  0.40425821964E+02  0.10225875701E+03  0.12650676031E+03  0.00000000000E+00 0.  1.
          1    1    1    2  502    0 -0.91790517646E+02 -0.86711797017E+02 -0.42223189383E+02  0.13314365397E+03  0.00000000000E+00 0.  1.
         22    1    1    2    0    0  0.28459712500E+02  0.76528377666E+02  0.75440197311E+02  0.11116551261E+03  0.00000000000E+00 0.  1.
         22    1    1    2    0    0  0.77794799988E+00 -0.30242402613E+02 -0.16739679331E+02  0.34574918410E+02  0.00000000000E+00 0.  1.
</event>
<event>
 6    1  0.1715574E-005  0.8613040E+02  0.7818608E-02  0.1314888E+00
          2   -1    0    0  502    0  0.00000000000E+00  0.00000000000E+00  0.33588872861E+02  0.33588872861E+02  0.00000000000E+00 0. -1.
          1   -1    0    0  501    0 -0.00000000000E+00 -0.00000000000E+00 -0.31256127858E+03  0.31256127858E+03  0.00000000000E+00 0. -1.
          2    1    1    2  501    0  0.31468918327E+02 -0.87905795336E+01 -0.11170270671E+03  0.11638325393E+03  0.00000000000E+00 0. -1.
          1    1    1    2  502    0 -0.19510991391E+02 -0.54605665687E+01 -0.11863157244E+01  0.20295416165E+02  0.00000000000E+00 0. -1.
         22    1    1    2    0    0 -0.59513859768E+02 -0.78529961162E+01 -0.37944246824E+02  0.71016441191E+02  0.00000000000E+00 0. -1.
         22    1    1    2    0    0  0.47555932832E+02  0.22104142219E+02 -0.12813913646E+03  0.13845504015E+03  0.00000000000E+00 0. -1.
</event>
<event>
 6    1  0.1715574E-005  0.3891325E+02  0.7818608E-02  0.1543032E+00
          2   -1    0    0  502    0  0.00000000000E+00  0.00000000000E+00  0.77627935863E+02  0.77627935863E+02  0.00000000000E+00 0. -1.
          1   -1    0    0  501    0 -0.00000000000E+00 -0.00000000000E+00 -0.14015717504E+03  0.14015717504E+03  0.00000000000E+00 0. -1.
          2    1    1    2  501    0 -0.42271298848E+01  0.27533785604E+02 -0.24673065741E+02  0.37212069948E+02  0.00000000000E+00 0. -1.
          1    1    1    2  502    0  0.22089676042E+02 -0.20200830707E+02 -0.47424903000E+02  0.56081625987E+02  0.00000000000E+00 0. -1.
         22    1    1    2    0    0  0.93415432186E+01 -0.10310754493E+02 -0.53744833750E+02  0.55516513243E+02  0.00000000000E+00 0. -1.
         22    1    1    2    0    0 -0.27204089376E+02  0.29777995965E+01  0.63313563310E+02  0.68974901727E+02  0.00000000000E+00 0. -1.
</event>
<event>
 6    1  0.1715574E-005  0.1199348E+03  0.7818608E-02  0.1245541E+00
          2   -1    0    0  502    0  0.00000000000E+00  0.00000000000E+00  0.63723699345E+02  0.63723699345E+02  0.00000000000E+00 0.  1.
          1   -1    0    0  501    0 -0.00000000000E+00 -0.00000000000E+00 -0.66773833256E+03  0.66773833256E+03  0.00000000000E+00 0.  1.
          2    1    1    2  501    0 -0.10994969269E+02 -0.19435199450E+02 -0.17598112640E+02  0.28430791325E+02  0.00000000000E+00 0.  1.
          1    1    1    2  502    0  0.23119873594E+02  0.95837047728E+02 -0.53772780251E+03  0.54669045891E+03  0.00000000000E+00 0.  1.
         22    1    1    2    0    0 -0.22625845289E+02 -0.87556065028E+02  0.14264528036E+02  0.91550369515E+02  0.00000000000E+00 0.  1.
         22    1    1    2    0    0  0.10500940964E+02  0.11154216749E+02 -0.62953246103E+02  0.64790412156E+02  0.00000000000E+00 0.  1.
</event>
<event>
 6    1  0.1715574E-005  0.5530534E+02  0.7818608E-02  0.1445343E+00
          2   -1    0    0  502    0  0.00000000000E+00  0.00000000000E+00  0.76199812686E+02  0.76199812686E+02  0.00000000000E+00 0.  1.
          1   -1    0    0  501    0 -0.00000000000E+00 -0.00000000000E+00 -0.19802480807E+03  0.19802480807E+03  0.00000000000E+00 0.  1.
          2    1    1    2  501    0  0.17850513889E+01 -0.27703087208E+02  0.34647919486E+02  0.44397362242E+02  0.00000000000E+00 0.  1.
          1    1    1    2  502    0  0.30644764245E+02  0.27205145660E+02 -0.58531288631E+02  0.71450215359E+02  0.00000000000E+00 0.  1.
         22    1    1    2    0    0 -0.95074068867E+01 -0.28477686778E+02  0.19139638512E+02  0.35604707446E+02  0.00000000000E+00 0.  1.
         22    1    1    2    0    0 -0.22922408747E+02  0.28975628326E+02 -0.11708126475E+03  0.12277233571E+03  0.00000000000E+00 0.  1.
</event>
<event>
 6    1  0.1715574E-005  0.7331232E+02  0.7818608E-02  0.1362475E+00
          2   -1    0    0  502    0  0.00000000000E+00  0.00000000000E+00  0.14963640439E+03  0.14963640439E+03  0.00000000000E+00 0.  1.
          1   -1    0    0  501    0 -0.00000000000E+00 -0.00000000000E+00 -0.19932614533E+03  0.19932614533E+03  0.00000000000E+00 0.  1.
          2    1    1    2  501    0  0.31821030100E+02  0.26516192212E+02  0.10726587406E+03  0.11498545188E+03  0.00000000000E+00 0.  1.
          1    1    1    2  502    0  0.78024537683E+01 -0.19112682482E+02 -0.84728362517E+02  0.87207042900E+02  0.00000000000E+00 0.  1.
         22    1    1    2    0    0  0.40435284076E+01  0.15955144667E+02  0.29414205732E+02  0.33706264435E+02  0.00000000000E+00 0.  1.
         22    1    1    2    0    0 -0.43667012276E+02 -0.23358654397E+02 -0.10164145821E+03  0.11306379051E+03  0.00000000000E+00 0.  1.
</event>
<event>
 6    1  0.1715574E-005  0.9302772E+02  0.7818608E-02  0.1300563E+00
          2   -1    0    0  502    0  0.00000000000E+00  0.00000000000E+00  0.54122790894E+02  0.54122790894E+02  0.00000000000E+00 0.  1.
          1   -1    0    0  501    0 -0.00000000000E+00 -0.00000000000E+00 -0.25227402050E+03  0.25227402050E+03  0.00000000000E+00 0. -1.
          2    1    1    2  501    0 -0.52090018032E+01  0.23890329629E+02  0.18580682209E+01  0.24522111799E+02  0.00000000000E+00 0.  1.
          1    1    1    2  502    0  0.14039795454E+02 -0.51471930800E+02 -0.10808225506E+03  0.12053318786E+03  0.00000000000E+00 0. -1.
         22    1    1    2    0    0 -0.24643138064E+02 -0.30829199217E+02 -0.92776160631E+02  0.10082231776E+03  0.00000000000E+00 0. -1.
         22    1    1    2    0    0  0.15812344413E+02  0.58410800388E+02  0.84911786393E+00  0.60519193972E+02  0.00000000000E+00 0.  1.
</event>
<event>
 6    1  0.1715574E-005  0.9711230E+02  0.7818608E-02  0.1310003E+00
          2   -1    0    0  502    0  0.00000000000E+00  0.00000000000E+00  0.41262302338E+03  0.41262302338E+03  0.00000000000E+00 0.  1.
          1   -1    0    0  501    0 -0.00000000000E+00 -0.00000000000E+00 -0.41549284702E+02  0.41549284702E+02  0.00000000000E+00 0. -1.
          2    1    1    2  501    0  0.72212735954E+02  0.40991575345E+02  0.14994100082E+03  0.17139805194E+03  0.00000000000E+00 0.  1.
          1    1    1    2  502    0 -0.25695728074E+02 -0.31665097136E+02  0.66667530869E+02  0.78150550159E+02  0.00000000000E+00 0. -1.
         22    1    1    2    0    0 -0.28740717957E+02  0.55919760781E+02  0.98444931777E+02  0.11680947353E+03  0.00000000000E+00 0. -1.
         22    1    1    2    0    0 -0.17776289922E+02 -0.65246238989E+02  0.56020275218E+02  0.87814232452E+02  0.00000000000E+00 0.  1.
</event>
<event>
 6    1  0.1715574E-005  0.6132230E+02  0.7818608E-02  0.1393102E+00
          2   -1    0    0  502    0  0.00000000000E+00  0.00000000000E+00  0.33396642439E+03  0.33396642439E+03  0.00000000000E+00 0.  1.
          1   -1    0    0  501    0 -0.00000000000E+00 -0.00000000000E+00 -0.72146363530E+02  0.72146363530E+02  0.00000000000E+00 0. -1.
          2    1    1    2  501    0  0.10252746022E+01  0.44161816670E+02  0.23967423984E+03  0.24371101429E+03  0.00000000000E+00 0.  1.
          1    1    1    2  502    0 -0.41333901139E+01 -0.28917450301E+02 -0.16475209993E+02  0.33537089767E+02  0.00000000000E+00 0. -1.
         22    1    1    2    0    0  0.80396768288E+01  0.14217566184E+02  0.77856851467E+02  0.79551649336E+02  0.00000000000E+00 0.  1.
         22    1    1    2    0    0 -0.49315613172E+01 -0.29461932553E+02 -0.39235820464E+02  0.49313034527E+02  0.00000000000E+00 0. -1.
</event>
<event>
 6    1  0.1715574E-005  0.5283794E+02  0.7818608E-02  0.1454437E+00
          2   -1    0    0  502    0  0.00000000000E+00  0.00000000000E+00  0.11105996622E+03  0.11105996622E+03  0.00000000000E+00 0.  1.
          1   -1    0    0  501    0 -0.00000000000E+00 -0.00000000000E+00 -0.27571169428E+03  0.27571169428E+03  0.00000000000E+00 0. -1.
          2    1    1    2  501    0 -0.18134617926E+02 -0.37211770423E+02  0.48577525469E+02  0.63822850187E+02  0.00000000000E+00 0.  1.
          1    1    1    2  502    0  0.41220627897E+02  0.90536721088E+02 -0.57794796971E+02  0.11504901819E+03  0.00000000000E+00 0. -1.
         22    1    1    2    0    0  0.12194999814E+02 -0.28047630905E+02  0.13535046290E+02  0.33445255238E+02  0.00000000000E+00 0.  1.
         22    1    1    2    0    0 -0.35281009785E+02 -0.25277319760E+02 -0.16896950285E+03  0.17445453688E+03  0.00000000000E+00 0.  1.
</event>
<event>
 6    1  0.1715574E-005  0.3483418E+03  0.7818608E-02  0.1063513E+00
          2   -1    0    0  502    0  0.00000000000E+00  0.00000000000E+00  0.48101099975E+03  0.48101099975E+03  0.00000000000E+00 0.  1.
          1   -1    0    0  501    0 -0.00000000000E+00 -0.00000000000E+00 -0.26140791578E+03  0.26140791578E+03  0.00000000000E+00 0.  1.
          2    1    1    2  501    0  0.17981440953E+03  0.14687583992E+03  0.87872169055E+02  0.24824836821E+03  0.00000000000E+00 0.  1.
          1    1    1    2  502    0 -0.25455910408E+03 -0.17310531296E+03  0.24875122914E+02  0.30884390650E+03  0.00000000000E+00 0.  1.
         22    1    1    2    0    0  0.90924363856E+02  0.60524854063E+02  0.97159033173E+02  0.14618609930E+03  0.00000000000E+00 0. -1.
         22    1    1    2    0    0 -0.16179669302E+02 -0.34295381025E+02  0.96967588294E+01  0.39140541516E+02  0.00000000000E+00 0. -1.
</event>
<event>
 6    1  0.1715574E-005  0.6990965E+02  0.7818608E-02  0.1381997E+00
          2   -1    0    0  502    0  0.00000000000E+00  0.00000000000E+00  0.31787303992E+03  0.31787303992E+03  0.00000000000E+00 0. -1.
          1   -1    0    0  501    0 -0.00000000000E+00 -0.00000000000E+00 -0.53540432051E+02  0.53540432051E+02  0.00000000000E+00 0. -1.
          2    1    1    2  501    0  0.14421594301E+02 -0.18982322320E+02  0.15541354133E+03  0.15723129386E+03  0.00000000000E+00 0. -1.
          1    1    1    2  502    0 -0.25224257625E+02 -0.10135084541E+02 -0.19043752729E+02  0.33191077557E+02  0.00000000000E+00 0. -1.
         22    1    1    2    0    0  0.32436943558E+02  0.28166960630E+02  0.14638598041E+03  0.15255945805E+03  0.00000000000E+00 0. -1.
         22    1    1    2    0    0 -0.21634280234E+02  0.95044623092E+00 -0.18423161137E+02  0.28431642506E+02  0.00000000000E+00 0. -1.
</event>
<event>
 6    1  0.1715574E-005  0.1001015E+03  0.7818608E-02  0.1324630E+00
          2   -1    0    0  502    0  0.00000000000E+00  0.00000000000E+00  0.18641606498E+03  0.18641606498E+03  0.00000000000E+00 0.  1.
          1   -1    0    0  501    0 -0.00000000000E+00 -0.00000000000E+00 -0.53964061969E+03  0.53964061969E+03  0.00000000000E+00 0.  1.
          2    1    1    2  501    0  0.11807455946E+03 -0.88420702629E+02  0.11600544905E+03  0.18766216042E+03  0.00000000000E+00 0.  1.
          1    1    1    2  502    0 -0.28945110682E+02  0.10125588339E+03 -0.21877881421E+03  0.24280597789E+03  0.00000000000E+00 0.  1.
         22    1    1    2    0    0 -0.19120354315E+02 -0.25080367117E+02  0.36380502441E+01  0.31746624599E+02  0.00000000000E+00 0.  1.
         22    1    1    2    0    0 -0.70009094462E+02  0.12245186359E+02 -0.25408923980E+03  0.26384192176E+03  0.00000000000E+00 0. -1.
</event>
<event>
 6    1  0.1715574E-005  0.2503525E+03  0.7818608E-02  0.1134492E+00
          2   -1    0    0  502    0  0.00000000000E+00  0.00000000000E+00  0.13922538210E+03  0.13922538210E+03  0.00000000000E+00 0. -1.
          1   -1    0    0  501    0 -0.00000000000E+00 -0.00000000000E+00 -0.28388617746E+03  0.28388617746E+03  0.00000000000E+00 0. -1.
          2    1    1    2  501    0 -0.56986696298E+02  0.37527420713E+02 -0.11958154652E+02  0.69273287226E+02  0.00000000000E+00 0. -1.
          1    1    1    2  502    0  0.15956243321E+03 -0.16276252861E+02 -0.91782699643E+02  0.18479488752E+03  0.00000000000E+00 0. -1.
         22    1    1    2    0    0 -0.42350296505E+02 -0.67131799137E+02  0.66115949066E+01  0.79648849688E+02  0.00000000000E+00 0. -1.
         22    1    1    2    0    0 -0.60225440405E+02  0.45880631285E+02 -0.47531535968E+02  0.89394535127E+02  0.00000000000E+00 0. -1.
</event>
<event>
 6    1  0.3481463E-005  0.2059636E+03  0.7818608E-02  0.1144921E+00
          2   -1    0    0  502    0  0.00000000000E+00  0.00000000000E+00  0.51301697548E+03  0.51301697548E+03  0.00000000000E+00 0. -1.
          1   -1    0    0  501    0 -0.00000000000E+00 -0.00000000000E+00 -0.88358645519E+03  0.88358645519E+03  0.00000000000E+00 0.  1.
          2    1    1    2  501    0  0.31299635445E+02 -0.18940858385E+03  0.42930933890E+03  0.47027841465E+03  0.00000000000E+00 0. -1.
          1    1    1    2  502    0 -0.29690523559E+02  0.17372975818E+03 -0.78223978918E+03  0.80184951446E+03  0.00000000000E+00 0.  1.
         22    1    1    2    0    0 -0.45350854543E+01  0.26107964408E+02 -0.67990602805E+02  0.72972014330E+02  0.00000000000E+00 0. -1.
         22    1    1    2    0    0  0.29259735684E+01 -0.10429138735E+02  0.50351573376E+02  0.51503487236E+02  0.00000000000E+00 0.  1.
</event>
<event>
 6    1  0.1715574E-005  0.1575742E+03  0.7818608E-02  0.1197765E+00
          2   -1    0    0  502    0  0.00000000000E+00  0.00000000000E+00  0.12255484048E+03  0.12255484048E+03  0.00000000000E+00 0. -1.
          1   -1    0    0  501    0 -0.00000000000E+00 -0.00000000000E+00 -0.26862236544E+03  0.26862236544E+03  0.00000000000E+00 0. -1.
          2    1    1    2  501    0 -0.53214964179E+01 -0.40052423454E+02  0.38076460885E+02  0.55518751987E+02  0.00000000000E+00 0. -1.
          1    1    1    2  502    0  0.10878698599E+03  0.18566399382E+02 -0.11404332340E+03  0.15869845342E+03  0.00000000000E+00 0. -1.
         22    1    1    2    0    0 -0.10597857246E+03  0.10061330633E+02 -0.57452879479E+00  0.10645664976E+03  0.00000000000E+00 0. -1.
         22    1    1    2    0    0  0.25130828830E+01  0.11424693440E+02 -0.69526133652E+02  0.70503350746E+02  0.00000000000E+00 0. -1.
</event>
<event>
 6    1  0.1806012E-005  0.7109421E+02  0.7818608E-02  0.1356909E+00
          2   -1    0    0  502    0  0.00000000000E+00  0.00000000000E+00  0.27803247571E+03  0.27803247571E+03  0.00000000000E+00 0.  1.
          1   -1    0    0  501    0 -0.00000000000E+00 -0.00000000000E+00 -0.23239985436E+03  0.23239985436E+03  0.00000000000E+00 0.  1.
          2    1    1    2  501    0 -0.55703474044E+02 -0.85969055216E+01  0.20510845059E+03  0.21271168353E+03  0.00000000000E+00 0.  1.
          1    1    1    2  502    0  0.55254595116E+02  0.66928418924E+01 -0.16346097022E+03  0.17267701990E+03  0.00000000000E+00 0.  1.
         22    1    1    2    0    0 -0.12938078419E+02  0.67104966658E+01  0.62832987753E+02  0.64501232458E+02  0.00000000000E+00 0.  1.
         22    1    1    2    0    0  0.13386957347E+02 -0.48064330366E+01 -0.58847846769E+02  0.60542394195E+02  0.00000000000E+00 0.  1.
</event>
<event>
 6    1  0.1715574E-005  0.3768750E+02  0.7818608E-02  0.1547044E+00
          2   -1    0    0  502    0  0.00000000000E+00  0.00000000000E+00  0.62214085688E+02  0.62214085688E+02  0.00000000000E+00 0.  1.
          1   -1    0    0  501    0 -0.00000000000E+00 -0.00000000000E+00 -0.57256469979E+03  0.57256469979E+03  0.00000000000E+00 0.  1.
          2    1    1    2  501    0  0.51589702437E+02 -0.15858831527E+02 -0.22707560072E+01  0.54019961752E+02  0.00000000000E+00 0.  1.
          1    1    1    2  502    0 -0.28182883809E+02  0.39491569205E+02 -0.42954326010E+03  0.43227453231E+03  0.00000000000E+00 0.  1.
         22    1    1    2    0    0 -0.50827326459E+01 -0.23566844351E+02  0.29957498302E+02  0.38453634787E+02  0.00000000000E+00 0.  1.
         22    1    1    2    0    0 -0.18324085982E+02 -0.65893327453E-01 -0.10849409629E+03  0.11003065663E+03  0.00000000000E+00 0. -1.
</event>
<event>
 6    1  0.1715574E-005  0.7549001E+02  0.7818608E-02  0.1466743E+00
          2   -1    0    0  502    0  0.00000000000E+00  0.00000000000E+00  0.15020231772E+03  0.15020231772E+03  0.00000000000E+00 0.  1.
          1   -1    0    0  501    0 -0.00000000000E+00 -0.00000000000E+00 -0.20347423073E+03  0.20347423073E+03  0.00000000000E+00 0.  1.
          2    1    1    2  501    0 -0.63019626486E+02  0.12808606337E+02  0.96951629864E+02  0.11634067325E+03  0.00000000000E+00 0.  1.
          1    1    1    2  502    0  0.45777667493E+02 -0.46169763619E+01 -0.83203133091E+02  0.95077193206E+02  0.00000000000E+00 0.  1.
         22    1    1    2    0    0 -0.79696629304E+01 -0.70300216251E+01  0.35303422063E+02  0.36868256545E+02  0.00000000000E+00 0.  1.
         22    1    1    2    0    0  0.25211621923E+02 -0.11616083502E+01 -0.10232383184E+03  0.10539042545E+03  0.00000000000E+00 0.  1.
</event>
<event>
 6    1  0.1715574E-005  0.7367312E+02  0.7818608E-02  0.1350898E+00
          2   -1    0    0  502    0  0.00000000000E+00  0.00000000000E+00  0.20553415815E+03  0.20553415815E+03  0.00000000000E+00 0. -1.
          1   -1    0    0  501    0 -0.00000000000E+00 -0.00000000000E+00 -0.26058605934E+03  0.26058605934E+03  0.00000000000E+00 0.  1.
          2    1    1    2  501    0 -0.49868498209E+02  0.15896827720E+02  0.13247640916E+03  0.14244148002E+03  0.00000000000E+00 0. -1.
          1    1    1    2  502    0  0.42133596325E+02 -0.19374396857E+02 -0.19092344418E+03  0.19647485521E+03  0.00000000000E+00 0.  1.
         22    1    1    2    0    0 -0.17059172059E+02  0.91055808711E+00  0.61579342269E+02  0.63905084788E+02  0.00000000000E+00 0.  1.
         22    1    1    2    0    0  0.24794073944E+02  0.25670110497E+01 -0.58184208447E+02  0.63298797469E+02  0.00000000000E+00 0.  1.
</event>
<event>
 6    1  0.1715574E-005  0.7463188E+02  0.7818608E-02  0.1355408E+00
          2   -1    0    0  502    0  0.00000000000E+00  0.00000000000E+00  0.94152836856E+02  0.94152836856E+02  0.00000000000E+00 0. -1.
          1   -1    0    0  501    0 -0.00000000000E+00 -0.00000000000E+00 -0.28632886310E+03  0.28632886310E+03  0.00000000000E+00 0.  1.
          2    1    1    2  501    0 -0.89127845214E+01  0.66781298545E+02  0.32781940916E+02  0.74925531119E+02  0.00000000000E+00 0. -1.
          1    1    1    2  502    0  0.50518959406E+02 -0.41347357050E+02 -0.42306009375E+02  0.77791822345E+02  0.00000000000E+00 0.  1.
         22    1    1    2    0    0 -0.51414609993E+02 -0.35548518983E+02 -0.19758332221E+03  0.20723495974E+03  0.00000000000E+00 0.  1.
         22    1    1    2    0    0  0.98084351084E+01  0.10114577488E+02  0.14931364423E+02  0.20529386756E+02  0.00000000000E+00 0. -1.
</event>
<event>
 6    1  0.1715574E-005  0.1215766E+03  0.7818608E-02  0.1272669E+00
          2   -1    0    0  502    0  0.00000000000E+00  0.00000000000E+00  0.19658702342E+03  0.19658702342E+03  0.00000000000E+00 0. -1.
          1   -1    0    0  501    0 -0.00000000000E+00 -0.00000000000E+00 -0.39395146088E+03  0.39395146088E+03  0.00000000000E+00 0.  1.
          2    1    1    2  501    0 -0.39836872267E+01 -0.31367986168E+02  0.95915690729E+02  0.10099326734E+03  0.00000000000E+00 0. -1.
          1    1    1    2  502    0  0.66993777929E+02  0.29735228397E+02 -0.33420228769E+03  0.34214546495E+03  0.00000000000E+00 0.  1.
         22    1    1    2    0    0 -0.31367000089E+02 -0.89680194528E+01  0.85616333388E+02  0.91621343639E+02  0.00000000000E+00 0. -1.
         22    1    1    2    0    0 -0.31643090613E+02  0.10600777224E+02 -0.44694173881E+02  0.55778408370E+02  0.00000000000E+00 0. -1.
</event>
<event>
 6    1  0.1715574E-005  0.1211589E+03  0.7818608E-02  0.1275161E+00
          2   -1    0    0  502    0  0.00000000000E+00  0.00000000000E+00  0.73858767042E+02  0.73858767042E+02  0.00000000000E+00 0.  1.
          1   -1    0    0  501    0 -0.00000000000E+00 -0.00000000000E+00 -0.21676139893E+03  0.21676139893E+03  0.00000000000E+00 0.  1.
          2    1    1    2  501    0 -0.31128451675E+01 -0.20272094340E+02 -0.45059116543E+02  0.49507288329E+02  0.00000000000E+00 0.  1.
          1    1    1    2  502    0  0.26869375738E+02  0.37755292132E+02 -0.99703049658E+02  0.10994600287E+03  0.00000000000E+00 0.  1.
         22    1    1    2    0    0  0.62566257543E+01  0.11965115720E+02 -0.57142071710E+02  0.58715634369E+02  0.00000000000E+00 0.  1.
         22    1    1    2    0    0 -0.30013156325E+02 -0.29448313512E+02  0.59001606028E+02  0.72451240398E+02  0.00000000000E+00 0.  1.
</event>
<event>
 6    1  0.1715574E-005  0.1268177E+03  0.7818608E-02  0.1251159E+00
          2   -1    0    0  502    0  0.00000000000E+00  0.00000000000E+00  0.14068075147E+03  0.14068075147E+03  0.00000000000E+00 0.  1.
          1   -1    0    0  501    0 -0.00000000000E+00 -0.00000000000E+00 -0.29170501071E+03  0.29170501071E+03  0.00000000000E+00 0. -1.
          2    1    1    2  501    0 -0.55861660859E+02  0.22753622022E+02  0.96359250499E+02  0.11368094663E+03  0.00000000000E+00 0.  1.
          1    1    1    2  502    0  0.46111315328E+02  0.27651024729E+02 -0.12870404422E+03  0.13948320174E+03  0.00000000000E+00 0. -1.
         22    1    1    2    0    0  0.24250596258E+02 -0.68026003037E+02 -0.13366030425E+03  0.15192335384E+03  0.00000000000E+00 0. -1.
         22    1    1    2    0    0 -0.14500250728E+02  0.17621356286E+02  0.14980838735E+02  0.27298259976E+02  0.00000000000E+00 0.  1.
</event>
<event>
 6    1  0.1715574E-005  0.5603762E+02  0.7818608E-02  0.1417184E+00
          2   -1    0    0  502    0  0.00000000000E+00  0.00000000000E+00  0.19382066357E+03  0.19382066357E+03  0.00000000000E+00 0.  1.
          1   -1    0    0  501    0 -0.00000000000E+00 -0.00000000000E+00 -0.13977698638E+03  0.13977698638E+03  0.00000000000E+00 0. -1.
          2    1    1    2  501    0  0.17729167628E+02  0.93317121426E+01  0.34028252226E+02  0.39488304418E+02  0.00000000000E+00 0.  1.
          1    1    1    2  502    0 -0.21284411571E+02  0.14307548619E+02 -0.11061015070E+03  0.11354442990E+03  0.00000000000E+00 0. -1.
         22    1    1    2    0    0  0.22090374038E+02 -0.15492442970E+02  0.15008025789E+03  0.15248634110E+03  0.00000000000E+00 0.  1.
         22    1    1    2    0    0 -0.18535130095E+02 -0.81468177908E+01 -0.19454682224E+02  0.28078574540E+02  0.00000000000E+00 0. -1.
</event>
<event>
 6    1  0.1715574E-005  0.1009108E+03  0.7818608E-02  0.1363393E+00
          2   -1    0    0  502    0  0.00000000000E+00  0.00000000000E+00  0.19433187667E+03  0.19433187667E+03  0.00000000000E+00 0.  1.
          1   -1    0    0  501    0 -0.00000000000E+00 -0.00000000000E+00 -0.19567692085E+03  0.19567692085E+03  0.00000000000E+00 0. -1.
          2    1    1    2  501    0 -0.19661199299E+01  0.43674524552E+02  0.61294186098E+02  0.75288159573E+02  0.00000000000E+00 0.  1.
          1    1    1    2  502    0 -0.19764043559E+02 -0.81408995949E+02 -0.14097277992E+03  0.16398587353E+03  0.00000000000E+00 0. -1.
         22    1    1    2    0    0  0.43827776001E+02  0.37040855172E+02  0.10281701642E+03  0.11774649790E+03  0.00000000000E+00 0.  1.
         22    1    1    2    0    0 -0.22097612511E+02  0.69361622359E+00 -0.24483466776E+02  0.32988266513E+02  0.00000000000E+00 0.  1.
</event>
<event>
 6    1  0.1715574E-005  0.3252234E+03  0.7818608E-02  0.1192110E+00
          2   -1    0    0  502    0  0.00000000000E+00  0.00000000000E+00  0.19772491405E+03  0.19772491405E+03  0.00000000000E+00 0. -1.
          1   -1    0    0  501    0 -0.00000000000E+00 -0.00000000000E+00 -0.80531048475E+03  0.80531048475E+03  0.00000000000E+00 0. -1.
          2    1    1    2  501    0 -0.56925591131E+01 -0.77883627869E+02  0.16204431659E+02  0.79754926649E+02  0.00000000000E+00 0. -1.
          1    1    1    2  502    0  0.91848830975E+02  0.30795675732E+03 -0.55151001385E+03  0.63830781564E+03  0.00000000000E+00 0. -1.
         22    1    1    2    0    0  0.14794575098E+02 -0.96592146490E+01 -0.35650778325E+02  0.39788916486E+02  0.00000000000E+00 0.  1.
         22    1    1    2    0    0 -0.10095084696E+03 -0.22041391480E+03 -0.36629210184E+02  0.24518374004E+03  0.00000000000E+00 0. -1.
</event>
<event>
 6    1  0.1715574E-005  0.6548287E+02  0.7818608E-02  0.1432651E+00
          2   -1    0    0  502    0  0.00000000000E+00  0.00000000000E+00  0.63001244795E+03  0.63001244795E+03  0.00000000000E+00 0. -1.
          1   -1    0    0  501    0 -0.00000000000E+00 -0.00000000000E+00 -0.26038389567E+02  0.26038389567E+02  0.00000000000E+00 0. -1.
          2    1    1    2  501    0 -0.39814145793E+02  0.51268711187E+02  0.21810990614E+03  0.22756444826E+03  0.00000000000E+00 0. -1.
          1    1    1    2  502    0  0.82663047586E+01  0.30283261476E+02  0.44690504453E+02  0.54613632989E+02  0.00000000000E+00 0. -1.
         22    1    1    2    0    0  0.72213074820E+01 -0.70036545289E+02  0.33969808058E+03  0.34691793109E+03  0.00000000000E+00 0. -1.
         22    1    1    2    0    0  0.24326533552E+02 -0.11515427375E+02  0.14755672061E+01  0.26954825187E+02  0.00000000000E+00 0. -1.
</event>
<event>
 6    1  0.1715574E-005  0.4300017E+02  0.7818608E-02  0.1563677E+00
          2   -1    0    0  502    0  0.00000000000E+00  0.00000000000E+00  0.83632342877E+02  0.83632342877E+02  0.00000000000E+00 0. -1.
          1   -1    0    0  501    0 -0.00000000000E+00 -0.00000000000E+00 -0.17399831972E+03  0.17399831972E+03  0.00000000000E+00 0. -1.
          2    1    1    2  501    0  0.10393875049E+02  0.42359682822E+02  0.85346436685E+01  0.44443396696E+02  0.00000000000E+00 0. -1.
          1    1    1    2  502    0  0.22673195173E+02 -0.45047003188E+02 -0.32891751789E+00  0.50432275998E+02  0.00000000000E+00 0. -1.
         22    1    1    2    0    0  0.82398920402E+01  0.12705350253E+02  0.26575222810E+02  0.30586994185E+02  0.00000000000E+00 0.  1.
         22    1    1    2    0    0 -0.41306962263E+02 -0.10018029887E+02 -0.12514692580E+03  0.13216799572E+03  0.00000000000E+00 0. -1.
</event>
<event>
 6    1  0.1760181E-005  0.5363271E+02  0.7818608E-02  0.1488100E+00
          2   -1    0    0  502    0  0.00000000000E+00  0.00000000000E+00  0.43079953492E+03  0.43079953492E+03  0.00000000000E+00 0. -1.
          1   -1    0    0  501    0 -0.00000000000E+00 -0.00000000000E+00 -0.74479723045E+02  0.74479723045E+02  0.00000000000E+00 0.  1.
          2    1    1    2  501    0 -0.67719538888E+02 -0.44266851779E+02  0.20322265565E+03  0.21873485749E+03  0.00000000000E+00 0. -1.
          1    1    1    2  502    0  0.68602830544E+02  0.62693276045E+02  0.11605920103E+02  0.93656246996E+02  0.00000000000E+00 0.  1.
         22    1    1    2    0    0  0.46004152044E+01  0.11307599454E+02 -0.22786833663E+02  0.25850830042E+02  0.00000000000E+00 0.  1.
         22    1    1    2    0    0 -0.54837068597E+01 -0.29734023720E+02  0.16427806978E+03  0.16703732343E+03  0.00000000000E+00 0. -1.
</event>
<event>
 6    1  0.1715574E-005  0.1190558E+03  0.7818608E-02  0.1245622E+00
          2   -1    0    0  502    0  0.00000000000E+00  0.00000000000E+00  0.86642471733E+02  0.86642471733E+02  0.00000000000E+00 0. -1.
          1   -1    0    0  501    0 -0.00000000000E+00 -0.00000000000E+00 -0.52684592925E+03  0.52684592925E+03  0.00000000000E+00 0.  1.
          2    1    1    2  501    0 -0.63322365796E+02  0.42847286250E+01  0.30106534967E+02  0.70245884983E+02  0.00000000000E+00 0. -1.
          1    1    1    2  502    0  0.95355673453E+02  0.15686508562E+02 -0.36868949205E+03  0.38114395254E+03  0.00000000000E+00 0.  1.
         22    1    1    2    0    0  0.18795628126E+02 -0.28555633869E+01 -0.10655601123E+03  0.10823868721E+03  0.00000000000E+00 0.  1.
         22    1    1    2    0    0 -0.50828935784E+02 -0.17115673800E+02  0.49355108008E+01  0.53859876247E+02  0.00000000000E+00 0. -1.
</event>
<event>
 6    1  0.1715574E-005  0.1941721E+03  0.7818608E-02  0.1169497E+00
          2   -1    0    0  502    0  0.00000000000E+00  0.00000000000E+00  0.11189517277E+03  0.11189517277E+03  0.00000000000E+00 0.  1.
          1   -1    0    0  501    0 -0.00000000000E+00 -0.00000000000E+00 -0.56943813980E+03  0.56943813980E+03  0.00000000000E+00 0.  1.
          2    1    1    2  501    0  0.80407155375E+01 -0.11530464243E+03  0.52990599110E+02  0.12715273205E+03  0.00000000000E+00 0.  1.
          1    1    1    2  502    0  0.72750833174E+01  0.82371798157E+02 -0.21424423651E+03  0.22964893391E+03  0.00000000000E+00 0.  1.
         22    1    1    2    0    0 -0.51237623369E+02  0.91721381926E+00 -0.43546353991E+02  0.67248942561E+02  0.00000000000E+00 0.  1.
         22    1    1    2    0    0  0.35921824514E+02  0.32015630457E+02 -0.25274297563E+03  0.25728270405E+03  0.00000000000E+00 0.  1.
</event>
<event>
 6    1  0.1715574E-005  0.7843948E+02  0.7818608E-02  0.1361482E+00
          2   -1    0    0  502    0  0.00000000000E+00  0.00000000000E+00  0.20673181341E+03  0.20673181341E+03  0.00000000000E+00 0. -1.
          1   -1    0    0  501    0 -0.00000000000E+00 -0.00000000000E+00 -0.70081456319E+02  0.70081456319E+02  0.00000000000E+00 0. -1.
          2    1    1    2  501    0  0.10841000081E+02 -0.32423065423E+02  0.45847718983E+02  0.57190871563E+02  0.00000000000E+00 0. -1.
          1    1    1    2  502    0 -0.26078412850E+02  0.16308995336E+02 -0.31172920734E+02  0.43792898199E+02  0.00000000000E+00 0. -1.
         22    1    1    2    0    0 -0.17469088307E+02  0.30786730673E+01 -0.21628584174E+02  0.27972181315E+02  0.00000000000E+00 0. -1.
         22    1    1    2    0    0  0.32706501076E+02  0.13035397020E+02  0.14360414302E+03  0.14785731865E+03  0.00000000000E+00 0. -1.
</event>
<event>
 6    1  0.1715574E-005  0.9326688E+02  0.7818608E-02  0.1331277E+00
          2   -1    0    0  502    0  0.00000000000E+00  0.00000000000E+00  0.12594481724E+03  0.12594481724E+03  0.00000000000E+00 0.  1.
          1   -1    0    0  501    0 -0.00000000000E+00 -0.00000000000E+00 -0.94059412063E+02  0.94059412063E+02  0.00000000000E+00 0.  1.
          2    1    1    2  501    0 -0.22869496704E+02  0.98795609269E+00  0.34116627105E+02  0.41084476165E+02  0.00000000000E+00 0.  1.
          1    1    1    2  502    0 -0.19764207835E+02 -0.91752140742E+01 -0.36309378751E+02  0.42345949629E+02  0.00000000000E+00 0.  1.
         22    1    1    2    0    0 -0.17239289515E+02 -0.17240392279E+02  0.61367048491E+02  0.66032862041E+02  0.00000000000E+00 0.  1.
         22    1    1    2    0    0  0.59872994054E+02  0.25427650260E+02 -0.27288891667E+02  0.70540941468E+02  0.00000000000E+00 0.  1.
</event>
<event>
 6    1  0.1715574E-005  0.1508873E+03  0.7818608E-02  0.1200626E+00
          2   -1    0    0  502    0  0.00000000000E+00  0.00000000000E+00  0.78673367827E+03  0.78673367827E+03  0.00000000000E+00 0. -1.
          1   -1    0    0  501    0 -0.00000000000E+00 -0.00000000000E+00 -0.85425184554E+02  0.85425184554E+02  0.00000000000E+00 0.  1.
          2    1    1    2  501    0  0.10491764231E+03  0.79809649692E+02  0.61050249013E+03  0.62457231952E+03  0.00000000000E+00 0. -1.
          1    1    1    2  502    0 -0.50382714702E+02 -0.65518466235E+02  0.20625113404E+01  0.82676122983E+02  0.00000000000E+00 0.  1.
         22    1    1    2    0    0 -0.54271136479E+02 -0.33244525719E+02 -0.99465497050E+01  0.64416524247E+02  0.00000000000E+00 0. -1.
         22    1    1    2    0    0 -0.26379112578E+00  0.18953342262E+02  0.98690041951E+02  0.10049389608E+03  0.00000000000E+00 0.  1.
</event>
<event>
 6    1  0.1715574E-005  0.1495066E+03  0.7818608E-02  0.1297066E+00
          2   -1    0    0  502    0  0.00000000000E+00  0.00000000000E+00  0.10374771034E+04  0.10374771034E+04  0.00000000000E+00 0.  1.
          1   -1    0    0  501    0 -0.00000000000E+00 -0.00000000000E+00 -0.31691528355E+03  0.31691528355E+03  0.00000000000E+00 0. -1.
          2    1    1    2  501    0  0.11748878514E+03 -0.26344214928E+02  0.97105567648E+03  0.97849208434E+03  0.00000000000E+00 0.  1.
          1    1    1    2  502    0 -0.89132283901E+02  0.39491705209E+02 -0.22062161330E+03  0.24120127501E+03  0.00000000000E+00 0. -1.
         22    1    1    2    0    0  0.20971673216E+02 -0.61080387912E+01  0.41943348405E+02  0.47290207134E+02  0.00000000000E+00 0. -1.
         22    1    1    2    0    0 -0.49328174458E+02 -0.70394514895E+01 -0.71815591752E+02  0.87408820443E+02  0.00000000000E+00 0. -1.
</event>
<event>
 6    1  0.1715574E-005  0.1130742E+03  0.7818608E-02  0.1255604E+00
          2   -1    0    0  502    0  0.00000000000E+00  0.00000000000E+00  0.15376552098E+03  0.15376552098E+03  0.00000000000E+00 0. -1.
          1   -1    0    0  501    0 -0.00000000000E+00 -0.00000000000E+00 -0.23063975537E+03  0.23063975537E+03  0.00000000000E+00 0.  1.
          2    1    1    2  501    0  0.55701526290E+01  0.93106524532E+02  0.80891960262E+02  0.12346400587E+03  0.00000000000E+00 0. -1.
          1    1    1    2  502    0 -0.19549753097E+01 -0.66330596059E+02 -0.93366715329E+02  0.11454655575E+03  0.00000000000E+00 0.  1.
         22    1    1    2    0    0  0.49782694159E+01  0.15215967585E+02  0.34813852975E+02  0.38318575063E+02  0.00000000000E+00 0.  1.
         22    1    1    2    0    0 -0.85934467352E+01 -0.41991896057E+02 -0.99213332295E+02  0.10807613967E+03  0.00000000000E+00 0.  1.
</event>
<event>
 6    1  0.1715574E-005  0.5191542E+02  0.7818608E-02  0.1490006E+00
          2   -1    0    0  502    0  0.00000000000E+00  0.00000000000E+00  0.23590112561E+03  0.23590112561E+03  0.00000000000E+00 0. -1.
          1   -1    0    0  501    0 -0.00000000000E+00 -0.00000000000E+00 -0.12715493636E+03  0.12715493636E+03  0.00000000000E+00 0. -1.
          2    1    1    2  501    0  0.35742175422E+02  0.19137197342E+02  0.18520856237E+03  0.18959416394E+03  0.00000000000E+00 0. -1.
          1    1    1    2  502    0 -0.24973885776E+02 -0.15910625429E+02 -0.34815440879E+02  0.45705118925E+02  0.00000000000E+00 0. -1.
         22    1    1    2    0    0  0.12446526124E+02  0.44906462661E+00  0.40469594284E+02  0.42342717592E+02  0.00000000000E+00 0. -1.
         22    1    1    2    0    0 -0.23214815770E+02 -0.36756365405E+01 -0.82116526520E+02  0.85414061506E+02  0.00000000000E+00 0. -1.
</event>
<event>
 6    1  0.1715574E-005  0.8192247E+02  0.7818608E-02  0.1360820E+00
          2   -1    0    0  502    0  0.00000000000E+00  0.00000000000E+00  0.63841329069E+02  0.63841329069E+02  0.00000000000E+00 0. -1.
          1   -1    0    0  501    0 -0.00000000000E+00 -0.00000000000E+00 -0.32180148368E+03  0.32180148368E+03  0.00000000000E+00 0. -1.
          2    1    1    2  501    0  0.45621523943E+00 -0.76246191094E+02 -0.90987972165E+01  0.76788527135E+02  0.00000000000E+00 0. -1.
          1    1    1    2  502    0  0.49560485760E+01  0.51317061040E+02 -0.53604500151E+02  0.74373688948E+02  0.00000000000E+00 0. -1.
         22    1    1    2    0    0  0.10096139621E+00  0.43139733400E+02 -0.20744604121E+03  0.21188418253E+03  0.00000000000E+00 0. -1.
         22    1    1    2    0    0 -0.55132252117E+01 -0.18210603345E+02  0.12189183964E+02  0.22596414143E+02  0.00000000000E+00 0.  1.
</event>
<event>
 6    1  0.1715574E-005  0.8033295E+02  0.7818608E-02  0.1379264E+00
          2   -1    0    0  502    0  0.00000000000E+00  0.00000000000E+00  0.33174482950E+03  0.33174482950E+03  0.00000000000E+00 0. -1.
          1   -1    0    0  501    0 -0.00000000000E+00 -0.00000000000E+00 -0.44262821509E+03  0.44262821509E+03  0.00000000000E+00 0. -1.
          2    1    1    2  501    0 -0.83286281086E+02  0.85666988077E+02  0.24198482200E+03  0.26987421430E+03  0.00000000000E+00 0. -1.
          1    1    1    2  502    0  0.63163672808E+01 -0.11206037666E+03 -0.33366063219E+03  0.35203244451E+03  0.00000000000E+00 0. -1.
         22    1    1    2    0    0  0.54086090377E+02  0.18189005752E+02 -0.73458498581E+02  0.93017719367E+02  0.00000000000E+00 0.  1.
         22    1    1    2    0    0  0.22883823428E+02  0.82043828277E+01  0.54250923179E+02  0.59448666411E+02  0.00000000000E+00 0.  1.
</event>
<event>
 6    1  0.1715574E-005  0.3153406E+03  0.7818608E-02  0.1082127E+00
          2   -1    0    0  502    0  0.00000000000E+00  0.00000000000E+00  0.18862609756E+04  0.18862609756E+04  0.00000000000E+00 0.  1.
          1   -1    0    0  501    0 -0.00000000000E+00 -0.00000000000E+00 -0.15053386130E+03  0.15053386130E+03  0.00000000000E+00 0. -1.
          2    1    1    2  501    0 -0.26301538527E+03  0.36445218884E+02  0.16384806305E+04  0.16598566575E+04  0.00000000000E+00 0.  1.
          1    1    1    2  502    0  0.16105632502E+03  0.50722359536E+02 -0.59604997228E+00  0.16885571610E+03  0.00000000000E+00 0. -1.
         22    1    1    2    0    0 -0.13851811481E+02 -0.26087499049E+01  0.57381957462E+02  0.59087793151E+02  0.00000000000E+00 0. -1.
         22    1    1    2    0    0  0.11581087174E+03 -0.84558828515E+02  0.40460576268E+02  0.14899467012E+03  0.00000000000E+00 0. -1.
</event>
<event>
 6    1  0.1715574E-005  0.5711300E+02  0.7818608E-02  0.1411775E+00
          2   -1    0    0  502    0  0.00000000000E+00  0.00000000000E+00  0.29056039719E+03  0.29056039719E+03  0.00000000000E+00 0. -1.
          1   -1    0    0  501    0 -0.00000000000E+00 -0.00000000000E+00 -0.10024533862E+03  0.10024533862E+03  0.00000000000E+00 0.  1.
          2    1    1    2  501    0 -0.38986769185E+01 -0.26208124133E+02  0.12431855270E+03  0.12711084925E+03  0.00000000000E+00 0. -1.
          1    1    1    2  502    0 -0.92295471194E+01  0.42988016810E+02 -0.65650245691E+02  0.79013346268E+02  0.00000000000E+00 0.  1.
         22    1    1    2    0    0  0.11699437335E+02 -0.28246185396E+02  0.15534041012E+03  0.15832045617E+03  0.00000000000E+00 0. -1.
         22    1    1    2    0    0  0.14287867027E+01  0.11466292719E+02 -0.23693658558E+02  0.26361084121E+02  0.00000000000E+00 0. -1.
</event>
<event>
 6    1  0.1715574E-005  0.2691545E+03  0.7818608E-02  0.1145127E+00
          2   -1    0    0  502    0  0.00000000000E+00  0.00000000000E+00  0.13379564352E+04  0.13379564352E+04  0.00000000000E+00 0.  1.
          1   -1    0    0  501    0 -0.00000000000E+00 -0.00000000000E+00 -0.36960186697E+02  0.36960186697E+02  0.00000000000E+00 0.  1.
          2    1    1    2  501    0 -0.29173095548E+02  0.39150082533E+02  0.21258373451E+02  0.53251449820E+02  0.00000000000E+00 0.  1.
          1    1    1    2  502    0  0.49834480087E+02  0.33737914292E+02  0.10425439624E+04  0.10442794817E+04  0.00000000000E+00 0.  1.
         22    1    1    2    0    0 -0.54894858888E+02 -0.89380160645E+02  0.18728276829E+03  0.21465575685E+03  0.00000000000E+00 0. -1.
         22    1    1    2    0    0  0.34233474349E+02  0.16492163820E+02  0.49911144308E+02  0.62729933522E+02  0.00000000000E+00 0.  1.
</event>
<event>
 6    1  0.1715574E-005  0.5174988E+02  0.7818608E-02  0.1515132E+00
          2   -1    0    0  502    0  0.00000000000E+00  0.00000000000E+00  0.12330286774E+03  0.12330286774E+03  0.00000000000E+00 0. -1.
          1   -1    0    0  501    0 -0.00000000000E+00 -0.00000000000E+00 -0.18864185879E+03  0.18864185879E+03  0.00000000000E+00 0.  1.
          2    1    1    2  501    0  0.24684310525E+02  0.25786985156E+02  0.47852006282E+02  0.59700069470E+02  0.00000000000E+00 0. -1.
          1    1    1    2  502    0 -0.25886778634E+02 -0.26675853235E+02 -0.11988373037E+03  0.12551428310E+03  0.00000000000E+00 0.  1.
         22    1    1    2    0    0 -0.55856040840E+01 -0.14502134223E+02 -0.57917534916E+02  0.59966254850E+02  0.00000000000E+00 0.  1.
         22    1    1    2    0    0  0.67880721931E+01  0.15391002303E+02  0.64610267952E+02  0.66764119112E+02  0.00000000000E+00 0.  1.
</event>
<event>
 6    1  0.1715574E-005  0.7704803E+02  0.7818608E-02  0.1452469E+00
          2   -1    0    0  502    0  0.00000000000E+00  0.00000000000E+00  0.99457787726E+03  0.99457787726E+03  0.00000000000E+00 0. -1.
          1   -1    0    0  501    0 -0.00000000000E+00 -0.00000000000E+00 -0.10011059866E+03  0.10011059866E+03  0.00000000000E+00 0.  1.
          2    1    1    2  501    0  0.12312966721E+02  0.37360472286E+02  0.83068791209E+03  0.83161879568E+03  0.00000000000E+00 0. -1.
          1    1    1    2  502    0 -0.29973263479E+02  0.40655305569E+02  0.96380764360E+02  0.10881407139E+03  0.00000000000E+00 0.  1.
         22    1    1    2    0    0  0.29854230697E+02 -0.76401367531E+02 -0.74364849996E+02  0.11071844908E+03  0.00000000000E+00 0.  1.
         22    1    1    2    0    0 -0.12193933940E+02 -0.16144103243E+01  0.41763452146E+02  0.43537159770E+02  0.00000000000E+00 0.  1.
</event>
<event>
 6    1  0.5636084E-005  0.1500221E+03  0.7818608E-02  0.1304858E+00
          2   -1    0    0  502    0  0.00000000000E+00  0.00000000000E+00  0.13863313390E+03  0.13863313390E+03  0.00000000000E+00 0.  1.
          1   -1    0    0  501    0 -0.00000000000E+00 -0.00000000000E+00 -0.67556451604E+03  0.67556451604E+03  0.00000000000E+00 0.  1.
          2    1    1    2  501    0 -0.72659759244E+02 -0.11197965508E+03  0.41126027517E+02  0.13967903889E+03  0.00000000000E+00 0.  1.
          1    1    1    2  502    0  0.69995838430E+02  0.11343678357E+03 -0.52343356748E+03  0.54013889031E+03  0.00000000000E+00 0.  1.
         22    1    1    2    0    0  0.43175207548E+01  0.17199755192E+02 -0.91402271585E+02  0.93106647534E+02  0.00000000000E+00 0. -1.
         22    1    1    2    0    0 -0.16535999408E+01 -0.18656883683E+02  0.36778429408E+02  0.41273073199E+02  0.00000000000E+00 0. -1.
</event>
<event>
 6    1  0.1715574E-005  0.2362684E+03  0.7818608E-02  0.1148840E+00
          2   -1    0    0  502    0  0.00000000000E+00  0.00000000000E+00  0.76539124028E+02  0.76539124028E+02  0.00000000000E+00 0.  1.
          1   -1    0    0  501    0 -0.00000000000E+00 -0.00000000000E+00 -0.13786456303E+04  0.13786456303E+04  0.00000000000E+00 0.  1.
          2    1    1    2  501    0  0.26066106859E+02  0.24515523872E+03 -0.45143909600E+03  0.51437125736E+03  0.00000000000E+00 0.  1.
          1    1    1    2  502    0  0.67618181928E+02 -0.18229635078E+03 -0.64077365354E+03  0.66962306793E+03  0.00000000000E+00 0.  1.
         22    1    1    2    0    0 -0.12009983678E+03 -0.30562774357E+02 -0.12202998390E+03  0.17392346289E+03  0.00000000000E+00 0. -1.
         22    1    1    2    0    0  0.26415547998E+02 -0.32296113579E+02 -0.87863772827E+02  0.97266966149E+02  0.00000000000E+00 0.  1.
</event>
<event>
 6    1  0.1715574E-005  0.6459189E+02  0.7818608E-02  0.1384530E+00
          2   -1    0    0  502    0  0.00000000000E+00  0.00000000000E+00  0.72252730541E+03  0.72252730541E+03  0.00000000000E+00 0. -1.
          1   -1    0    0  501    0 -0.00000000000E+00 -0.00000000000E+00 -0.65634836929E+02  0.65634836929E+02  0.00000000000E+00 0.  1.
          2    1    1    2  501    0 -0.28988386884E+02  0.22545938062E+02  0.57700030585E+03  0.57816779472E+03  0.00000000000E+00 0. -1.
          1    1    1    2  502    0  0.32835574116E+02 -0.18926773511E+02 -0.26176554274E+02  0.46060934388E+02  0.00000000000E+00 0.  1.
         22    1    1    2    0    0 -0.18401285312E+02  0.11276748498E+02  0.13024681795E+03  0.13202274782E+03  0.00000000000E+00 0. -1.
         22    1    1    2    0    0  0.14554098080E+02 -0.14895913050E+02 -0.24178101045E+02  0.31910665406E+02  0.00000000000E+00 0. -1.
</event>
<event>
 6    1  0.1715574E-005  0.8109140E+02  0.7818608E-02  0.1333490E+00
          2   -1    0    0  502    0  0.00000000000E+00  0.00000000000E+00  0.27497062057E+03  0.27497062057E+03  0.00000000000E+00 0.  1.
          1   -1    0    0  501    0 -0.00000000000E+00 -0.00000000000E+00 -0.61096743486E+02  0.61096743486E+02  0.00000000000E+00 0.  1.
          2    1    1    2  501    0  0.65878570561E+01 -0.21388737411E+02  0.15232953974E+03  0.15396482269E+03  0.00000000000E+00 0.  1.
          1    1    1    2  502    0  0.96045672818E+01  0.27180404431E+02 -0.13310090212E+02  0.31751859775E+02  0.00000000000E+00 0.  1.
         22    1    1    2    0    0 -0.68990029651E+01 -0.46974612286E+02  0.92983967117E+02  0.10440415979E+03  0.00000000000E+00 0.  1.
         22    1    1    2    0    0 -0.92934213729E+01  0.41182945266E+02 -0.18129539554E+02  0.45946521805E+02  0.00000000000E+00 0.  1.
</event>
<event>
 6    1  0.1715574E-005  0.6497161E+02  0.7818608E-02  0.1429588E+00
          2   -1    0    0  502    0  0.00000000000E+00  0.00000000000E+00  0.59479294712E+03  0.59479294712E+03  0.00000000000E+00 0. -1.
          1   -1    0    0  501    0 -0.00000000000E+00 -0.00000000000E+00 -0.78686366889E+03  0.78686366889E+03  0.00000000000E+00 0.  1.
          2    1    1    2  501    0  0.11667002396E+03  0.27807538148E+02  0.53104344097E+03  0.54441922254E+03  0.00000000000E+00 0. -1.
          1    1    1    2  502    0 -0.86775422368E+02 -0.67185944700E+02 -0.68828724433E+03  0.69698153189E+03  0.00000000000E+00 0.  1.
         22    1    1    2    0    0 -0.18294982995E+02 -0.90338637837E-01  0.46031639055E+02  0.49534092885E+02  0.00000000000E+00 0.  1.
         22    1    1    2    0    0 -0.11599618596E+02  0.39468745190E+02 -0.80858557464E+02  0.90721768687E+02  0.00000000000E+00 0.  1.
</event>
<event>
 6    1  0.1715574E-005  0.6466244E+02  0.7818608E-02  0.1416873E+00
          2   -1    0    0  502    0  0.00000000000E+00  0.00000000000E+00  0.22181701261E+03  0.22181701261E+03  0.00000000000E+00 0.  1.
          1   -1    0    0  501    0 -0.00000000000E+00 -0.00000000000E+00 -0.15942879905E+03  0.15942879905E+03  0.00000000000E+00 0. -1.
          2    1    1    2  501    0  0.40797317245E+02 -0.42319351334E+02  0.12868924550E+03  0.14147886944E+03  0.00000000000E+00 0.  1.
          1    1    1    2  502    0 -0.64920005109E+01  0.47939425781E+02 -0.93124204995E+02  0.10494023142E+03  0.00000000000E+00 0. -1.
         22    1    1    2    0    0 -0.53008068899E+01  0.14971011717E+02 -0.48765716412E+02  0.51286692647E+02  0.00000000000E+00 0. -1.
         22    1    1    2    0    0 -0.29004509845E+02 -0.20591086163E+02  0.75588889472E+02  0.83540018149E+02  0.00000000000E+00 0. -1.
</event>
<event>
 6    1  0.1715574E-005  0.3306637E+02  0.7818608E-02  0.1579677E+00
          2   -1    0    0  502    0  0.00000000000E+00  0.00000000000E+00  0.14648515267E+03  0.14648515267E+03  0.00000000000E+00 0.  1.
          1   -1    0    0  501    0 -0.00000000000E+00 -0.00000000000E+00 -0.11096096470E+03  0.11096096470E+03  0.00000000000E+00 0.  1.
          2    1    1    2  501    0  0.31595658910E+02 -0.31810863217E+02  0.54269775900E+02  0.70394781460E+02  0.00000000000E+00 0.  1.
          1    1    1    2  502    0 -0.26882126462E+02  0.32517623822E+02 -0.36626788525E+02  0.55870978332E+02  0.00000000000E+00 0.  1.
         22    1    1    2    0    0 -0.18036209920E+02  0.10134461713E+02 -0.53710405688E+02  0.57557100879E+02  0.00000000000E+00 0.  1.
         22    1    1    2    0    0  0.13322677472E+02 -0.10841222319E+02  0.71591606279E+02  0.73623256692E+02  0.00000000000E+00 0.  1.
</event>
<event>
 6    1  0.1715574E-005  0.6444422E+02  0.7818608E-02  0.1445863E+00
          2   -1    0    0  502    0  0.00000000000E+00  0.00000000000E+00  0.13942472480E+03  0.13942472480E+03  0.00000000000E+00 0.  1.
          1   -1    0    0  501    0 -0.00000000000E+00 -0.00000000000E+00 -0.89312897058E+02  0.89312897058E+02  0.00000000000E+00 0.  1.
          2    1    1    2  501    0  0.45032146861E+02 -0.37973824082E+02 -0.14405008325E+02  0.60641650960E+02  0.00000000000E+00 0.  1.
          1    1    1    2  502    0 -0.23730087551E+02  0.70811296243E+01 -0.14494755775E+01  0.24806459469E+02  0.00000000000E+00 0.  1.
         22    1    1    2    0    0  0.18334395251E+02  0.14170785275E+02  0.90736362764E+02  0.93648538334E+02  0.00000000000E+00 0.  1.
         22    1    1    2    0    0 -0.39636454561E+02  0.16721909182E+02 -0.24770051122E+02  0.49640973091E+02  0.00000000000E+00 0.  1.
</event>
<event>
 6    1  0.1715574E-005  0.8122425E+02  0.7818608E-02  0.1330893E+00
          2   -1    0    0  502    0  0.00000000000E+00  0.00000000000E+00  0.97397191179E+02  0.97397191179E+02  0.00000000000E+00 0. -1.
          1   -1    0    0  501    0 -0.00000000000E+00 -0.00000000000E+00 -0.98710696898E+02  0.98710696898E+02  0.00000000000E+00 0. -1.
          2    1    1    2  501    0  0.18866582351E+02 -0.28492147126E+02 -0.20836795244E+02  0.40024022955E+02  0.00000000000E+00 0. -1.
          1    1    1    2  502    0  0.13885228853E+02  0.19171033690E+02  0.75460250673E+01  0.24844931221E+02  0.00000000000E+00 0. -1.
         22    1    1    2    0    0 -0.51187896999E+01 -0.38566551156E+02 -0.39682000202E+02  0.55571953502E+02  0.00000000000E+00 0. -1.
         22    1    1    2    0    0 -0.27633021504E+02  0.47887664592E+02  0.51659264659E+02  0.75666980399E+02  0.00000000000E+00 0. -1.
</event>
<event>
 6    1  0.1715574E-005  0.1194564E+03  0.7818608E-02  0.1303464E+00
          2   -1    0    0  502    0  0.00000000000E+00  0.00000000000E+00  0.11800925303E+03  0.11800925303E+03  0.00000000000E+00 0.  1.
          1   -1    0    0  501    0 -0.00000000000E+00 -0.00000000000E+00 -0.17288402031E+03  0.17288402031E+03  0.00000000000E+00 0.  1.
          2    1    1    2  501    0  0.81929398512E+02  0.65462233091E+02 -0.35864038427E+01  0.10493137088E+03  0.00000000000E+00 0.  1.
          1    1    1    2  502    0 -0.27552000622E+02 -0.29762155591E+01 -0.12175142265E+02  0.30268873228E+02  0.00000000000E+00 0.  1.
         22    1    1    2    0    0  0.36009572779E+02 -0.12321601608E+02  0.12619006222E+02  0.40096764407E+02  0.00000000000E+00 0.  1.
         22    1    1    2    0    0 -0.90386970669E+02 -0.50164415924E+02 -0.51732227389E+02  0.11559626483E+03  0.00000000000E+00 0.  1.
</event>
<event>
 6    1  0.1715574E-005  0.6806560E+02  0.7818608E-02  0.1371951E+00
          2   -1    0    0  502    0  0.00000000000E+00  0.00000000000E+00  0.33707885322E+03  0.33707885322E+03  0.00000000000E+00 0.  1.
          1   -1    0    0  501    0 -0.00000000000E+00 -0.00000000000E+00 -0.14787656189E+03  0.14787656189E+03  0.00000000000E+00 0. -1.
          2    1    1    2  501    0 -0.33038243663E+02  0.93420574078E+01  0.24924553271E+03  0.25159915572E+03  0.00000000000E+00 0.  1.
          1    1    1    2  502    0  0.45789222053E+02 -0.10628240580E+02 -0.92759844474E+02  0.10399038946E+03  0.00000000000E+00 0. -1.
         22    1    1    2    0    0  0.14131346838E+02 -0.33858824295E+01 -0.44847279871E+02  0.47142737247E+02  0.00000000000E+00 0. -1.
         22    1    1    2    0    0 -0.26882325229E+02  0.46720656016E+01  0.77563882960E+02  0.82223132673E+02  0.00000000000E+00 0. -1.
</event>
<event>
 6    1  0.1715574E-005  0.9563480E+02  0.7818608E-02  0.1295367E+00
          2   -1    0    0  502    0  0.00000000000E+00  0.00000000000E+00  0.22807088614E+03  0.22807088614E+03  0.00000000000E+00 0. -1.
          1   -1    0    0  501    0 -0.00000000000E+00 -0.00000000000E+00 -0.52374250599E+02  0.52374250599E+02  0.00000000000E+00 0.  1.
          2    1    1    2  501    0 -0.29998703314E+02 -0.10782502179E+02  0.22839950300E+02  0.39215403651E+02  0.00000000000E+00 0. -1.
          1    1    1    2  502    0  0.41466650882E+02  0.24038567792E+02  0.10555711935E+02  0.49079108910E+02  0.00000000000E+00 0.  1.
         22    1    1    2    0    0  0.36835213262E+02  0.47019708092E+01 -0.37036494630E+01  0.37318339792E+02  0.00000000000E+00 0.  1.
         22    1    1    2    0    0 -0.48303160830E+02 -0.17958036422E+02  0.14600462277E+03  0.15483228439E+03  0.00000000000E+00 0.  1.
</event>
<event>
 6    1  0.1715574E-005  0.1804719E+03  0.7818608E-02  0.1263373E+00
          2   -1    0    0  502    0  0.00000000000E+00  0.00000000000E+00  0.48302141081E+03  0.48302141081E+03  0.00000000000E+00 0.  1.
          1   -1    0    0  501    0 -0.00000000000E+00 -0.00000000000E+00 -0.11184685246E+03  0.11184685246E+03  0.00000000000E+00 0. -1.
          2    1    1    2  501    0  0.64486792888E+02  0.14602725997E+03  0.26001413187E+03  0.30510630259E+03  0.00000000000E+00 0.  1.
          1    1    1    2  502    0 -0.38505020868E+02 -0.12676608896E+03  0.23657833643E+02  0.13458072312E+03  0.00000000000E+00 0. -1.
         22    1    1    2    0    0 -0.25703596145E+02 -0.42836490893E+02 -0.13268801452E+02  0.51688498709E+02  0.00000000000E+00 0. -1.
         22    1    1    2    0    0 -0.27817587471E+00  0.23575319884E+02  0.10077139428E+03  0.10349273885E+03  0.00000000000E+00 0. -1.
</event>
<event>
 6    1  0.1715574E-005  0.9435938E+02  0.7818608E-02  0.1294607E+00
          2   -1    0    0  502    0  0.00000000000E+00  0.00000000000E+00  0.18491371789E+03  0.18491371789E+03  0.00000000000E+00 0. -1.
          1   -1    0    0  501    0 -0.00000000000E+00 -0.00000000000E+00 -0.10080509679E+03  0.10080509679E+03  0.00000000000E+00 0.  1.
          2    1    1    2  501    0 -0.42970297254E+02  0.71158344813E+01  0.93596992846E+02  0.10323506486E+03  0.00000000000E+00 0. -1.
          1    1    1    2  502    0  0.29187939915E+02  0.65452270674E+01 -0.38522906646E+02  0.48772842549E+02  0.00000000000E+00 0.  1.
         22    1    1    2    0    0 -0.44609808901E+02 -0.85071339736E+00  0.53021911508E+02  0.69297055229E+02  0.00000000000E+00 0. -1.
         22    1    1    2    0    0  0.58392166240E+02 -0.12810348151E+02 -0.23987376611E+02  0.64413852040E+02  0.00000000000E+00 0.  1.
</event>
<event>
 6    1  0.1715574E-005  0.1109960E+03  0.7818608E-02  0.1304757E+00
          2   -1    0    0  502    0  0.00000000000E+00  0.00000000000E+00  0.37696745728E+03  0.37696745728E+03  0.00000000000E+00 0. -1.
          1   -1    0    0  501    0 -0.00000000000E+00 -0.00000000000E+00 -0.14454763857E+03  0.14454763857E+03  0.00000000000E+00 0.  1.
          2    1    1    2  501    0 -0.11288920566E+03 -0.40477357956E+02  0.15074934320E+03  0.19263372949E+03  0.00000000000E+00 0. -1.
          1    1    1    2  502    0  0.13074056783E+03  0.10619196188E+03  0.63873900600E+01  0.16855452411E+03  0.00000000000E+00 0.  1.
         22    1    1    2    0    0 -0.27891109380E+02  0.21170540675E+02 -0.11754159237E+02  0.36935972091E+02  0.00000000000E+00 0.  1.
         22    1    1    2    0    0  0.10039747203E+02 -0.86885144604E+02  0.87037244689E+02  0.12339087016E+03  0.00000000000E+00 0.  1.
</event>
<event>
 6    1  0.1715574E-005  0.5853169E+02  0.7818608E-02  0.1459083E+00
          2   -1    0    0  502    0  0.00000000000E+00  0.00000000000E+00  0.24918602150E+03  0.24918602150E+03  0.00000000000E+00 0. -1.
          1   -1    0    0  501    0 -0.00000000000E+00 -0.00000000000E+00 -0.12418824205E+03  0.12418824205E+03  0.00000000000E+00 0. -1.
          2    1    1    2  501    0  0.25147553616E+02  0.13673340083E+02  0.13260014727E+03  0.13565455664E+03  0.00000000000E+00 0. -1.
          1    1    1    2  502    0 -0.59433784077E+02 -0.47401819061E+02  0.51007740515E+02  0.91548330037E+02  0.00000000000E+00 0. -1.
         22    1    1    2    0    0  0.19287991252E+02  0.54315800286E+02 -0.89301444621E+02  0.10628725596E+03  0.00000000000E+00 0. -1.
         22    1    1    2    0    0  0.14998239209E+02 -0.20587321308E+02  0.30691336291E+02  0.39884120917E+02  0.00000000000E+00 0. -1.
</event>
<event>
 6    1  0.1715574E-005  0.1473837E+03  0.7818608E-02  0.1206225E+00
          2   -1    0    0  502    0  0.00000000000E+00  0.00000000000E+00  0.75622729789E+03  0.75622729789E+03  0.00000000000E+00 0. -1.
          1   -1    0    0  501    0 -0.00000000000E+00 -0.00000000000E+00 -0.34865714739E+02  0.34865714739E+02  0.00000000000E+00 0. -1.
          2    1    1    2  501    0  0.84082631283E+02  0.83739893693E+01  0.31783267811E+03  0.32887326412E+03  0.00000000000E+00 0. -1.
          1    1    1    2  502    0 -0.76293968851E+02  0.37567753947E+02  0.95869886316E+02  0.12815280302E+03  0.00000000000E+00 0. -1.
         22    1    1    2    0    0  0.49797944991E+02 -0.23590052776E+02  0.22021892367E+03  0.22700815020E+03  0.00000000000E+00 0.  1.
         22    1    1    2    0    0 -0.57586607422E+02 -0.22351690540E+02  0.87440095051E+02  0.10705879528E+03  0.00000000000E+00 0. -1.
</event>
<event>
 6    1  0.1715574E-005  0.1067767E+03  0.7818608E-02  0.1270218E+00
          2   -1    0    0  502    0  0.00000000000E+00  0.00000000000E+00  0.10551248992E+04  0.10551248992E+04  0.00000000000E+00 0. -1.
          1   -1    0    0  501    0 -0.00000000000E+00 -0.00000000000E+00 -0.10662105101E+02  0.10662105101E+02  0.00000000000E+00 0. -1.
          2    1    1    2  501    0 -0.21359965183E+02  0.29905135321E+02  0.14353511750E+03  0.14816509436E+03  0.00000000000E+00 0. -1.
          1    1    1    2  502    0  0.27462864024E+02 -0.33886603343E+02  0.30850241350E+03  0.31157061788E+03  0.00000000000E+00 0. -1.
         22    1    1    2    0    0 -0.34554694443E+02 -0.52112632285E+02  0.35340804740E+03  0.35889692297E+03  0.00000000000E+00 0. -1.
         22    1    1    2    0    0  0.28451795603E+02  0.56094100306E+02  0.23901721570E+03  0.24715436910E+03  0.00000000000E+00 0. -1.
</event>
<event>
 6    1  0.1715574E-005  0.5778300E+02  0.7818608E-02  0.1416077E+00
          2   -1    0    0  502    0  0.00000000000E+00  0.00000000000E+00  0.19294078201E+03  0.19294078201E+03  0.00000000000E+00 0.  1.
          1   -1    0    0  501    0 -0.00000000000E+00 -0.00000000000E+00 -0.66311916515E+03  0.66311916515E+03  0.00000000000E+00 0. -1.
          2    1    1    2  501    0  0.62265921696E+02  0.10129404681E+03  0.10646038410E+03  0.15959743828E+03  0.00000000000E+00 0.  1.
          1    1    1    2  502    0 -0.80765525669E+02 -0.46398781846E+02 -0.54310629145E+03  0.55103571654E+03  0.00000000000E+00 0. -1.
         22    1    1    2    0    0  0.39139637186E+01 -0.27219947395E+02 -0.82699039824E+02  0.87151453436E+02  0.00000000000E+00 0.  1.
         22    1    1    2    0    0  0.14585640255E+02 -0.27675317567E+02  0.49166564036E+02  0.58275338894E+02  0.00000000000E+00 0.  1.
</event>
<event>
 6    1  0.1715574E-005  0.1063633E+03  0.7818608E-02  0.1283709E+00
          2   -1    0    0  502    0  0.00000000000E+00  0.00000000000E+00  0.41092604618E+03  0.41092604618E+03  0.00000000000E+00 0. -1.
          1   -1    0    0  501    0 -0.00000000000E+00 -0.00000000000E+00 -0.44620516892E+02  0.44620516892E+02  0.00000000000E+00 0. -1.
          2    1    1    2  501    0 -0.33560084037E+02  0.16684978694E+02  0.66700825754E+02  0.76509266830E+02  0.00000000000E+00 0. -1.
          1    1    1    2  502    0  0.43019394301E+02  0.22511069907E+02 -0.44065401393E+01  0.48752786078E+02  0.00000000000E+00 0. -1.
         22    1    1    2    0    0 -0.37122064496E+02 -0.43514279533E+02  0.29555337908E+03  0.30103710748E+03  0.00000000000E+00 0. -1.
         22    1    1    2    0    0  0.27662754232E+02  0.43182309315E+01  0.84578645909E+01  0.29247402680E+02  0.00000000000E+00 0.  1.
</event>
<event>
 6    1  0.1715574E-005  0.2164794E+03  0.7818608E-02  0.1165322E+00
          2   -1    0    0  502    0  0.00000000000E+00  0.00000000000E+00  0.10372203594E+04  0.10372203594E+04  0.00000000000E+00 0.  1.
          1   -1    0    0  501    0 -0.00000000000E+00 -0.00000000000E+00 -0.25841173254E+02  0.25841173254E+02  0.00000000000E+00 0.  1.
          2    1    1    2  501    0  0.61612828510E+02 -0.45557337425E+02  0.33797209083E+03  0.34654977393E+03  0.00000000000E+00 0.  1.
          1    1    1    2  502    0  0.43527973202E+02  0.69739168310E+02  0.22339809316E+03  0.23804399609E+03  0.00000000000E+00 0.  1.
         22    1    1    2    0    0  0.26174132635E+02  0.78780843319E+01  0.71497662035E+02  0.76544530232E+02  0.00000000000E+00 0.  1.
         22    1    1    2    0    0 -0.13131493435E+03 -0.32059915217E+02  0.37851134017E+03  0.40192323245E+03  0.00000000000E+00 0.  1.
</event>
<event>
 6    1  0.1715574E-005  0.1137338E+03  0.7818608E-02  0.1284303E+00
          2   -1    0    0  502    0  0.00000000000E+00  0.00000000000E+00  0.30435157310E+03  0.30435157310E+03  0.00000000000E+00 0. -1.
          1   -1    0    0  501    0 -0.00000000000E+00 -0.00000000000E+00 -0.10186674537E+03  0.10186674537E+03  0.00000000000E+00 0. -1.
          2    1    1    2  501    0  0.49165942773E+02  0.58898724825E+01  0.21293313225E+03  0.21861495680E+03  0.00000000000E+00 0. -1.
          1    1    1    2  502    0  0.24275840562E+02 -0.17870550041E+02 -0.23186636477E+02  0.38030160463E+02  0.00000000000E+00 0. -1.
         22    1    1    2    0    0  0.95687815241E+01  0.94760376470E+01  0.54835313247E+02  0.56464754035E+02  0.00000000000E+00 0.  1.
         22    1    1    2    0    0 -0.83010564859E+02  0.25046399112E+01 -0.42096981293E+02  0.93108447164E+02  0.00000000000E+00 0. -1.
</event>
<event>
 6    1  0.1715574E-005  0.5245234E+02  0.7818608E-02  0.1515067E+00
          2   -1    0    0  502    0  0.00000000000E+00  0.00000000000E+00  0.17948967227E+03  0.17948967227E+03  0.00000000000E+00 0.  1.
          1   -1    0    0  501    0 -0.00000000000E+00 -0.00000000000E+00 -0.24162091859E+03  0.24162091859E+03  0.00000000000E+00 0.  1.
          2    1    1    2  501    0 -0.65780387190E+01  0.49772428170E+02  0.12577066131E+03  0.13542091583E+03  0.00000000000E+00 0.  1.
          1    1    1    2  502    0  0.96295489780E+01 -0.36967555537E+02 -0.15553842473E+03  0.16016095012E+03  0.00000000000E+00 0.  1.
         22    1    1    2    0    0 -0.15029996161E+02 -0.59605034441E+01  0.44547078243E+02  0.47390616855E+02  0.00000000000E+00 0.  1.
         22    1    1    2    0    0  0.11978485902E+02 -0.68443691896E+01 -0.76910561144E+02  0.78138108050E+02  0.00000000000E+00 0. -1.
</event>
<event>
 6    1  0.1715574E-005  0.1400904E+03  0.7818608E-02  0.1222811E+00
          2   -1    0    0  502    0  0.00000000000E+00  0.00000000000E+00  0.50004956902E+03  0.50004956902E+03  0.00000000000E+00 0. -1.
          1   -1    0    0  501    0 -0.00000000000E+00 -0.00000000000E+00 -0.38921272150E+02  0.38921272150E+02  0.00000000000E+00 0. -1.
          2    1    1    2  501    0  0.35388277467E+02 -0.23748130045E+02  0.15225607279E+03  0.15810824003E+03  0.00000000000E+00 0. -1.
          1    1    1    2  502    0 -0.68228609105E+02 -0.19601691220E+02  0.46937666514E+02  0.85102960800E+02  0.00000000000E+00 0. -1.
         22    1    1    2    0    0 -0.18181841124E+02 -0.36072081029E+02  0.54336899907E+02  0.67707260083E+02  0.00000000000E+00 0.  1.
         22    1    1    2    0    0  0.51022172762E+02  0.79421902294E+02  0.20759765766E+03  0.22805238026E+03  0.00000000000E+00 0. -1.
</event>
<event>
 6    1  0.1715574E-005  0.4836104E+02  0.7818608E-02  0.1455800E+00
          2   -1    0    0  502    0  0.00000000000E+00  0.00000000000E+00  0.14766878163E+03  0.14766878163E+03  0.00000000000E+00 0.  1.
          1   -1    0    0  501    0 -0.00000000000E+00 -0.00000000000E+00 -0.16171946667E+03  0.16171946667E+03  0.00000000000E+00 0.  1.
          2    1    1    2  501    0 -0.15382561935E+02 -0.13025266255E+02  0.81386697997E+02  0.83845544805E+02  0.00000000000E+00 0.  1.
          1    1    1    2  502    0  0.24233926483E+02  0.19423062192E+02 -0.99642387748E+02  0.10437022551E+03  0.00000000000E+00 0.  1.
         22    1    1    2    0    0 -0.25523625789E+02 -0.17714935822E+01  0.58680332501E+02  0.64015428494E+02  0.00000000000E+00 0.  1.
         22    1    1    2    0    0  0.16672261241E+02 -0.46263023547E+01 -0.54475327792E+02  0.57157049490E+02  0.00000000000E+00 0. -1.
</event>
<event>
 6    1  0.1715574E-005  0.9058921E+02  0.7818608E-02  0.1329386E+00
          2   -1    0    0  502    0  0.00000000000E+00  0.00000000000E+00  0.19842840700E+03  0.19842840700E+03  0.00000000000E+00 0. -1.
          1   -1    0    0  501    0 -0.00000000000E+00 -0.00000000000E+00 -0.56237775363E+02  0.56237775363E+02  0.00000000000E+00 0. -1.
          2    1    1    2  501    0 -0.24453709714E+02 -0.13275351804E+02  0.22164700977E+02  0.35573766369E+02  0.00000000000E+00 0. -1.
          1    1    1    2  502    0  0.26060534532E+02 -0.17231487783E+02 -0.13150393005E+02  0.33897027414E+02  0.00000000000E+00 0. -1.
         22    1    1    2    0    0 -0.10988861371E+02  0.51791137888E+02  0.14828877755E+03  0.15745678323E+03  0.00000000000E+00 0. -1.
         22    1    1    2    0    0  0.93820365522E+01 -0.21284298301E+02 -0.15112453889E+02  0.27738605347E+02  0.00000000000E+00 0. -1.
</event>
<event>
 6    1  0.1715574E-005  0.9998460E+02  0.7818608E-02  0.1280506E+00
          2   -1    0    0  502    0  0.00000000000E+00  0.00000000000E+00  0.26694463722E+03  0.26694463722E+03  0.00000000000E+00 0. -1.
          1   -1    0    0  501    0 -0.00000000000E+00 -0.00000000000E+00 -0.79225636503E+02  0.79225636503E+02  0.00000000000E+00 0. -1.
          2    1    1    2  501    0  0.63097085306E+02  0.47464468497E+02  0.15905868587E+03  0.17757754220E+03  0.00000000000E+00 0. -1.
          1    1    1    2  502    0 -0.25718523025E+02 -0.23409497889E+02 -0.10496052792E+01  0.34792940221E+02  0.00000000000E+00 0. -1.
         22    1    1    2    0    0  0.11676501531E+02  0.15480720893E+02  0.60603066909E+02  0.63629593164E+02  0.00000000000E+00 0. -1.
         22    1    1    2    0    0 -0.49055063813E+02 -0.39535691501E+02 -0.30893146783E+02  0.70170198135E+02  0.00000000000E+00 0. -1.
</event>
<event>
 6    1  0.1715574E-005  0.2948538E+03  0.7818608E-02  0.1120101E+00
          2   -1    0    0  502    0  0.00000000000E+00  0.00000000000E+00  0.29831752633E+03  0.29831752633E+03  0.00000000000E+00 0.  1.
          1   -1    0    0  501    0 -0.00000000000E+00 -0.00000000000E+00 -0.82308301669E+03  0.82308301669E+03  0.00000000000E+00 0. -1.
          2    1    1    2  501    0 -0.11092236950E+03 -0.22560114965E+03  0.13623982806E+03  0.28593870240E+03  0.00000000000E+00 0.  1.
          1    1    1    2  502    0 -0.15145843093E+02  0.27191828621E+03 -0.57368141788E+03  0.63504277034E+03  0.00000000000E+00 0. -1.
         22    1    1    2    0    0  0.10676396809E+03 -0.71390082458E+02 -0.25460568964E+02  0.13093253731E+03  0.00000000000E+00 0.  1.
         22    1    1    2    0    0  0.19304244505E+02  0.25072945898E+02 -0.61863331569E+02  0.69486532974E+02  0.00000000000E+00 0. -1.
</event>
<event>
 6    1  0.1715574E-005  0.9250153E+02  0.7818608E-02  0.1300591E+00
          2   -1    0    0  502    0  0.00000000000E+00  0.00000000000E+00  0.12854768429E+03  0.12854768429E+03  0.00000000000E+00 0. -1.
          1   -1    0    0  501    0 -0.00000000000E+00 -0.00000000000E+00 -0.95462905079E+02  0.95462905079E+02  0.00000000000E+00 0.  1.
          2    1    1    2  501    0 -0.50990920554E+02 -0.11913023231E+02  0.36300444938E+02  0.63715903856E+02  0.00000000000E+00 0. -1.
          1    1    1    2  502    0  0.29426892210E+02 -0.13912529154E+02 -0.11703093252E+02  0.34589924028E+02  0.00000000000E+00 0.  1.
         22    1    1    2    0    0 -0.31181711813E+02  0.22705405673E+02  0.46646206865E+02  0.60528532225E+02  0.00000000000E+00 0.  1.
         22    1    1    2    0    0  0.52745740157E+02  0.31201467123E+01 -0.38158779339E+02  0.65176229262E+02  0.00000000000E+00 0.  1.
</event>
<event>
 6    1  0.1715574E-005  0.3847851E+03  0.7818608E-02  0.1049814E+00
          2   -1    0    0  502    0  0.00000000000E+00  0.00000000000E+00  0.21367370426E+03  0.21367370426E+03  0.00000000000E+00 0. -1.
          1   -1    0    0  501    0 -0.00000000000E+00 -0.00000000000E+00 -0.70704772194E+03  0.70704772194E+03  0.00000000000E+00 0. -1.
          2    1    1    2  501    0  0.14190954698E+03  0.28586233044E+03 -0.16281656037E+03  0.35828037041E+03  0.00000000000E+00 0. -1.
          1    1    1    2  502    0 -0.12903628496E+03 -0.30475779819E+03 -0.24749976121E+03  0.41325997894E+03  0.00000000000E+00 0. -1.
         22    1    1    2    0    0  0.14994294317E+02  0.47416412624E+02  0.74434167021E+01  0.50284684551E+02  0.00000000000E+00 0. -1.
         22    1    1    2    0    0 -0.27867556332E+02 -0.28520944869E+02 -0.90501112795E+02  0.98896392297E+02  0.00000000000E+00 0.  1.
</event>
<event>
 6    1  0.1715574E-005  0.4235546E+02  0.7818608E-02  0.1566798E+00
          2   -1    0    0  502    0  0.00000000000E+00  0.00000000000E+00  0.11042385433E+03  0.11042385433E+03  0.00000000000E+00 0. -1.
          1   -1    0    0  501    0 -0.00000000000E+00 -0.00000000000E+00 -0.20128746457E+03  0.20128746457E+03  0.00000000000E+00 0. -1.
          2    1    1    2  501    0 -0.21645402858E+02  0.27389222864E+02  0.55041967382E+02  0.65179070009E+02  0.00000000000E+00 0. -1.
          1    1    1    2  502    0  0.27733752214E+02 -0.72954367713E+01 -0.11812914980E+03  0.12156019267E+03  0.00000000000E+00 0. -1.
         22    1    1    2    0    0  0.70693898241E+01 -0.11584814288E+02 -0.74481867138E+02  0.75708207791E+02  0.00000000000E+00 0. -1.
         22    1    1    2    0    0 -0.13157739180E+02 -0.85089718038E+01  0.46705439310E+02  0.49263848435E+02  0.00000000000E+00 0.  1.
</event>
<event>
 6    1  0.1715574E-005  0.6800017E+02  0.7818608E-02  0.1369228E+00
          2   -1    0    0  502    0  0.00000000000E+00  0.00000000000E+00  0.87097974974E+02  0.87097974974E+02  0.00000000000E+00 0. -1.
          1   -1    0    0  501    0 -0.00000000000E+00 -0.00000000000E+00 -0.13356272542E+03  0.13356272542E+03  0.00000000000E+00 0.  1.
          2    1    1    2  501    0  0.33919072324E+02 -0.28446759590E+02  0.25863743352E+02  0.51270408802E+02  0.00000000000E+00 0. -1.
          1    1    1    2  502    0 -0.15962295493E+02  0.14444215634E+02 -0.20816106381E+02  0.29945626184E+02  0.00000000000E+00 0.  1.
         22    1    1    2    0    0  0.15769764942E+02 -0.91770175228E+01  0.37373986892E+02  0.41589878975E+02  0.00000000000E+00 0. -1.
         22    1    1    2    0    0 -0.33726541774E+02  0.23179561479E+02 -0.88886374314E+02  0.97854786439E+02  0.00000000000E+00 0.  1.
</event>
<event>
 6    1  0.1715574E-005  0.3682638E+02  0.7818608E-02  0.1587993E+00
          2   -1    0    0  502    0  0.00000000000E+00  0.00000000000E+00  0.20869440260E+03  0.20869440260E+03  0.00000000000E+00 0. -1.
          1   -1    0    0  501    0 -0.00000000000E+00 -0.00000000000E+00 -0.10244508415E+03  0.10244508415E+03  0.00000000000E+00 0.  1.
          2    1    1    2  501    0  0.15404348386E+01 -0.24442282879E+02  0.15723232448E+03  0.15912825643E+03  0.00000000000E+00 0. -1.
          1    1    1    2  502    0 -0.57611302260E+01  0.19269690604E+02 -0.58264193696E+01  0.20939406872E+02  0.00000000000E+00 0.  1.
         22    1    1    2    0    0  0.46491644777E+01  0.17734088579E+02 -0.86209822040E+02  0.88137653953E+02  0.00000000000E+00 0.  1.
         22    1    1    2    0    0 -0.42846909043E+00 -0.12561496305E+02  0.41053235379E+02  0.42934169496E+02  0.00000000000E+00 0.  1.
</event>
<event>
 6    1  0.1715574E-005  0.5524406E+02  0.7818608E-02  0.1425517E+00
          2   -1    0    0  502    0  0.00000000000E+00  0.00000000000E+00  0.82815987427E+02  0.82815987427E+02  0.00000000000E+00 0.  1.
          1   -1    0    0  501    0 -0.00000000000E+00 -0.00000000000E+00 -0.11913630451E+03  0.11913630451E+03  0.00000000000E+00 0.  1.
          2    1    1    2  501    0  0.24892299277E+01  0.25344446562E+02  0.21880492256E+02  0.33575186947E+02  0.00000000000E+00 0.  1.
          1    1    1    2  502    0 -0.12735041330E+02 -0.22315942110E+02 -0.37786642263E+02  0.45694779608E+02  0.00000000000E+00 0.  1.
         22    1    1    2    0    0 -0.14977794574E+02 -0.15806110954E+02 -0.65744230835E+02  0.69256561869E+02  0.00000000000E+00 0.  1.
         22    1    1    2    0    0  0.25223605976E+02  0.12777606502E+02  0.45330063760E+02  0.53425763512E+02  0.00000000000E+00 0.  1.
</event>
<event>
 6    1  0.1715574E-005  0.3482494E+02  0.7818608E-02  0.1588405E+00
          2   -1    0    0  502    0  0.00000000000E+00  0.00000000000E+00  0.21483678000E+03  0.21483678000E+03  0.00000000000E+00 0. -1.
          1   -1    0    0  501    0 -0.00000000000E+00 -0.00000000000E+00 -0.17105333324E+03  0.17105333324E+03  0.00000000000E+00 0. -1.
          2    1    1    2  501    0  0.65559931157E+01 -0.35730007461E+02  0.11992618077E+03  0.12530723568E+03  0.00000000000E+00 0. -1.
          1    1    1    2  502    0 -0.18775976661E+02  0.98896757612E+01 -0.12003523441E+03  0.12189667955E+03  0.00000000000E+00 0. -1.
         22    1    1    2    0    0 -0.43505433610E+01  0.12030677854E+02 -0.45222770643E+02  0.46997483143E+02  0.00000000000E+00 0. -1.
         22    1    1    2    0    0  0.16570526907E+02  0.13809653845E+02  0.89115271041E+02  0.91688714867E+02  0.00000000000E+00 0. -1.
</event>
<event>
 6    1  0.1715574E-005  0.7273947E+02  0.7818608E-02  0.1419774E+00
          2   -1    0    0  502    0  0.00000000000E+00  0.00000000000E+00  0.56983224526E+02  0.56983224526E+02  0.00000000000E+00 0. -1.
          1   -1    0    0  501    0 -0.00000000000E+00 -0.00000000000E+00 -0.40844090026E+03  0.40844090026E+03  0.00000000000E+00 0.  1.
          2    1    1    2  501    0  0.21511784460E+01 -0.59929032633E+02 -0.81629935137E+00  0.59973184555E+02  0.00000000000E+00 0. -1.
          1    1    1    2  502    0  0.27287584255E+02  0.33629420463E+02 -0.19379466614E+03  0.19857472850E+03  0.00000000000E+00 0.  1.
         22    1    1    2    0    0 -0.57276857640E+01  0.29260687317E+02 -0.17458749845E+03  0.17711518518E+03  0.00000000000E+00 0.  1.
         22    1    1    2    0    0 -0.23711076937E+02 -0.29610751475E+01  0.17740788202E+02  0.29761026555E+02  0.00000000000E+00 0. -1.
</event>
<event>
 6    1  0.1715574E-005  0.9172191E+02  0.7818608E-02  0.1300132E+00
          2   -1    0    0  502    0  0.00000000000E+00  0.00000000000E+00  0.97964934510E+02  0.97964934510E+02  0.00000000000E+00 0. -1.
          1   -1    0    0  501    0 -0.00000000000E+00 -0.00000000000E+00 -0.26766605170E+03  0.26766605170E+03  0.00000000000E+00 0.  1.
          2    1    1    2  501    0 -0.11865664825E+02  0.31760867106E+02  0.26515121386E+02  0.43041820863E+02  0.00000000000E+00 0. -1.
          1    1    1    2  502    0  0.41933338173E+02 -0.55253174422E+02 -0.18068216506E+03  0.19353904749E+03  0.00000000000E+00 0.  1.
         22    1    1    2    0    0 -0.48351158757E+02  0.31593718300E+02  0.39846586065E+02  0.70169423613E+02  0.00000000000E+00 0. -1.
         22    1    1    2    0    0  0.18283485409E+02 -0.81014109835E+01 -0.55380659583E+02  0.58880694242E+02  0.00000000000E+00 0.  1.
</event>
<event>
 6    1  0.1715574E-005  0.8686663E+02  0.7818608E-02  0.1331653E+00
          2   -1    0    0  502    0  0.00000000000E+00  0.00000000000E+00  0.93942965739E+03  0.93942965739E+03  0.00000000000E+00 0.  1.
          1   -1    0    0  501    0 -0.00000000000E+00 -0.00000000000E+00 -0.29732822601E+02  0.29732822601E+02  0.00000000000E+00 0.  1.
          2    1    1    2  501    0 -0.94355623468E-01  0.68899676767E+02  0.56662038306E+03  0.57079403717E+03  0.00000000000E+00 0.  1.
          1    1    1    2  502    0  0.34034444834E+02 -0.54277999441E+02  0.15789460569E+03  0.17039703978E+03  0.00000000000E+00 0.  1.
         22    1    1    2    0    0 -0.38520243570E+02 -0.45602341741E+02  0.24934356700E+02  0.64692386577E+02  0.00000000000E+00 0. -1.
         22    1    1    2    0    0  0.45801543592E+01  0.30980664415E+02  0.16024748933E+03  0.16327901647E+03  0.00000000000E+00 0.  1.
</event>
<event>
 6    1  0.1715574E-005  0.1240957E+03  0.7818608E-02  0.1238679E+00
          2   -1    0    0  502    0  0.00000000000E+00  0.00000000000E+00  0.20832379411E+03  0.20832379411E+03  0.00000000000E+00 0. -1.
          1   -1    0    0  501    0 -0.00000000000E+00 -0.00000000000E+00 -0.16110352305E+03  0.16110352305E+03  0.00000000000E+00 0. -1.
          2    1    1    2  501    0  0.56541338060E+02  0.80484194044E+02  0.12355048275E+03  0.15792197500E+03  0.00000000000E+00 0. -1.
          1    1    1    2  502    0 -0.46950752827E+02 -0.34222242756E+02 -0.53714747348E+02  0.79125275184E+02  0.00000000000E+00 0. -1.
         22    1    1    2    0    0  0.78556189920E+01  0.17386511905E+02  0.38159578997E+02  0.42663274783E+02  0.00000000000E+00 0.  1.
         22    1    1    2    0    0 -0.17446204224E+02 -0.63648463193E+02 -0.60775043333E+02  0.89716792189E+02  0.00000000000E+00 0.  1.
</event>
<event>
 6    1  0.1715574E-005  0.1262328E+03  0.7818608E-02  0.1247217E+00
          2   -1    0    0  502    0  0.00000000000E+00  0.00000000000E+00  0.33073862631E+02  0.33073862631E+02  0.00000000000E+00 0. -1.
          1   -1    0    0  501    0 -0.00000000000E+00 -0.00000000000E+00 -0.41393164467E+03  0.41393164467E+03  0.00000000000E+00 0. -1.
          2    1    1    2  501    0 -0.40623000501E+02 -0.24413250032E+02 -0.31879380046E+02  0.57118559321E+02  0.00000000000E+00 0. -1.
          1    1    1    2  502    0  0.28858601024E+02 -0.14010329677E+02 -0.33043813271E+02  0.46054335151E+02  0.00000000000E+00 0. -1.
         22    1    1    2    0    0  0.35899844344E+02  0.75907925329E+02 -0.25400785131E+03  0.26752719577E+03  0.00000000000E+00 0. -1.
         22    1    1    2    0    0 -0.24135444867E+02 -0.37484345620E+02 -0.61926737414E+02  0.76305417057E+02  0.00000000000E+00 0. -1.
</event>
<event>
 6    1  0.1715574E-005  0.1027852E+03  0.7818608E-02  0.1379284E+00
          2   -1    0    0  502    0  0.00000000000E+00  0.00000000000E+00  0.14065052090E+04  0.14065052090E+04  0.00000000000E+00 0.  1.
          1   -1    0    0  501    0 -0.00000000000E+00 -0.00000000000E+00 -0.95143649550E+02  0.95143649550E+02  0.00000000000E+00 0. -1.
          2    1    1    2  501    0 -0.11566852713E+02 -0.36108278526E+02  0.12051413844E+04  0.12057376813E+04  0.00000000000E+00 0.  1.
          1    1    1    2  502    0  0.42818436890E+02 -0.82750423409E+02  0.78310679358E+02  0.12171118935E+03  0.00000000000E+00 0. -1.
         22    1    1    2    0    0 -0.11709935414E+01  0.16046924202E+02  0.60203236706E+02  0.62316167341E+02  0.00000000000E+00 0. -1.
         22    1    1    2    0    0 -0.30080590636E+02  0.10281177773E+03 -0.32293741035E+02  0.11188382047E+03  0.00000000000E+00 0. -1.
</event>
<event>
 6    1  0.1715574E-005  0.5124789E+02  0.7818608E-02  0.1442858E+00
          2   -1    0    0  502    0  0.00000000000E+00  0.00000000000E+00  0.38093097377E+03  0.38093097377E+03  0.00000000000E+00 0. -1.
          1   -1    0    0  501    0 -0.00000000000E+00 -0.00000000000E+00 -0.55815797490E+02  0.55815797490E+02  0.00000000000E+00 0.  1.
          2    1    1    2  501    0 -0.24986997947E+02 -0.71183802002E+01  0.22953059218E+03  0.23099635094E+03  0.00000000000E+00 0. -1.
          1    1    1    2  502    0  0.28154202149E+02 -0.69531582544E+01 -0.22015254010E+02  0.36409846436E+02  0.00000000000E+00 0.  1.
         22    1    1    2    0    0 -0.21621777741E+02  0.10724994780E+02  0.13888760067E+03  0.14096911863E+03  0.00000000000E+00 0. -1.
         22    1    1    2    0    0  0.18454573539E+02  0.33465436745E+01 -0.21287762554E+02  0.28371455261E+02  0.00000000000E+00 0. -1.
</event>
<event>
 6    1  0.1715574E-005  0.1075529E+03  0.7818608E-02  0.1266190E+00
          2   -1    0    0  502    0  0.00000000000E+00  0.00000000000E+00  0.48910793782E+02  0.48910793782E+02  0.00000000000E+00 0. -1.
          1   -1    0    0  501    0 -0.00000000000E+00 -0.00000000000E+00 -0.26242901057E+03  0.26242901057E+03  0.00000000000E+00 0. -1.
          2    1    1    2  501    0  0.16963555570E+02 -0.16918797908E+02 -0.51035123911E+02  0.56379001524E+02  0.00000000000E+00 0. -1.
          1    1    1    2  502    0 -0.46980931304E+02  0.40985944721E+02 -0.64590603431E+02  0.89771942290E+02  0.00000000000E+00 0. -1.
         22    1    1    2    0    0  0.61453685500E+02 -0.15918893710E+01 -0.16707495616E+01  0.61496999743E+02  0.00000000000E+00 0. -1.
         22    1    1    2    0    0 -0.31436309766E+02 -0.22475257442E+02 -0.96221739883E+02  0.10369186079E+03  0.00000000000E+00 0. -1.
</event>
<event>
 6    1  0.1715574E-005  0.1217339E+03  0.7818608E-02  0.1343552E+00
          2   -1    0    0  502    0  0.00000000000E+00  0.00000000000E+00  0.88062531237E+02  0.88062531237E+02  0.00000000000E+00 0. -1.
          1   -1    0    0  501    0 -0.00000000000E+00 -0.00000000000E+00 -0.47535029222E+03  0.47535029222E+03  0.00000000000E+00 0. -1.
          2    1    1    2  501    0  0.10827803524E+03 -0.35253886081E+02  0.13699015503E+02  0.11469364597E+03  0.00000000000E+00 0. -1.
          1    1    1    2  502    0 -0.57882673724E+02  0.32020679797E+02 -0.17941781006E+03  0.19122363457E+03  0.00000000000E+00 0. -1.
         22    1    1    2    0    0 -0.49135639597E+02  0.20824179662E+02 -0.23128380464E+03  0.23736081358E+03  0.00000000000E+00 0.  1.
         22    1    1    2    0    0 -0.12597219229E+01 -0.17590973377E+02  0.97148382133E+01  0.20134729330E+02  0.00000000000E+00 0. -1.
</event>
<event>
 6    1  0.1715574E-005  0.6010004E+02  0.7818608E-02  0.1444349E+00
          2   -1    0    0  502    0  0.00000000000E+00  0.00000000000E+00  0.13790639868E+03  0.13790639868E+03  0.00000000000E+00 0.  1.
          1   -1    0    0  501    0 -0.00000000000E+00 -0.00000000000E+00 -0.23539046790E+03  0.23539046790E+03  0.00000000000E+00 0. -1.
          2    1    1    2  501    0 -0.25752426252E+01 -0.34945633618E+02  0.86811273764E+02  0.93616379101E+02  0.00000000000E+00 0.  1.
          1    1    1    2  502    0 -0.50116492183E+01  0.40828087228E+02 -0.13875944236E+03  0.14472813196E+03  0.00000000000E+00 0. -1.
         22    1    1    2    0    0 -0.13827923781E+02  0.13994675152E+02 -0.84212416821E+02  0.86480018244E+02  0.00000000000E+00 0.  1.
         22    1    1    2    0    0  0.21414815624E+02 -0.19877128762E+02  0.38676516194E+02  0.48472337275E+02  0.00000000000E+00 0.  1.
</event>
<event>
 6    1  0.1715574E-005  0.6496146E+02  0.7818608E-02  0.1445756E+00
          2   -1    0    0  502    0  0.00000000000E+00  0.00000000000E+00  0.57913573364E+02  0.57913573364E+02  0.00000000000E+00 0.  1.
          1   -1    0    0  501    0 -0.00000000000E+00 -0.00000000000E+00 -0.36114023422E+03  0.36114023422E+03  0.00000000000E+00 0.  1.
          2    1    1    2  501    0  0.29631897820E+02 -0.71465960047E+02 -0.47070058890E+02  0.90559501201E+02  0.00000000000E+00 0.  1.
          1    1    1    2  502    0 -0.58648042982E+02  0.28322411116E+02 -0.10256200620E+03  0.12149369133E+03  0.00000000000E+00 0.  1.
         22    1    1    2    0    0  0.16101780774E+02  0.59572038289E+02 -0.16972956000E+03  0.18059960861E+03  0.00000000000E+00 0.  1.
         22    1    1    2    0    0  0.12914364388E+02 -0.16428489357E+02  0.16134964243E+02  0.26401006443E+02  0.00000000000E+00 0.  1.
</event>
<event>
 6    1  0.1715574E-005  0.1298437E+03  0.7818608E-02  0.1232325E+00
          2   -1    0    0  502    0  0.00000000000E+00  0.00000000000E+00  0.52325949001E+02  0.52325949001E+02  0.00000000000E+00 0.  1.
          1   -1    0    0  501    0 -0.00000000000E+00 -0.00000000000E+00 -0.32266307716E+03  0.32266307716E+03  0.00000000000E+00 0.  1.
          2    1    1    2  501    0  0.68602993548E+02  0.45985715674E+02 -0.69427529297E+02  0.10789457166E+03  0.00000000000E+00 0.  1.
          1    1    1    2  502    0 -0.30981920564E+02 -0.15335066546E+02 -0.15454586304E+02  0.37866712369E+02  0.00000000000E+00 0.  1.
         22    1    1    2    0    0 -0.60689487944E+02 -0.50780322175E+02 -0.18194832723E+03  0.19841131230E+03  0.00000000000E+00 0.  1.
         22    1    1    2    0    0  0.23068414959E+02  0.20129673046E+02 -0.35066853320E+01  0.30816429834E+02  0.00000000000E+00 0.  1.
</event>
<event>
 6    1  0.1715574E-005  0.1092300E+03  0.7818608E-02  0.1340575E+00
          2   -1    0    0  502    0  0.00000000000E+00  0.00000000000E+00  0.27959788225E+03  0.27959788225E+03  0.00000000000E+00 0.  1.
          1   -1    0    0  501    0 -0.00000000000E+00 -0.00000000000E+00 -0.21327202757E+03  0.21327202757E+03  0.00000000000E+00 0.  1.
          2    1    1    2  501    0  0.58897162196E+01 -0.92758690684E+02  0.21941760602E+03  0.23829173147E+03  0.00000000000E+00 0.  1.
          1    1    1    2  502    0 -0.30308022140E+02  0.52522525112E+02 -0.77911620918E+02  0.98728985229E+02  0.00000000000E+00 0.  1.
         22    1    1    2    0    0  0.25045224235E+02 -0.57642574979E+01  0.30919073369E+02  0.40205460071E+02  0.00000000000E+00 0. -1.
         22    1    1    2    0    0 -0.62691831392E+00  0.46000423070E+02 -0.10609920379E+03  0.11564373305E+03  0.00000000000E+00 0.  1.
</event>
<event>
 6    1  0.1715574E-005  0.5740662E+02  0.7818608E-02  0.1409111E+00
          2   -1    0    0  502    0  0.00000000000E+00  0.00000000000E+00  0.19657195296E+03  0.19657195296E+03  0.00000000000E+00 0. -1.
          1   -1    0    0  501    0 -0.00000000000E+00 -0.00000000000E+00 -0.17645920442E+03  0.17645920442E+03  0.00000000000E+00 0.  1.
          2    1    1    2  501    0 -0.38699268989E+02  0.98680863176E+01  0.13959920131E+03  0.14519968855E+03  0.00000000000E+00 0. -1.
          1    1    1    2  502    0  0.37729709167E+02 -0.64760081771E+01 -0.95905921796E+02  0.10326381492E+03  0.00000000000E+00 0.  1.
         22    1    1    2    0    0  0.17846552182E+02 -0.13171321693E+00 -0.71481584384E+02  0.73675869043E+02  0.00000000000E+00 0. -1.
         22    1    1    2    0    0 -0.16876992361E+02 -0.32603649236E+01  0.47901053410E+02  0.50891784881E+02  0.00000000000E+00 0. -1.
</event>
<event>
 6    1  0.1715574E-005  0.1144412E+03  0.7818608E-02  0.1270584E+00
          2   -1    0    0  502    0  0.00000000000E+00  0.00000000000E+00  0.12260791684E+02  0.12260791684E+02  0.00000000000E+00 0.  1.
          1   -1    0    0  501    0 -0.00000000000E+00 -0.00000000000E+00 -0.79439708889E+03  0.79439708889E+03  0.00000000000E+00 0.  1.
          2    1    1    2  501    0 -0.14227271598E+02  0.16759915835E+02 -0.19235955573E+03  0.19361174736E+03  0.00000000000E+00 0.  1.
          1    1    1    2  502    0 -0.28255827539E+02 -0.41823884098E+00 -0.47137542750E+02  0.54959208965E+02  0.00000000000E+00 0.  1.
         22    1    1    2    0    0 -0.42911914202E+02 -0.30345989436E+01 -0.21342827489E+03  0.21772062304E+03  0.00000000000E+00 0.  1.
         22    1    1    2    0    0  0.85395013338E+02 -0.13307078050E+02 -0.32921092383E+03  0.34036630121E+03  0.00000000000E+00 0.  1.
</event>
<event>
 6    1  0.1715574E-005  0.5398934E+02  0.7818608E-02  0.1494371E+00
          2   -1    0    0  502    0  0.00000000000E+00  0.00000000000E+00  0.41626472959E+03  0.41626472959E+03  0.00000000000E+00 0. -1.
          1   -1    0    0  501    0 -0.00000000000E+00 -0.00000000000E+00 -0.33540829950E+03  0.33540829950E+03  0.00000000000E+00 0.  1.
          2    1    1    2  501    0 -0.29005622244E+02 -0.59195964608E+01  0.38309324534E+03  0.38423534763E+03  0.00000000000E+00 0. -1.
          1    1    1    2  502    0  0.31743996418E+02 -0.90820489835E+00 -0.20714790794E+03  0.20956803647E+03  0.00000000000E+00 0.  1.
         22    1    1    2    0    0  0.13983610201E+02  0.17183214359E+02 -0.12230220163E+03  0.12429252887E+03  0.00000000000E+00 0.  1.
         22    1    1    2    0    0 -0.16721984375E+02 -0.10355413000E+02  0.27213294313E+02  0.33577116124E+02  0.00000000000E+00 0.  1.
</event>
<event>
 6    1  0.1715574E-005  0.1970668E+03  0.7818608E-02  0.1201926E+00
          2   -1    0    0  502    0  0.00000000000E+00  0.00000000000E+00  0.66890134721E+03  0.66890134721E+03  0.00000000000E+00 0. -1.
          1   -1    0    0  501    0 -0.00000000000E+00 -0.00000000000E+00 -0.92240773400E+02  0.92240773400E+02  0.00000000000E+00 0. -1.
          2    1    1    2  501    0 -0.10646816184E+02 -0.21344637797E+02 -0.23834639851E+02  0.33719998730E+02  0.00000000000E+00 0. -1.
          1    1    1    2  502    0  0.81502614651E+02  0.89194937589E+02  0.54145499325E+03  0.55477195568E+03  0.00000000000E+00 0. -1.
         22    1    1    2    0    0 -0.34021632228E+02 -0.21499550511E+02 -0.40332849533E+02  0.56977547184E+02  0.00000000000E+00 0. -1.
         22    1    1    2    0    0 -0.36834166239E+02 -0.46350749281E+02  0.99373069935E+02  0.11567261901E+03  0.00000000000E+00 0. -1.
</event>
<event>
 6    1  0.1715574E-005  0.8713905E+02  0.7818608E-02  0.1311393E+00
          2   -1    0    0  502    0  0.00000000000E+00  0.00000000000E+00  0.58749431160E+02  0.58749431160E+02  0.00000000000E+00 0. -1.
          1   -1    0    0  501    0 -0.00000000000E+00 -0.00000000000E+00 -0.43440637896E+03  0.43440637896E+03  0.00000000000E+00 0. -1.
          2    1    1    2  501    0 -0.45544499350E+02  0.51280763731E+02  0.10795065063E+02  0.69430192132E+02  0.00000000000E+00 0. -1.
          1    1    1    2  502    0  0.86462988832E+01 -0.25655142934E+02 -0.16835648815E+03  0.17051935945E+03  0.00000000000E+00 0. -1.
         22    1    1    2    0    0  0.42863819026E+02 -0.39320298690E+02 -0.22798722139E+03  0.23529038652E+03  0.00000000000E+00 0. -1.
         22    1    1    2    0    0 -0.59656185590E+01  0.13694677894E+02  0.98916966743E+01  0.17915872027E+02  0.00000000000E+00 0.  1.
</event>
<event>
 6    1  0.1715574E-005  0.7293529E+02  0.7818608E-02  0.1352262E+00
          2   -1    0    0  502    0  0.00000000000E+00  0.00000000000E+00  0.23421598618E+03  0.23421598618E+03  0.00000000000E+00 0.  1.
          1   -1    0    0  501    0 -0.00000000000E+00 -0.00000000000E+00 -0.16995861366E+03  0.16995861366E+03  0.00000000000E+00 0.  1.
          2    1    1    2  501    0  0.47890831274E+02 -0.32998065311E+02  0.16565373863E+03  0.17556641239E+03  0.00000000000E+00 0.  1.
          1    1    1    2  502    0 -0.26526120787E+02  0.29683929261E+02 -0.95156055876E+02  0.10314768883E+03  0.00000000000E+00 0.  1.
         22    1    1    2    0    0 -0.31983411761E+02  0.67519507657E+01 -0.61197940206E+02  0.69380943727E+02  0.00000000000E+00 0. -1.
         22    1    1    2    0    0  0.10618701273E+02 -0.34378147155E+01  0.54957629963E+02  0.56079554901E+02  0.00000000000E+00 0.  1.
</event>
<event>
 6    1  0.1715574E-005  0.9422795E+02  0.7818608E-02  0.1303143E+00
          2   -1    0    0  502    0  0.00000000000E+00  0.00000000000E+00  0.23776734305E+02  0.23776734305E+02  0.00000000000E+00 0.  1.
          1   -1    0    0  501    0 -0.00000000000E+00 -0.00000000000E+00 -0.47481241048E+03  0.47481241048E+03  0.00000000000E+00 0.  1.
          2    1    1    2  501    0 -0.38797152357E+02 -0.25795061931E+01 -0.53654038059E+02  0.66261819197E+02  0.00000000000E+00 0.  1.
          1    1    1    2  502    0  0.24010441837E+02  0.26789091948E+02 -0.13179222504E+03  0.13661386220E+03  0.00000000000E+00 0.  1.
         22    1    1    2    0    0 -0.32367517477E+02  0.94350410796E+01 -0.12305679085E+02  0.35890192610E+02  0.00000000000E+00 0.  1.
         22    1    1    2    0    0  0.47154227998E+02 -0.33644626835E+02 -0.25328373399E+03  0.25982327078E+03  0.00000000000E+00 0.  1.
</event>
<event>
 6    1  0.1715574E-005  0.1009630E+03  0.7818608E-02  0.1306259E+00
          2   -1    0    0  502    0  0.00000000000E+00  0.00000000000E+00  0.33387479109E+03  0.33387479109E+03  0.00000000000E+00 0. -1.
          1   -1    0    0  501    0 -0.00000000000E+00 -0.00000000000E+00 -0.31718204486E+02  0.31718204486E+02  0.00000000000E+00 0. -1.
          2    1    1    2  501    0 -0.82686322755E+01  0.32295204034E+02  0.11030866322E+03  0.11523606929E+03  0.00000000000E+00 0. -1.
          1    1    1    2  502    0  0.26841265515E+02 -0.59180867437E+01  0.58866307822E+02  0.64967064593E+02  0.00000000000E+00 0. -1.
         22    1    1    2    0    0 -0.15690140969E+02 -0.51498941252E+02  0.40347829897E+01  0.53987044256E+02  0.00000000000E+00 0. -1.
         22    1    1    2    0    0 -0.28824922712E+01  0.25121823962E+02  0.12894683257E+03  0.13140281743E+03  0.00000000000E+00 0. -1.
</event>
<event>
 6    1  0.1715574E-005  0.5742550E+02  0.7818608E-02  0.1478387E+00
          2   -1    0    0  502    0  0.00000000000E+00  0.00000000000E+00  0.29024470369E+03  0.29024470369E+03  0.00000000000E+00 0. -1.
          1   -1    0    0  501    0 -0.00000000000E+00 -0.00000000000E+00 -0.37371525984E+03  0.37371525984E+03  0.00000000000E+00 0. -1.
          2    1    1    2  501    0  0.11819276756E+02 -0.45034959810E+02  0.23219112667E+03  0.23681334889E+03  0.00000000000E+00 0. -1.
          1    1    1    2  502    0 -0.20986433976E+01  0.33368951157E+02 -0.30320417771E+03  0.30504207019E+03  0.00000000000E+00 0. -1.
         22    1    1    2    0    0 -0.27887816725E+01  0.20253952189E+02 -0.65142754617E+02  0.68275752369E+02  0.00000000000E+00 0.  1.
         22    1    1    2    0    0 -0.69318516860E+01 -0.85879435357E+01  0.52685249500E+02  0.53828792081E+02  0.00000000000E+00 0.  1.
</event>
<event>
 6    1  0.1715574E-005  0.6504448E+02  0.7818608E-02  0.1413549E+00
          2   -1    0    0  502    0  0.00000000000E+00  0.00000000000E+00  0.72132790991E+02  0.72132790991E+02  0.00000000000E+00 0. -1.
          1   -1    0    0  501    0 -0.00000000000E+00 -0.00000000000E+00 -0.37888007541E+03  0.37888007541E+03  0.00000000000E+00 0. -1.
          2    1    1    2  501    0 -0.28437267745E+02 -0.24552584096E+02  0.23241827492E+02  0.44177937115E+02  0.00000000000E+00 0. -1.
          1    1    1    2  502    0  0.32174684559E+01  0.77425591985E+02 -0.19855379943E+03  0.21314006114E+03  0.00000000000E+00 0. -1.
         22    1    1    2    0    0 -0.32950581270E+00 -0.26396548378E+02  0.22953611306E+02  0.34982204224E+02  0.00000000000E+00 0. -1.
         22    1    1    2    0    0  0.25549305102E+02 -0.26476459511E+02 -0.15438892379E+03  0.15871266391E+03  0.00000000000E+00 0.  1.
</event>
<event>
 6    1  0.1715574E-005  0.1500705E+03  0.7818608E-02  0.1200957E+00
          2   -1    0    0  502    0  0.00000000000E+00  0.00000000000E+00  0.89488227382E+03  0.89488227382E+03  0.00000000000E+00 0.  1.
          1   -1    0    0  501    0 -0.00000000000E+00 -0.00000000000E+00 -0.16621686166E+03  0.16621686166E+03  0.00000000000E+00 0. -1.
          2    1    1    2  501    0  0.10656879239E+03 -0.24440838848E+02  0.64787648537E+03  0.65703744369E+03  0.00000000000E+00 0.  1.
          1    1    1    2  502    0 -0.12081518405E+03  0.56588169962E+02 -0.10960436024E+03  0.17266049189E+03  0.00000000000E+00 0. -1.
         22    1    1    2    0    0 -0.14182434352E+02 -0.34251114010E+01 -0.15671017175E+02  0.21411529874E+02  0.00000000000E+00 0.  1.
         22    1    1    2    0    0  0.28428826015E+02 -0.28722219713E+02  0.20606430420E+03  0.20998967003E+03  0.00000000000E+00 0. -1.
</event>
<event>
 6    1  0.1715574E-005  0.1133948E+03  0.7818608E-02  0.1258965E+00
          2   -1    0    0  502    0  0.00000000000E+00  0.00000000000E+00  0.16894412332E+03  0.16894412332E+03  0.00000000000E+00 0. -1.
          1   -1    0    0  501    0 -0.00000000000E+00 -0.00000000000E+00 -0.13596655524E+03  0.13596655524E+03  0.00000000000E+00 0. -1.
          2    1    1    2  501    0 -0.64019552303E+02 -0.69843619168E-01  0.68580349229E+02  0.93817760874E+02  0.00000000000E+00 0. -1.
          1    1    1    2  502    0  0.51618188360E+02  0.32200227149E+02 -0.54350481640E+02  0.81579818905E+02  0.00000000000E+00 0. -1.
         22    1    1    2    0    0 -0.36525550550E+02 -0.14112769003E+02  0.53906531185E+02  0.66627323196E+02  0.00000000000E+00 0.  1.
         22    1    1    2    0    0  0.48926914492E+02 -0.18017614527E+02 -0.35158830693E+02  0.62885775583E+02  0.00000000000E+00 0. -1.
</event>
<event>
 6    1  0.1715574E-005  0.8464606E+02  0.7818608E-02  0.1317096E+00
          2   -1    0    0  502    0  0.00000000000E+00  0.00000000000E+00  0.29785668993E+03  0.29785668993E+03  0.00000000000E+00 0. -1.
          1   -1    0    0  501    0 -0.00000000000E+00 -0.00000000000E+00 -0.19064214180E+03  0.19064214180E+03  0.00000000000E+00 0.  1.
          2    1    1    2  501    0  0.35005684225E+02 -0.60702062143E+02  0.24994908340E+03  0.25958559777E+03  0.00000000000E+00 0. -1.
          1    1    1    2  502    0 -0.77048466572E+01  0.35799414575E+02 -0.69197341535E+02  0.78289429820E+02  0.00000000000E+00 0.  1.
         22    1    1    2    0    0 -0.29628488101E+02  0.37537614685E+02 -0.10568652817E+03  0.11600242265E+03  0.00000000000E+00 0. -1.
         22    1    1    2    0    0  0.23276505338E+01 -0.12634967118E+02  0.32149334435E+02  0.34621381482E+02  0.00000000000E+00 0.  1.
</event>
<event>
 6    1  0.1715574E-005  0.5276928E+02  0.7818608E-02  0.1431679E+00
          2   -1    0    0  502    0  0.00000000000E+00  0.00000000000E+00  0.15941428684E+03  0.15941428684E+03  0.00000000000E+00 0.  1.
          1   -1    0    0  501    0 -0.00000000000E+00 -0.00000000000E+00 -0.13223668260E+03  0.13223668260E+03  0.00000000000E+00 0.  1.
          2    1    1    2  501    0 -0.11384963030E+02 -0.38229107320E+02  0.99068683251E+02  0.10679740648E+03  0.00000000000E+00 0.  1.
          1    1    1    2  502    0  0.90211756113E+01  0.29275805938E+02 -0.54072266319E+02  0.62147119061E+02  0.00000000000E+00 0.  1.
         22    1    1    2    0    0  0.72598221704E+01  0.18444335695E+02 -0.68294765707E+02  0.71113103997E+02  0.00000000000E+00 0.  1.
         22    1    1    2    0    0 -0.48960347521E+01 -0.94910343137E+01  0.50475953018E+02  0.51593339897E+02  0.00000000000E+00 0. -1.
</event>
<event>
 6    1  0.1715574E-005  0.9790241E+02  0.7818608E-02  0.1288300E+00
          2   -1    0    0  502    0  0.00000000000E+00  0.00000000000E+00  0.73214831243E+02  0.73214831243E+02  0.00000000000E+00 0.  1.
          1   -1    0    0  501    0 -0.00000000000E+00 -0.00000000000E+00 -0.13387618445E+03  0.13387618445E+03  0.00000000000E+00 0.  1.
          2    1    1    2  501    0 -0.23121303648E+02 -0.43558434977E+01 -0.23972501198E+02  0.33589416021E+02  0.00000000000E+00 0.  1.
          1    1    1    2  502    0  0.29930876663E+02  0.25920064817E+02 -0.29702052418E+02  0.49496657016E+02  0.00000000000E+00 0.  1.
         22    1    1    2    0    0 -0.58196938434E+02 -0.15304935647E+02  0.22717209382E+02  0.64321040884E+02  0.00000000000E+00 0.  1.
         22    1    1    2    0    0  0.51387365419E+02 -0.62592856719E+01 -0.29704008975E+02  0.59683901774E+02  0.00000000000E+00 0.  1.
</event>
<event>
 6    1  0.1715574E-005  0.4192561E+02  0.7818608E-02  0.1496315E+00
          2   -1    0    0  502    0  0.00000000000E+00  0.00000000000E+00  0.19997060674E+03  0.19997060674E+03  0.00000000000E+00 0.  1.
          1   -1    0    0  501    0 -0.00000000000E+00 -0.00000000000E+00 -0.19173745125E+03  0.19173745125E+03  0.00000000000E+00 0. -1.
          2    1    1    2  501    0  0.18030122866E+02 -0.21519851409E+02  0.15415533393E+03  0.15669095799E+03  0.00000000000E+00 0.  1.
          1    1    1    2  502    0 -0.17878073944E+02  0.16718998811E+02 -0.93139771895E+02  0.96302479500E+02  0.00000000000E+00 0. -1.
         22    1    1    2    0    0 -0.24847423317E+01  0.16530224514E+02 -0.94165760964E+02  0.95637925557E+02  0.00000000000E+00 0. -1.
         22    1    1    2    0    0  0.23326934100E+01 -0.11729371916E+02  0.41383354420E+02  0.43076694942E+02  0.00000000000E+00 0.  1.
</event>
<event>
 6    1  0.1715574E-005  0.2396848E+02  0.7818608E-02  0.1742085E+00
          2   -1    0    0  502    0  0.00000000000E+00  0.00000000000E+00  0.70992369166E+02  0.70992369166E+02  0.00000000000E+00 0.  1.
          1   -1    0    0  501    0 -0.00000000000E+00 -0.00000000000E+00 -0.21938762394E+03  0.21938762394E+03  0.00000000000E+00 0.  1.
          2    1    1    2  501    0  0.10680414126E+02 -0.19223048315E+02  0.28351408980E+02  0.35880345924E+02  0.00000000000E+00 0.  1.
          1    1    1    2  502    0 -0.23177046541E+02  0.36541605630E+02 -0.83777772637E+02  0.94293051793E+02  0.00000000000E+00 0.  1.
         22    1    1    2    0    0 -0.61987753621E+01 -0.83160160054E+01  0.31942071344E+02  0.33583877977E+02  0.00000000000E+00 0. -1.
         22    1    1    2    0    0  0.18695407777E+02 -0.90025413092E+01 -0.12491096246E+03  0.12662271741E+03  0.00000000000E+00 0.  1.
</event>
<event>
 6    1  0.1715574E-005  0.1240530E+03  0.7818608E-02  0.1236659E+00
          2   -1    0    0  502    0  0.00000000000E+00  0.00000000000E+00  0.35280952833E+03  0.35280952833E+03  0.00000000000E+00 0.  1.
          1   -1    0    0  501    0 -0.00000000000E+00 -0.00000000000E+00 -0.10344219343E+03  0.10344219343E+03  0.00000000000E+00 0. -1.
          2    1    1    2  501    0 -0.20978072546E+02  0.53795515410E+02  0.99583603654E+02  0.11511268880E+03  0.00000000000E+00 0.  1.
          1    1    1    2  502    0  0.49864994322E+02 -0.73307430877E+02 -0.49299866866E+02  0.10144443777E+03  0.00000000000E+00 0. -1.
         22    1    1    2    0    0  0.43533502039E+01 -0.31589022530E+02  0.42214963209E+00  0.31890378058E+02  0.00000000000E+00 0.  1.
         22    1    1    2    0    0 -0.33240271980E+02  0.51100937996E+02  0.19866144849E+03  0.20780421714E+03  0.00000000000E+00 0.  1.
</event>
<event>
 6    1  0.1715574E-005  0.7936180E+02  0.7818608E-02  0.1333559E+00
          2   -1    0    0  502    0  0.00000000000E+00  0.00000000000E+00  0.29684045239E+03  0.29684045239E+03  0.00000000000E+00 0.  1.
          1   -1    0    0  501    0 -0.00000000000E+00 -0.00000000000E+00 -0.89650350738E+02  0.89650350738E+02  0.00000000000E+00 0.  1.
          2    1    1    2  501    0 -0.23235172100E+02  0.43069365159E+02  0.21036882159E+03  0.21598584337E+03  0.00000000000E+00 0.  1.
          1    1    1    2  502    0  0.14464570594E+02 -0.19299747701E+02 -0.28440262452E+02  0.37290113866E+02  0.00000000000E+00 0.  1.
         22    1    1    2    0    0  0.50747386067E+01  0.26933181177E+02  0.63789102890E+02  0.69427652039E+02  0.00000000000E+00 0.  1.
         22    1    1    2    0    0  0.36958628993E+01 -0.50702798634E+02 -0.38527560374E+02  0.63787193858E+02  0.00000000000E+00 0.  1.
</event>
<event>
 6    1  0.1715574E-005  0.1067496E+03  0.7818608E-02  0.1268470E+00
          2   -1    0    0  502    0  0.00000000000E+00  0.00000000000E+00  0.30175984011E+03  0.30175984011E+03  0.00000000000E+00 0. -1.
          1   -1    0    0  501    0 -0.00000000000E+00 -0.00000000000E+00 -0.15311553898E+03  0.15311553898E+03  0.00000000000E+00 0.  1.
          2    1    1    2  501    0 -0.23446223962E+02  0.63757708055E+02  0.22566690805E+03  0.23566994748E+03  0.00000000000E+00 0. -1.
          1    1    1    2  502    0  0.27502885423E+02 -0.51009772071E+02 -0.77789680772E+02  0.97003298851E+02  0.00000000000E+00 0.  1.
         22    1    1    2    0    0  0.25124535347E+01 -0.44672462893E+02 -0.46665955940E+02  0.64650234396E+02  0.00000000000E+00 0.  1.
         22    1    1    2    0    0 -0.65691149959E+01  0.31924526909E+02  0.47433029792E+02  0.57551898365E+02  0.00000000000E+00 0.  1.
</event>
<event>
 6    1  0.1715574E-005  0.1818239E+03  0.7818608E-02  0.1174919E+00
          2   -1    0    0  502    0  0.00000000000E+00  0.00000000000E+00  0.86077215053E+02  0.86077215053E+02  0.00000000000E+00 0. -1.
          1   -1    0    0  501    0 -0.00000000000E+00 -0.00000000000E+00 -0.41984627869E+03  0.41984627869E+03  0.00000000000E+00 0.  1.
          2    1    1    2  501    0  0.49019796244E+02 -0.11079770277E+02  0.34558762091E+02  0.60991882825E+02  0.00000000000E+00 0. -1.
          1    1    1    2  502    0 -0.10112013933E+03  0.27122072537E+02 -0.23037373168E+03  0.25304731898E+03  0.00000000000E+00 0.  1.
         22    1    1    2    0    0  0.92020291121E+02 -0.12901179509E+02 -0.89347176747E+02  0.12890730159E+03  0.00000000000E+00 0. -1.
         22    1    1    2    0    0 -0.39919948036E+02 -0.31411227501E+01 -0.48606917307E+02  0.62976990349E+02  0.00000000000E+00 0. -1.
</event>
<event>
 6    1  0.1715574E-005  0.4838672E+02  0.7818608E-02  0.1525318E+00
          2   -1    0    0  502    0  0.00000000000E+00  0.00000000000E+00  0.10600633992E+03  0.10600633992E+03  0.00000000000E+00 0. -1.
          1   -1    0    0  501    0 -0.00000000000E+00 -0.00000000000E+00 -0.10260865710E+03  0.10260865710E+03  0.00000000000E+00 0. -1.
          2    1    1    2  501    0  0.24269648869E+02 -0.21495824124E+02  0.26873605839E+02  0.42110295675E+02  0.00000000000E+00 0. -1.
          1    1    1    2  502    0 -0.17708919283E+02  0.14065549501E+02 -0.29877132683E+02  0.37471169748E+02  0.00000000000E+00 0. -1.
         22    1    1    2    0    0 -0.17516027849E+02  0.21660227312E+02 -0.56836193166E+02  0.63295572771E+02  0.00000000000E+00 0. -1.
         22    1    1    2    0    0  0.10955298263E+02 -0.14229952689E+02  0.63237402826E+02  0.65737958819E+02  0.00000000000E+00 0.  1.
</event>
<event>
 6    1  0.1715574E-005  0.1437415E+03  0.7818608E-02  0.1235508E+00
          2   -1    0    0  502    0  0.00000000000E+00  0.00000000000E+00  0.43853971210E+03  0.43853971210E+03  0.00000000000E+00 0. -1.
          1   -1    0    0  501    0 -0.00000000000E+00 -0.00000000000E+00 -0.92954508080E+02  0.92954508080E+02  0.00000000000E+00 0. -1.
          2    1    1    2  501    0  0.29686731153E+02  0.38771330808E+02  0.75376298739E+02  0.89811494313E+02  0.00000000000E+00 0. -1.
          1    1    1    2  502    0  0.39762364992E+02 -0.57596769155E+02 -0.51979261589E+02  0.87179568261E+02  0.00000000000E+00 0. -1.
         22    1    1    2    0    0  0.98193494656E+01 -0.59366428746E+01 -0.80282944349E+01  0.14004173095E+02  0.00000000000E+00 0. -1.
         22    1    1    2    0    0 -0.79268445611E+02  0.24762081221E+02  0.33021646131E+03  0.34049898452E+03  0.00000000000E+00 0. -1.
</event>
<event>
 6    1  0.1715574E-005  0.8788343E+02  0.7818608E-02  0.1343918E+00
          2   -1    0    0  502    0  0.00000000000E+00  0.00000000000E+00  0.13385455634E+03  0.13385455634E+03  0.00000000000E+00 0. -1.
          1   -1    0    0  501    0 -0.00000000000E+00 -0.00000000000E+00 -0.13203939234E+03  0.13203939234E+03  0.00000000000E+00 0. -1.
          2    1    1    2  501    0 -0.28231988811E+02  0.55383713310E+02  0.86291040260E+01  0.62760356345E+02  0.00000000000E+00 0. -1.
          1    1    1    2  502    0  0.44155683920E+02 -0.30758405805E+02 -0.43959826422E+02  0.69485756017E+02  0.00000000000E+00 0. -1.
         22    1    1    2    0    0 -0.42462432582E+02  0.19141005490E+02  0.61351527490E+02  0.77028866000E+02  0.00000000000E+00 0. -1.
         22    1    1    2    0    0  0.26538737473E+02 -0.43766312995E+02 -0.24205641095E+02  0.56618970325E+02  0.00000000000E+00 0.  1.
</event>
<event>
 6    1  0.1715574E-005  0.4192220E+02  0.7818608E-02  0.1495408E+00
          2   -1    0    0  502    0  0.00000000000E+00  0.00000000000E+00  0.63076848071E+02  0.63076848071E+02  0.00000000000E+00 0.  1.
          1   -1    0    0  501    0 -0.00000000000E+00 -0.00000000000E+00 -0.32276924613E+03  0.32276924613E+03  0.00000000000E+00 0.  1.
          2    1    1    2  501    0  0.22047200348E+02  0.11323602101E+01  0.25373211144E+02  0.33632738910E+02  0.00000000000E+00 0.  1.
          1    1    1    2  502    0 -0.20778255565E+02  0.10497367716E+01 -0.20781884289E+03  0.20885762929E+03  0.00000000000E+00 0.  1.
         22    1    1    2    0    0  0.16976263172E+02 -0.86568130928E+01  0.29361789546E+02  0.35003551385E+02  0.00000000000E+00 0.  1.
         22    1    1    2    0    0 -0.18245207955E+02  0.64747161111E+01 -0.10660855586E+03  0.10835217462E+03  0.00000000000E+00 0.  1.
</event>
<event>
 6    1  0.1715574E-005  0.3980736E+02  0.7818608E-02  0.1572952E+00
          2   -1    0    0  502    0  0.00000000000E+00  0.00000000000E+00  0.18691755991E+03  0.18691755991E+03  0.00000000000E+00 0.  1.
          1   -1    0    0  501    0 -0.00000000000E+00 -0.00000000000E+00 -0.30645665079E+03  0.30645665079E+03  0.00000000000E+00 0.  1.
          2    1    1    2  501    0 -0.10032036379E+02  0.20091782156E+02  0.13816311086E+03  0.13997630752E+03  0.00000000000E+00 0.  1.
          1    1    1    2  502    0  0.21694744105E+02 -0.17587220431E+02 -0.21389713435E+03  0.21571267076E+03  0.00000000000E+00 0.  1.
         22    1    1    2    0    0 -0.58519145012E+01  0.13977165146E+02  0.44841467096E+02  0.47332475323E+02  0.00000000000E+00 0.  1.
         22    1    1    2    0    0 -0.58107932252E+01 -0.16481726871E+02 -0.88646534490E+02  0.90352757100E+02  0.00000000000E+00 0.  1.
</event>
<event>
 6    1  0.1715574E-005  0.5508846E+02  0.7818608E-02  0.1535532E+00
          2   -1    0    0  502    0  0.00000000000E+00  0.00000000000E+00  0.13817882884E+03  0.13817882884E+03  0.00000000000E+00 0. -1.
          1   -1    0    0  501    0 -0.00000000000E+00 -0.00000000000E+00 -0.17936758718E+03  0.17936758718E+03  0.00000000000E+00 0.  1.
          2    1    1    2  501    0  0.68678314826E+02 -0.18881341408E+01  0.27978796664E+02  0.74182808255E+02  0.00000000000E+00 0. -1.
          1    1    1    2  502    0 -0.32540339600E+02  0.33874303053E+02 -0.97720634666E+02  0.10842354241E+03  0.00000000000E+00 0.  1.
         22    1    1    2    0    0  0.11414406846E+01  0.10574504795E+02 -0.42672019277E+02  0.43977542765E+02  0.00000000000E+00 0.  1.
         22    1    1    2    0    0 -0.37279415910E+02 -0.42560673707E+02  0.71225098942E+02  0.90962522592E+02  0.00000000000E+00 0. -1.
</event>
<event>
 6    1  0.1715574E-005  0.5718374E+02  0.7818608E-02  0.1444276E+00
          2   -1    0    0  502    0  0.00000000000E+00  0.00000000000E+00  0.44508275029E+03  0.44508275029E+03  0.00000000000E+00 0. -1.
          1   -1    0    0  501    0 -0.00000000000E+00 -0.00000000000E+00 -0.10140189315E+03  0.10140189315E+03  0.00000000000E+00 0. -1.
          2    1    1    2  501    0 -0.22313708787E+02 -0.33483647853E+02  0.23471406195E+03  0.23813808421E+03  0.00000000000E+00 0. -1.
          1    1    1    2  502    0  0.37546574862E+02  0.16578963378E+02 -0.73476648044E+02  0.84163086435E+02  0.00000000000E+00 0. -1.
         22    1    1    2    0    0  0.15586628971E+02  0.26487392519E+01 -0.16213124296E+02  0.22645622573E+02  0.00000000000E+00 0. -1.
         22    1    1    2    0    0 -0.30819495045E+02  0.14255945223E+02  0.19865656753E+03  0.20153785022E+03  0.00000000000E+00 0.  1.
</event>
<event>
 6    1  0.1715574E-005  0.7568860E+02  0.7818608E-02  0.1406209E+00
          2   -1    0    0  502    0  0.00000000000E+00  0.00000000000E+00  0.20316393423E+03  0.20316393423E+03  0.00000000000E+00 0. -1.
          1   -1    0    0  501    0 -0.00000000000E+00 -0.00000000000E+00 -0.34699401949E+03  0.34699401949E+03  0.00000000000E+00 0.  1.
          2    1    1    2  501    0  0.59805290401E+02 -0.79118883827E+00  0.13920788032E+03  0.15151281360E+03  0.00000000000E+00 0. -1.
          1    1    1    2  502    0 -0.66528368869E+02 -0.19493060647E+02 -0.26297041343E+03  0.27195485217E+03  0.00000000000E+00 0.  1.
         22    1    1    2    0    0 -0.81810340865E+01  0.24875207380E+02 -0.69810420398E+02  0.74560043302E+02  0.00000000000E+00 0.  1.
         22    1    1    2    0    0  0.14904112554E+02 -0.45909578950E+01  0.49742868254E+02  0.52130244653E+02  0.00000000000E+00 0.  1.
</event>
<event>
 6    1  0.1715574E-005  0.7093100E+02  0.7818608E-02  0.1383465E+00
          2   -1    0    0  502    0  0.00000000000E+00  0.00000000000E+00  0.60303865313E+02  0.60303865313E+02  0.00000000000E+00 0. -1.
          1   -1    0    0  501    0 -0.00000000000E+00 -0.00000000000E+00 -0.18450468144E+03  0.18450468144E+03  0.00000000000E+00 0. -1.
          2    1    1    2  501    0 -0.14753453522E+01 -0.23134709052E+02 -0.12375509142E+02  0.26278215947E+02  0.00000000000E+00 0. -1.
          1    1    1    2  502    0  0.12952452953E+02  0.25367383992E+02 -0.84572560917E+02  0.89240059773E+02  0.00000000000E+00 0. -1.
         22    1    1    2    0    0 -0.14383678235E+02 -0.18329054659E+02  0.47426631502E+02  0.52840607679E+02  0.00000000000E+00 0. -1.
         22    1    1    2    0    0  0.29065706338E+01  0.16096379719E+02 -0.74679377568E+02  0.76449663354E+02  0.00000000000E+00 0.  1.
</event>
<event>
 6    1  0.1715574E-005  0.2352699E+02  0.7818608E-02  0.1698935E+00
          2   -1    0    0  502    0  0.00000000000E+00  0.00000000000E+00  0.79408238754E+02  0.79408238754E+02  0.00000000000E+00 0.  1.
          1   -1    0    0  501    0 -0.00000000000E+00 -0.00000000000E+00 -0.11550519235E+03  0.11550519235E+03  0.00000000000E+00 0. -1.
          2    1    1    2  501    0  0.18744685362E+02  0.15782640300E+02  0.87329953706E+01  0.26013845781E+02  0.00000000000E+00 0.  1.
          1    1    1    2  502    0 -0.26947374761E+02 -0.12903380235E+02 -0.31410565595E+02  0.43350684643E+02  0.00000000000E+00 0. -1.
         22    1    1    2    0    0 -0.61526164244E+01 -0.13278118326E+02 -0.67276461397E+02  0.68849730379E+02  0.00000000000E+00 0.  1.
         22    1    1    2    0    0  0.14355305823E+02  0.10398858261E+02  0.53857078030E+02  0.56699170297E+02  0.00000000000E+00 0.  1.
</event>
<event>
 6    1  0.1715574E-005  0.6844130E+02  0.7818608E-02  0.1397954E+00
          2   -1    0    0  502    0  0.00000000000E+00  0.00000000000E+00  0.21857848985E+03  0.21857848985E+03  0.00000000000E+00 0. -1.
          1   -1    0    0  501    0 -0.00000000000E+00 -0.00000000000E+00 -0.55209709276E+02  0.55209709276E+02  0.00000000000E+00 0. -1.
          2    1    1    2  501    0 -0.16482831581E+02  0.18957706340E+02  0.37075126226E+02  0.44784409690E+02  0.00000000000E+00 0. -1.
          1    1    1    2  502    0  0.17251195747E+00 -0.20853286388E+02 -0.23325116715E+02  0.31288182806E+02  0.00000000000E+00 0. -1.
         22    1    1    2    0    0 -0.14217301578E+02 -0.13212943615E+02 -0.18120402096E+02  0.26553013299E+02  0.00000000000E+00 0. -1.
         22    1    1    2    0    0  0.30527621202E+02  0.15108523664E+02  0.16773917316E+03  0.17116259333E+03  0.00000000000E+00 0. -1.
</event>
<event>
 6    1  0.1715574E-005  0.5374001E+02  0.7818608E-02  0.1447188E+00
          2   -1    0    0  502    0  0.00000000000E+00  0.00000000000E+00  0.11465314231E+03  0.11465314231E+03  0.00000000000E+00 0. -1.
          1   -1    0    0  501    0 -0.00000000000E+00 -0.00000000000E+00 -0.21221072764E+03  0.21221072764E+03  0.00000000000E+00 0. -1.
          2    1    1    2  501    0 -0.38302039840E+02 -0.11155830731E+01  0.60568278639E+02  0.71671522649E+02  0.00000000000E+00 0. -1.
          1    1    1    2  502    0  0.34684597402E+02  0.28900292446E+02 -0.10765763883E+03  0.11674080434E+03  0.00000000000E+00 0. -1.
         22    1    1    2    0    0  0.17718392139E+02 -0.34949008503E+02 -0.88758645306E+02  0.97023047427E+02  0.00000000000E+00 0. -1.
         22    1    1    2    0    0 -0.14100949701E+02  0.71642991305E+01  0.38290420176E+02  0.41428495528E+02  0.00000000000E+00 0. -1.
</event>
<event>
 6    1  0.1715574E-005  0.1142906E+03  0.7818608E-02  0.1297972E+00
          2   -1    0    0  502    0  0.00000000000E+00  0.00000000000E+00  0.25430324475E+03  0.25430324475E+03  0.00000000000E+00 0.  1.
          1   -1    0    0  501    0 -0.00000000000E+00 -0.00000000000E+00 -0.25116402408E+03  0.25116402408E+03  0.00000000000E+00 0. -1.
          2    1    1    2  501    0  0.11417042068E+03 -0.27410589395E+02  0.18551927610E+03  0.21955324450E+03  0.00000000000E+00 0.  1.
          1    1    1    2  502    0 -0.75043365903E+01  0.19060309323E+02 -0.93691600981E+02  0.95904778575E+02  0.00000000000E+00 0. -1.
         22    1    1    2    0    0 -0.10832631794E+03 -0.17970870710E+02 -0.13870997017E+02  0.11067948279E+03  0.00000000000E+00 0. -1.
         22    1    1    2    0    0  0.16602338524E+01  0.26321150782E+02 -0.74817457431E+02  0.79329762961E+02  0.00000000000E+00 0.  1.
</event>
<event>
 6    1  0.1715574E-005  0.1172923E+03  0.7818608E-02  0.1347447E+00
          2   -1    0    0  502    0  0.00000000000E+00  0.00000000000E+00  0.28557554076E+03  0.28557554076E+03  0.00000000000E+00 0.  1.
          1   -1    0    0  501    0 -0.00000000000E+00 -0.00000000000E+00 -0.13414072398E+03  0.13414072398E+03  0.00000000000E+00 0. -1.
          2    1    1    2  501    0  0.62169257426E+02  0.83284468438E+02  0.12743941601E+03  0.16444489656E+03  0.00000000000E+00 0.  1.
          1    1    1    2  502    0 -0.51180742196E+02 -0.77455269915E+02 -0.54527522900E+02  0.10766632697E+03  0.00000000000E+00 0. -1.
         22    1    1    2    0    0 -0.39694715321E+01  0.18007607383E+02  0.10770767656E+03  0.10927476478E+03  0.00000000000E+00 0. -1.
         22    1    1    2    0    0 -0.70190436985E+01 -0.23836805906E+02 -0.29184752890E+02  0.38330276434E+02  0.00000000000E+00 0. -1.
</event>
<event>
 6    1  0.1715574E-005  0.1021319E+03  0.7818608E-02  0.1277218E+00
          2   -1    0    0  502    0  0.00000000000E+00  0.00000000000E+00  0.75857686436E+03  0.75857686436E+03  0.00000000000E+00 0.  1.
          1   -1    0    0  501    0 -0.00000000000E+00 -0.00000000000E+00 -0.33979123459E+02  0.33979123459E+02  0.00000000000E+00 0.  1.
          2    1    1    2  501    0  0.27606305105E+02 -0.64919625536E+02  0.56340085914E+03  0.56780031167E+03  0.00000000000E+00 0.  1.
          1    1    1    2  502    0 -0.33936470095E+01  0.20470064589E+02  0.23348877523E+02  0.31236364480E+02  0.00000000000E+00 0.  1.
         22    1    1    2    0    0  0.10733484634E+01 -0.27062304561E+02  0.10908710324E+03  0.11239891680E+03  0.00000000000E+00 0.  1.
         22    1    1    2    0    0 -0.25286006559E+02  0.71511865508E+02  0.28760900999E+02  0.81120394861E+02  0.00000000000E+00 0.  1.
</event>
<event>
 6    1  0.1715574E-005  0.1385787E+03  0.7818608E-02  0.1238139E+00
          2   -1    0    0  502    0  0.00000000000E+00  0.00000000000E+00  0.59295981075E+02  0.59295981075E+02  0.00000000000E+00 0.  1.
          1   -1    0    0  501    0 -0.00000000000E+00 -0.00000000000E+00 -0.80384824319E+03  0.80384824319E+03  0.00000000000E+00 0. -1.
          2    1    1    2  501    0 -0.73052290908E+02 -0.10442302377E+02  0.14398414115E+02  0.75186389825E+02  0.00000000000E+00 0.  1.
          1    1    1    2  502    0  0.41902091977E+02 -0.46088047815E+02 -0.36500092952E+03  0.37027769580E+03  0.00000000000E+00 0. -1.
         22    1    1    2    0    0 -0.96120547227E+01 -0.77001552020E+01  0.36679557413E+01  0.12850598642E+02  0.00000000000E+00 0.  1.
         22    1    1    2    0    0  0.40762253654E+02  0.64230505395E+02 -0.39761770246E+03  0.40482954000E+03  0.00000000000E+00 0. -1.
</event>
<event>
 6    1  0.1715574E-005  0.6938176E+02  0.7818608E-02  0.1440210E+00
          2   -1    0    0  502    0  0.00000000000E+00  0.00000000000E+00  0.32909559318E+02  0.32909559318E+02  0.00000000000E+00 0. -1.
          1   -1    0    0  501    0 -0.00000000000E+00 -0.00000000000E+00 -0.48587817310E+03  0.48587817310E+03  0.00000000000E+00 0. -1.
          2    1    1    2  501    0  0.54742506551E+02 -0.30492986831E+02 -0.45773196848E+02  0.77599934401E+02  0.00000000000E+00 0. -1.
          1    1    1    2  502    0 -0.99316372110E+01  0.21351801546E+02 -0.15660542823E+03  0.15836602224E+03  0.00000000000E+00 0. -1.
         22    1    1    2    0    0 -0.37519003654E+02  0.27977697537E+02 -0.25731217907E+03  0.26153390735E+03  0.00000000000E+00 0. -1.
         22    1    1    2    0    0 -0.72918656861E+01 -0.18836512253E+02  0.67221903699E+01  0.21287868433E+02  0.00000000000E+00 0. -1.
</event>
<event>
 6    1  0.1715574E-005  0.1569291E+03  0.7818608E-02  0.1206102E+00
          2   -1    0    0  502    0  0.00000000000E+00  0.00000000000E+00  0.26939183630E+02  0.26939183630E+02  0.00000000000E+00 0. -1.
          1   -1    0    0  501    0 -0.00000000000E+00 -0.00000000000E+00 -0.76252665986E+03  0.76252665986E+03  0.00000000000E+00 0. -1.
          2    1    1    2  501    0 -0.76265590521E+02 -0.59163290568E+02 -0.29263786646E+03  0.30814551130E+03  0.00000000000E+00 0. -1.
          1    1    1    2  502    0  0.40758799156E+00 -0.22636308778E+02 -0.37250273904E+02  0.43590727328E+02  0.00000000000E+00 0. -1.
         22    1    1    2    0    0  0.13665901654E+02  0.24901519503E+02 -0.57333722308E+01  0.28977820807E+02  0.00000000000E+00 0. -1.
         22    1    1    2    0    0  0.62192100875E+02  0.56898079843E+02 -0.39996596364E+03  0.40875178405E+03  0.00000000000E+00 0. -1.
</event>
<event>
 6    1  0.1715574E-005  0.2442753E+03  0.7818608E-02  0.1136702E+00
          2   -1    0    0  502    0  0.00000000000E+00  0.00000000000E+00  0.10122111233E+04  0.10122111233E+04  0.00000000000E+00 0. -1.
          1   -1    0    0  501    0 -0.00000000000E+00 -0.00000000000E+00 -0.75009940805E+02  0.75009940805E+02  0.00000000000E+00 0. -1.
          2    1    1    2  501    0 -0.55631107926E+02 -0.58895378374E+01  0.48438735404E+03  0.48760702987E+03  0.00000000000E+00 0. -1.
          1    1    1    2  502    0  0.13027798298E+02 -0.13344008832E+03  0.31425355181E+02  0.13770814663E+03  0.00000000000E+00 0. -1.
         22    1    1    2    0    0 -0.12589288418E+02 -0.96881173183E+01  0.56978951045E+01  0.16876486858E+02  0.00000000000E+00 0. -1.
         22    1    1    2    0    0  0.55192598046E+02  0.14901774348E+03  0.41569057814E+03  0.44502940072E+03  0.00000000000E+00 0.  1.
</event>
<event>
 6    1  0.1715574E-005  0.6320307E+02  0.7818608E-02  0.1462625E+00
          2   -1    0    0  502    0  0.00000000000E+00  0.00000000000E+00  0.14244619902E+03  0.14244619902E+03  0.00000000000E+00 0. -1.
          1   -1    0    0  501    0 -0.00000000000E+00 -0.00000000000E+00 -0.20807420957E+03  0.20807420957E+03  0.00000000000E+00 0. -1.
          2    1    1    2  501    0  0.36682695715E+02 -0.26303856661E+02  0.56835447619E+02  0.72579481579E+02  0.00000000000E+00 0. -1.
          1    1    1    2  502    0 -0.38210223891E+02  0.19675796574E+02 -0.14690439533E+03  0.15306227343E+03  0.00000000000E+00 0. -1.
         22    1    1    2    0    0  0.18595368666E+02 -0.48477412136E+01  0.71225777577E+02  0.73772621765E+02  0.00000000000E+00 0. -1.
         22    1    1    2    0    0 -0.17067840490E+02  0.11475801301E+02 -0.46784840420E+02  0.51106031812E+02  0.00000000000E+00 0. -1.
</event>
<event>
 6    1  0.2646221E-005  0.7517796E+02  0.7818608E-02  0.1379384E+00
          2   -1    0    0  502    0  0.00000000000E+00  0.00000000000E+00  0.13183202546E+03  0.13183202546E+03  0.00000000000E+00 0.  1.
          1   -1    0    0  501    0 -0.00000000000E+00 -0.00000000000E+00 -0.14056189640E+04  0.14056189640E+04  0.00000000000E+00 0. -1.
          2    1    1    2  501    0  0.24370981638E+02  0.93879867156E+02 -0.20487738667E+01  0.97013255164E+02  0.00000000000E+00 0.  1.
          1    1    1    2  502    0 -0.61150187499E+01 -0.10657335087E+03 -0.13053170252E+04  0.13096746958E+04  0.00000000000E+00 0. -1.
         22    1    1    2    0    0 -0.29925789648E+02  0.34802258828E+02  0.71725403918E+02  0.85154469482E+02  0.00000000000E+00 0.  1.
         22    1    1    2    0    0  0.11669826761E+02 -0.22108775113E+02 -0.38146543393E+02  0.45608569002E+02  0.00000000000E+00 0.  1.
</event>
<event>
 6    1  0.1715574E-005  0.2638528E+02  0.7818608E-02  0.1655398E+00
          2   -1    0    0  502    0  0.00000000000E+00  0.00000000000E+00  0.45726018510E+02  0.45726018510E+02  0.00000000000E+00 0. -1.
          1   -1    0    0  501    0 -0.00000000000E+00 -0.00000000000E+00 -0.21370143205E+03  0.21370143205E+03  0.00000000000E+00 0. -1.
          2    1    1    2  501    0  0.27588104430E+02  0.44491857134E+01 -0.23446071906E+02  0.36477623927E+02  0.00000000000E+00 0. -1.
          1    1    1    2  502    0 -0.33004400039E+02  0.14968491564E+01 -0.71098709407E+02  0.78399983793E+02  0.00000000000E+00 0. -1.
         22    1    1    2    0    0  0.47120836764E+01  0.18466291545E+02  0.31498907322E+02  0.36815605638E+02  0.00000000000E+00 0. -1.
         22    1    1    2    0    0  0.70421193254E+00 -0.24412326415E+02 -0.10492953955E+03  0.10773423720E+03  0.00000000000E+00 0. -1.
</event>
<event>
 6    1  0.1715574E-005  0.1184063E+03  0.7818608E-02  0.1271657E+00
          2   -1    0    0  502    0  0.00000000000E+00  0.00000000000E+00  0.11460683984E+03  0.11460683984E+03  0.00000000000E+00 0.  1.
          1   -1    0    0  501    0 -0.00000000000E+00 -0.00000000000E+00 -0.24353576849E+03  0.24353576849E+03  0.00000000000E+00 0.  1.
          2    1    1    2  501    0  0.38624702657E+02  0.11564233917E+01 -0.12175784718E+02  0.40514870158E+02  0.00000000000E+00 0.  1.
          1    1    1    2  502    0 -0.47722469781E+02 -0.36485434161E+02 -0.16881991963E+03  0.17918924715E+03  0.00000000000E+00 0.  1.
         22    1    1    2    0    0 -0.39547493838E+01 -0.10131747648E+02 -0.36471588408E+02  0.38058758704E+02  0.00000000000E+00 0. -1.
         22    1    1    2    0    0  0.13052516508E+02  0.45460758417E+02  0.88538364107E+02  0.10037973233E+03  0.00000000000E+00 0.  1.
</event>
<event>
 6    1  0.1715574E-005  0.9080005E+02  0.7818608E-02  0.1301431E+00
          2   -1    0    0  502    0  0.00000000000E+00  0.00000000000E+00  0.18848327114E+03  0.18848327114E+03  0.00000000000E+00 0.  1.
          1   -1    0    0  501    0 -0.00000000000E+00 -0.00000000000E+00 -0.11441400057E+03  0.11441400057E+03  0.00000000000E+00 0.  1.
          2    1    1    2  501    0 -0.22910984852E+02 -0.16726500319E+01  0.35890541990E+02  0.42612697513E+02  0.00000000000E+00 0.  1.
          1    1    1    2  502    0  0.69017267454E+02  0.29280866661E+02 -0.58386852537E+02  0.95025138298E+02  0.00000000000E+00 0.  1.
         22    1    1    2    0    0 -0.55117976623E+02 -0.37845259338E+02  0.12044601576E+03  0.13775883897E+03  0.00000000000E+00 0.  1.
         22    1    1    2    0    0  0.90116940207E+01  0.10237042709E+02 -0.23880434647E+02  0.27500596930E+02  0.00000000000E+00 0.  1.
</event>
<event>
 6    1  0.1715574E-005  0.1070567E+03  0.7818608E-02  0.1286323E+00
          2   -1    0    0  502    0  0.00000000000E+00  0.00000000000E+00  0.17461225418E+03  0.17461225418E+03  0.00000000000E+00 0.  1.
          1   -1    0    0  501    0 -0.00000000000E+00 -0.00000000000E+00 -0.61888735727E+02  0.61888735727E+02  0.00000000000E+00 0.  1.
          2    1    1    2  501    0 -0.30459542170E+02 -0.16103752034E+02  0.55806419600E+02  0.65585600610E+02  0.00000000000E+00 0.  1.
          1    1    1    2  502    0 -0.24477863029E+02  0.96894883566E+01  0.14069031169E+01  0.26363447033E+02  0.00000000000E+00 0.  1.
         22    1    1    2    0    0  0.69119315045E+02  0.41713054832E+02  0.44159738483E+01  0.80851465545E+02  0.00000000000E+00 0.  1.
         22    1    1    2    0    0 -0.14181909847E+02 -0.35298791155E+02  0.51094221890E+02  0.63700476720E+02  0.00000000000E+00 0. -1.
</event>
<event>
 6    1  0.1715574E-005  0.1702239E+03  0.7818608E-02  0.1191427E+00
          2   -1    0    0  502    0  0.00000000000E+00  0.00000000000E+00  0.37975237492E+03  0.37975237492E+03  0.00000000000E+00 0.  1.
          1   -1    0    0  501    0 -0.00000000000E+00 -0.00000000000E+00 -0.61284844291E+02  0.61284844291E+02  0.00000000000E+00 0.  1.
          2    1    1    2  501    0 -0.24268050227E+01  0.62848488174E+02  0.21479192102E+02  0.66461850273E+02  0.00000000000E+00 0.  1.
          1    1    1    2  502    0 -0.49623823736E+02 -0.45959717010E+02  0.28577589979E+02  0.73426821522E+02  0.00000000000E+00 0.  1.
         22    1    1    2    0    0  0.54189047044E+02  0.37410122953E+02  0.21537448752E+03  0.22521576320E+03  0.00000000000E+00 0.  1.
         22    1    1    2    0    0 -0.21384182862E+01 -0.54298894117E+02  0.53036261028E+02  0.75932784217E+02  0.00000000000E+00 0.  1.
</event>
<event>
 6    1  0.1715574E-005  0.7080469E+02  0.7818608E-02  0.1438368E+00
          2   -1    0    0  502    0  0.00000000000E+00  0.00000000000E+00  0.47481818215E+02  0.47481818215E+02  0.00000000000E+00 0.  1.
          1   -1    0    0  501    0 -0.00000000000E+00 -0.00000000000E+00 -0.32842433731E+03  0.32842433731E+03  0.00000000000E+00 0. -1.
          2    1    1    2  501    0  0.19285316568E+02 -0.13235719410E+02 -0.19383898626E+02  0.30378334868E+02  0.00000000000E+00 0.  1.
          1    1    1    2  502    0 -0.60824561045E+02 -0.34256095416E+02 -0.14103358015E+03  0.15736447512E+03  0.00000000000E+00 0. -1.
         22    1    1    2    0    0  0.39369077346E+02  0.66907116533E+02 -0.14031289497E+03  0.16035646226E+03  0.00000000000E+00 0.  1.
         22    1    1    2    0    0  0.21701671313E+01 -0.19415301707E+02  0.19787854653E+02  0.27806883276E+02  0.00000000000E+00 0.  1.
</event>
<event>
 6    1  0.1715574E-005  0.2851661E+02  0.7818608E-02  0.1691363E+00
          2   -1    0    0  502    0  0.00000000000E+00  0.00000000000E+00  0.14168156995E+03  0.14168156995E+03  0.00000000000E+00 0. -1.
          1   -1    0    0  501    0 -0.00000000000E+00 -0.00000000000E+00 -0.35019342496E+03  0.35019342496E+03  0.00000000000E+00 0.  1.
          2    1    1    2  501    0  0.29800045465E+02  0.22775751927E+02  0.66212856868E+02  0.76098094589E+02  0.00000000000E+00 0. -1.
          1    1    1    2  502    0 -0.18195546189E+02  0.13588776519E+02 -0.28040193070E+03  0.28132005881E+03  0.00000000000E+00 0.  1.
         22    1    1    2    0    0 -0.45922970026E+01 -0.26519968734E+02  0.66869253276E+02  0.72082556607E+02  0.00000000000E+00 0. -1.
         22    1    1    2    0    0 -0.70122022728E+01 -0.98445597119E+01 -0.61192034444E+02  0.62374284894E+02  0.00000000000E+00 0.  1.
</event>
<event>
 6    1  0.1715574E-005  0.4953900E+02  0.7818608E-02  0.1449785E+00
          2   -1    0    0  502    0  0.00000000000E+00  0.00000000000E+00  0.17922016715E+03  0.17922016715E+03  0.00000000000E+00 0. -1.
          1   -1    0    0  501    0 -0.00000000000E+00 -0.00000000000E+00 -0.21114557431E+03  0.21114557431E+03  0.00000000000E+00 0.  1.
          2    1    1    2  501    0  0.20869692301E+02 -0.17023905654E+02  0.77877906407E+02  0.82403432736E+02  0.00000000000E+00 0. -1.
          1    1    1    2  502    0 -0.24425933614E+02  0.26614812142E+02 -0.16564604062E+03  0.16953933240E+03  0.00000000000E+00 0.  1.
         22    1    1    2    0    0 -0.77879734985E+00  0.11600029338E+02 -0.39232229675E+02  0.40918639411E+02  0.00000000000E+00 0.  1.
         22    1    1    2    0    0  0.43350386637E+01 -0.21190935826E+02  0.95074956721E+02  0.97504336914E+02  0.00000000000E+00 0.  1.
</event>
<event>
 6    1  0.1715574E-005  0.3535052E+02  0.7818608E-02  0.1581802E+00
          2   -1    0    0  502    0  0.00000000000E+00  0.00000000000E+00  0.17796519916E+03  0.17796519916E+03  0.00000000000E+00 0.  1.
          1   -1    0    0  501    0 -0.00000000000E+00 -0.00000000000E+00 -0.22523128965E+04  0.22523128965E+04  0.00000000000E+00 0. -1.
          2    1    1    2  501    0 -0.35357063622E+02 -0.21422290138E+02  0.74503753530E+02  0.85204728465E+02  0.00000000000E+00 0.  1.
          1    1    1    2  502    0  0.54749171500E+02  0.16326579521E+02 -0.22046672812E+04  0.22054074112E+04  0.00000000000E+00 0. -1.
         22    1    1    2    0    0 -0.14772786118E+02  0.20271167125E+02  0.94544129657E+02  0.97814865327E+02  0.00000000000E+00 0.  1.
         22    1    1    2    0    0 -0.46193217597E+01 -0.15175456508E+02 -0.38728299326E+02  0.41851090576E+02  0.00000000000E+00 0.  1.
</event>
<event>
 6    1  0.1715574E-005  0.1917207E+03  0.7818608E-02  0.1161676E+00
          2   -1    0    0  502    0  0.00000000000E+00  0.00000000000E+00  0.66368768358E+02  0.66368768358E+02  0.00000000000E+00 0.  1.
          1   -1    0    0  501    0 -0.00000000000E+00 -0.00000000000E+00 -0.58770913504E+03  0.58770913504E+03  0.00000000000E+00 0. -1.
          2    1    1    2  501    0  0.22293689491E+02 -0.29343751548E+02 -0.75886909669E+02  0.84361646529E+02  0.00000000000E+00 0.  1.
          1    1    1    2  502    0 -0.14237611733E+03  0.54666532090E+02 -0.31590538916E+03  0.35079282122E+03  0.00000000000E+00 0. -1.
         22    1    1    2    0    0  0.13680355793E+03 -0.28908631678E+02 -0.68838888721E+02  0.15585158019E+03  0.00000000000E+00 0.  1.
         22    1    1    2    0    0 -0.16721130090E+02  0.35858511360E+01 -0.60709179134E+02  0.63071855459E+02  0.00000000000E+00 0.  1.
</event>
<event>
 6    1  0.1715574E-005  0.5100525E+02  0.7818608E-02  0.1478183E+00
          2   -1    0    0  502    0  0.00000000000E+00  0.00000000000E+00  0.20267579645E+03  0.20267579645E+03  0.00000000000E+00 0.  1.
          1   -1    0    0  501    0 -0.00000000000E+00 -0.00000000000E+00 -0.24949120259E+03  0.24949120259E+03  0.00000000000E+00 0. -1.
          2    1    1    2  501    0  0.12943188925E+02  0.15883512523E+02  0.68384309384E+02  0.71387855266E+02  0.00000000000E+00 0.  1.
          1    1    1    2  502    0 -0.30718910388E+02 -0.42025456463E+02 -0.21103422804E+03  0.21735969234E+03  0.00000000000E+00 0. -1.
         22    1    1    2    0    0 -0.12598715779E+02  0.26411571488E+02 -0.25208410659E+02  0.38623344180E+02  0.00000000000E+00 0. -1.
         22    1    1    2    0    0  0.30374437242E+02 -0.26962754666E+00  0.12104292317E+03  0.12479610726E+03  0.00000000000E+00 0.  1.
</event>
<event>
 6    1  0.1715574E-005  0.7094003E+02  0.7818608E-02  0.1387144E+00
          2   -1    0    0  502    0  0.00000000000E+00  0.00000000000E+00  0.53051986562E+03  0.53051986562E+03  0.00000000000E+00 0. -1.
          1   -1    0    0  501    0 -0.00000000000E+00 -0.00000000000E+00 -0.38920869997E+02  0.38920869997E+02  0.00000000000E+00 0.  1.
          2    1    1    2  501    0  0.29669427240E+02  0.66470742984E+02  0.22393066602E+03  0.23546459982E+03  0.00000000000E+00 0. -1.
          1    1    1    2  502    0  0.22397357373E+02 -0.15603987004E+02 -0.19244485855E+01  0.27364749772E+02  0.00000000000E+00 0.  1.
         22    1    1    2    0    0 -0.62445007365E+02 -0.41172344787E+02  0.27947421442E+03  0.28931017515E+03  0.00000000000E+00 0.  1.
         22    1    1    2    0    0  0.10378222751E+02 -0.96944111930E+01 -0.98814362275E+01  0.17301210876E+02  0.00000000000E+00 0. -1.
</event>
<event>
 6    1  0.1715574E-005  0.1447590E+03  0.7818608E-02  0.1207615E+00
          2   -1    0    0  502    0  0.00000000000E+00  0.00000000000E+00  0.22042808131E+03  0.22042808131E+03  0.00000000000E+00 0. -1.
          1   -1    0    0  501    0 -0.00000000000E+00 -0.00000000000E+00 -0.49248085470E+03  0.49248085470E+03  0.00000000000E+00 0. -1.
          2    1    1    2  501    0  0.53948829170E+02  0.69527513331E+02  0.92526496713E+02  0.12769378948E+03  0.00000000000E+00 0. -1.
          1    1    1    2  502    0 -0.78223425530E+02 -0.10409917823E+03 -0.42160268043E+03  0.44125317376E+03  0.00000000000E+00 0. -1.
         22    1    1    2    0    0 -0.31862261245E+01 -0.12301509811E+02 -0.34924737153E+02  0.37164720445E+02  0.00000000000E+00 0.  1.
         22    1    1    2    0    0  0.27460822485E+02  0.46873174707E+02  0.91948147475E+02  0.10679725232E+03  0.00000000000E+00 0. -1.
</event>
<event>
 6    1  0.1715574E-005  0.1060057E+03  0.7818608E-02  0.1277750E+00
          2   -1    0    0  502    0  0.00000000000E+00  0.00000000000E+00  0.74467603294E+02  0.74467603294E+02  0.00000000000E+00 0. -1.
          1   -1    0    0  501    0 -0.00000000000E+00 -0.00000000000E+00 -0.17366900381E+03  0.17366900381E+03  0.00000000000E+00 0. -1.
          2    1    1    2  501    0  0.37997745932E+02 -0.32062480925E+02 -0.61719019981E+02  0.79253194298E+02  0.00000000000E+00 0. -1.
          1    1    1    2  502    0 -0.25065316819E+02 -0.48167500054E+01  0.13997086360E+02  0.29109957307E+02  0.00000000000E+00 0. -1.
         22    1    1    2    0    0 -0.25428153352E+02  0.73188501192E+02 -0.24791411888E+01  0.77519635130E+02  0.00000000000E+00 0. -1.
         22    1    1    2    0    0  0.12495724240E+02 -0.36309270261E+02 -0.49000325705E+02  0.62253820368E+02  0.00000000000E+00 0. -1.
</event>
<event>
 6    1  0.1715574E-005  0.6675441E+02  0.7818608E-02  0.1418977E+00
          2   -1    0    0  502    0  0.00000000000E+00  0.00000000000E+00  0.16879220683E+03  0.16879220683E+03  0.00000000000E+00 0. -1.
          1   -1    0    0  501    0 -0.00000000000E+00 -0.00000000000E+00 -0.11819646537E+03  0.11819646537E+03  0.00000000000E+00 0. -1.
          2    1    1    2  501    0 -0.30775006777E+02  0.24604972089E+02  0.61787517384E+02  0.73281668909E+02  0.00000000000E+00 0. -1.
          1    1    1    2  502    0  0.46680906579E+01 -0.56619703495E+02 -0.49864751383E+02  0.75591502993E+02  0.00000000000E+00 0. -1.
         22    1    1    2    0    0 -0.43008654816E+01  0.24604623010E+02  0.81403342781E+02  0.85149216868E+02  0.00000000000E+00 0. -1.
         22    1    1    2    0    0  0.30407781601E+02  0.74101083968E+01 -0.42730367321E+02  0.52966283424E+02  0.00000000000E+00 0. -1.
</event>
<event>
 6    1  0.1715574E-005  0.5034161E+02  0.7818608E-02  0.1510577E+00
          2   -1    0    0  502    0  0.00000000000E+00  0.00000000000E+00  0.10311681259E+03  0.10311681259E+03  0.00000000000E+00 0. -1.
          1   -1    0    0  501    0 -0.00000000000E+00 -0.00000000000E+00 -0.11163173257E+03  0.11163173257E+03  0.00000000000E+00 0. -1.
          2    1    1    2  501    0 -0.28131146695E+02  0.35125672426E+02 -0.27459159648E+02  0.52717926044E+02  0.00000000000E+00 0. -1.
          1    1    1    2  502    0 -0.12033385095E+02 -0.21769014893E+02  0.39557471520E+01  0.25186113273E+02  0.00000000000E+00 0. -1.
         22    1    1    2    0    0  0.55236251007E+02 -0.10907458124E+01  0.63747312740E+02  0.84356108453E+02  0.00000000000E+00 0. -1.
         22    1    1    2    0    0 -0.15071719217E+02 -0.12265911720E+02 -0.48758820230E+02  0.52488397392E+02  0.00000000000E+00 0.  1.
</event>
<event>
 6    1  0.1715574E-005  0.1098417E+03  0.7818608E-02  0.1263720E+00
          2   -1    0    0  502    0  0.00000000000E+00  0.00000000000E+00  0.28101379937E+03  0.28101379937E+03  0.00000000000E+00 0.  1.
          1   -1    0    0  501    0 -0.00000000000E+00 -0.00000000000E+00 -0.14622102617E+03  0.14622102617E+03  0.00000000000E+00 0. -1.
          2    1    1    2  501    0 -0.49950095277E+02  0.24012329913E+02  0.10946787145E+03  0.12269808020E+03  0.00000000000E+00 0.  1.
          1    1    1    2  502    0  0.74431687935E+02 -0.26389510866E+01 -0.10108914514E+03  0.12556295432E+03  0.00000000000E+00 0. -1.
         22    1    1    2    0    0 -0.50133560904E+02 -0.18740288048E+02  0.13996081167E+03  0.14984525728E+03  0.00000000000E+00 0.  1.
         22    1    1    2    0    0  0.25651968246E+02 -0.26330907780E+01 -0.13546764776E+02  0.29128533739E+02  0.00000000000E+00 0. -1.
</event>
<event>
 6    1  0.1715574E-005  0.6145166E+02  0.7818608E-02  0.1462840E+00
          2   -1    0    0  502    0  0.00000000000E+00  0.00000000000E+00  0.24875082726E+03  0.24875082726E+03  0.00000000000E+00 0.  1.
          1   -1    0    0  501    0 -0.00000000000E+00 -0.00000000000E+00 -0.75976992539E+02  0.75976992539E+02  0.00000000000E+00 0.  1.
          2    1    1    2  501    0  0.60926552775E+01 -0.27022909699E+02  0.92119193772E+02  0.96194095235E+02  0.00000000000E+00 0.  1.
          1    1    1    2  502    0 -0.33905512356E+02  0.31782258406E+02 -0.31435091769E+02  0.56105799273E+02  0.00000000000E+00 0.  1.
         22    1    1    2    0    0  0.24082480172E+02 -0.25265171951E+02  0.13617472231E+03  0.14057684646E+03  0.00000000000E+00 0.  1.
         22    1    1    2    0    0  0.37303769064E+01  0.20505823245E+02 -0.24084989593E+02  0.31851078828E+02  0.00000000000E+00 0. -1.
</event>
<event>
 6    1  0.1715574E-005  0.9899349E+02  0.7818608E-02  0.1311730E+00
          2   -1    0    0  502    0  0.00000000000E+00  0.00000000000E+00  0.27625576670E+03  0.27625576670E+03  0.00000000000E+00 0.  1.
          1   -1    0    0  501    0 -0.00000000000E+00 -0.00000000000E+00 -0.34182502056E+02  0.34182502056E+02  0.00000000000E+00 0.  1.
          2    1    1    2  501    0  0.11210663578E+02  0.31407331794E+02  0.53347409806E+02  0.62913000256E+02  0.00000000000E+00 0.  1.
          1    1    1    2  502    0  0.18238854531E+02  0.13024329813E+02  0.13677938022E+02  0.26255951139E+02  0.00000000000E+00 0.  1.
         22    1    1    2    0    0  0.27010428389E+02 -0.17197481968E+02 -0.33341699256E+01  0.32193684426E+02  0.00000000000E+00 0.  1.
         22    1    1    2    0    0 -0.56459946498E+02 -0.27234179639E+02  0.17838208675E+03  0.18907563294E+03  0.00000000000E+00 0.  1.
</event>
<event>
 6    1  0.1715574E-005  0.9647016E+02  0.7818608E-02  0.1315934E+00
          2   -1    0    0  502    0  0.00000000000E+00  0.00000000000E+00  0.27093745005E+03  0.27093745005E+03  0.00000000000E+00 0.  1.
          1   -1    0    0  501    0 -0.00000000000E+00 -0.00000000000E+00 -0.42928908996E+02  0.42928908996E+02  0.00000000000E+00 0.  1.
          2    1    1    2  501    0  0.13876450376E+02  0.19894322786E+02  0.90574917136E+02  0.93766494914E+02  0.00000000000E+00 0.  1.
          1    1    1    2  502    0  0.29781811554E+02  0.24971917889E+01  0.25259814982E+01  0.29992879968E+02  0.00000000000E+00 0.  1.
         22    1    1    2    0    0  0.24512904029E+02 -0.85552556538E+01 -0.11207547480E+02  0.28278684265E+02  0.00000000000E+00 0. -1.
         22    1    1    2    0    0 -0.68171165958E+02 -0.13836258921E+02  0.14611518990E+03  0.16182829990E+03  0.00000000000E+00 0.  1.
</event>
<event>
 6    1  0.1715574E-005  0.4180818E+02  0.7818608E-02  0.1589245E+00
          2   -1    0    0  502    0  0.00000000000E+00  0.00000000000E+00  0.22483483137E+03  0.22483483137E+03  0.00000000000E+00 0. -1.
          1   -1    0    0  501    0 -0.00000000000E+00 -0.00000000000E+00 -0.71266566459E+02  0.71266566459E+02  0.00000000000E+00 0. -1.
          2    1    1    2  501    0  0.19859915796E+02 -0.18952778441E+02  0.13617413299E+03  0.13891370905E+03  0.00000000000E+00 0. -1.
          1    1    1    2  502    0 -0.23466014629E+02  0.17637184839E+02 -0.72385036018E+01  0.30234418566E+02  0.00000000000E+00 0. -1.
         22    1    1    2    0    0 -0.11735304600E+02  0.38134953920E+01 -0.49599459812E+02  0.51111315134E+02  0.00000000000E+00 0. -1.
         22    1    1    2    0    0  0.15341403433E+02 -0.24979017896E+01  0.74232095337E+02  0.75841955083E+02  0.00000000000E+00 0. -1.
</event>
<event>
 6    1  0.1715574E-005  0.8241570E+02  0.7818608E-02  0.1325158E+00
          2   -1    0    0  502    0  0.00000000000E+00  0.00000000000E+00  0.26588117128E+03  0.26588117128E+03  0.00000000000E+00 0. -1.
          1   -1    0    0  501    0 -0.00000000000E+00 -0.00000000000E+00 -0.16628591650E+03  0.16628591650E+03  0.00000000000E+00 0.  1.
          2    1    1    2  501    0 -0.31895766825E+02  0.48686841150E+01  0.97627976963E+02  0.10282152456E+03  0.00000000000E+00 0. -1.
          1    1    1    2  502    0  0.56690069154E+02 -0.33489441911E+02 -0.12776179492E+03  0.14373024352E+03  0.00000000000E+00 0.  1.
         22    1    1    2    0    0  0.59420041467E+01 -0.11006855822E+02 -0.22277840401E+02  0.25549177312E+02  0.00000000000E+00 0.  1.
         22    1    1    2    0    0 -0.30736306475E+02  0.39627613618E+02  0.15200691314E+03  0.16006614239E+03  0.00000000000E+00 0. -1.
</event>
<event>
 6    1  0.1715574E-005  0.6374740E+02  0.7818608E-02  0.1490640E+00
          2   -1    0    0  502    0  0.00000000000E+00  0.00000000000E+00  0.18196502671E+03  0.18196502671E+03  0.00000000000E+00 0.  1.
          1   -1    0    0  501    0 -0.00000000000E+00 -0.00000000000E+00 -0.40055391549E+03  0.40055391549E+03  0.00000000000E+00 0.  1.
          2    1    1    2  501    0 -0.59387130768E+02 -0.10201757632E+02  0.95387758533E+02  0.11282611239E+03  0.00000000000E+00 0.  1.
          1    1    1    2  502    0  0.45185993124E+02  0.24698979979E+02 -0.33896431504E+03  0.34285364291E+03  0.00000000000E+00 0.  1.
         22    1    1    2    0    0  0.11265824753E+02 -0.22605585849E+01 -0.49744823857E+02  0.51054641641E+02  0.00000000000E+00 0. -1.
         22    1    1    2    0    0  0.29353128907E+01 -0.12236663761E+02  0.74732491582E+02  0.75784545257E+02  0.00000000000E+00 0.  1.
</event>
<event>
 6    1  0.1715574E-005  0.6450062E+02  0.7818608E-02  0.1380973E+00
          2   -1    0    0  502    0  0.00000000000E+00  0.00000000000E+00  0.81120545868E+02  0.81120545868E+02  0.00000000000E+00 0. -1.
          1   -1    0    0  501    0 -0.00000000000E+00 -0.00000000000E+00 -0.27148167836E+03  0.27148167836E+03  0.00000000000E+00 0. -1.
          2    1    1    2  501    0  0.35133369212E+02  0.81216588341E+01  0.44799829033E+02  0.57509474487E+02  0.00000000000E+00 0. -1.
          1    1    1    2  502    0 -0.21245950000E+02 -0.18136961604E+02 -0.12977406033E+03  0.13274654987E+03  0.00000000000E+00 0. -1.
         22    1    1    2    0    0 -0.33832546538E+02 -0.85337841500E+01 -0.12435334320E+03  0.12915579988E+03  0.00000000000E+00 0. -1.
         22    1    1    2    0    0  0.19945127326E+02  0.18549086920E+02  0.18966442004E+02  0.33190399996E+02  0.00000000000E+00 0.  1.
</event>
<event>
 6    1  0.1715574E-005  0.2998277E+03  0.7818608E-02  0.1086572E+00
          2   -1    0    0  502    0  0.00000000000E+00  0.00000000000E+00  0.16286616635E+03  0.16286616635E+03  0.00000000000E+00 0.  1.
          1   -1    0    0  501    0 -0.00000000000E+00 -0.00000000000E+00 -0.13939946645E+04  0.13939946645E+04  0.00000000000E+00 0.  1.
          2    1    1    2  501    0 -0.18553590848E+03 -0.20449936535E+03 -0.85032456795E+01  0.27625326958E+03  0.00000000000E+00 0.  1.
          1    1    1    2  502    0  0.10853663433E+03  0.18330435280E+03 -0.88600828962E+03  0.91125812810E+03  0.00000000000E+00 0.  1.
         22    1    1    2    0    0 -0.37672988117E+01 -0.10439273408E+02  0.81941032225E+01  0.13795444801E+02  0.00000000000E+00 0.  1.
         22    1    1    2    0    0  0.80766572961E+02  0.31634285958E+02 -0.34481106606E+03  0.35555398836E+03  0.00000000000E+00 0.  1.
</event>
<event>
 6    1  0.1715574E-005  0.4873334E+02  0.7818608E-02  0.1453283E+00
          2   -1    0    0  502    0  0.00000000000E+00  0.00000000000E+00  0.25712466393E+03  0.25712466393E+03  0.00000000000E+00 0. -1.
          1   -1    0    0  501    0 -0.00000000000E+00 -0.00000000000E+00 -0.17484897555E+03  0.17484897555E+03  0.00000000000E+00 0. -1.
          2    1    1    2  501    0  0.37377412537E+02  0.10433078727E+02  0.18060196462E+03  0.18472409081E+03  0.00000000000E+00 0. -1.
          1    1    1    2  502    0 -0.51378222652E+02 -0.30728818963E+02 -0.98519816805E+02  0.11528285380E+03  0.00000000000E+00 0. -1.
         22    1    1    2    0    0 -0.20150457132E+02  0.29213657155E+02 -0.55591066650E+02  0.65953357597E+02  0.00000000000E+00 0. -1.
         22    1    1    2    0    0  0.34151267247E+02 -0.89179169189E+01  0.55784607215E+02  0.66013337280E+02  0.00000000000E+00 0.  1.
</event>
<event>
 6    1  0.1715574E-005  0.1101670E+03  0.7818608E-02  0.1312826E+00
          2   -1    0    0  502    0  0.00000000000E+00  0.00000000000E+00  0.42288215753E+03  0.42288215753E+03  0.00000000000E+00 0. -1.
          1   -1    0    0  501    0 -0.00000000000E+00 -0.00000000000E+00 -0.85394682070E+02  0.85394682070E+02  0.00000000000E+00 0. -1.
          2    1    1    2  501    0 -0.75949655465E+02  0.18106620404E+02  0.21499667078E+03  0.22873514884E+03  0.00000000000E+00 0. -1.
          1    1    1    2  502    0  0.11557009442E+03  0.17919132369E+01  0.43964061956E+02  0.12366283363E+03  0.00000000000E+00 0. -1.
         22    1    1    2    0    0 -0.25441973880E+02  0.18486108987E+02  0.10334299163E+03  0.10802223929E+03  0.00000000000E+00 0. -1.
         22    1    1    2    0    0 -0.14178465073E+02 -0.38384642628E+02 -0.24816248913E+02  0.47856617846E+02  0.00000000000E+00 0. -1.
</event>
<event>
 6    1  0.1715574E-005  0.6302659E+02  0.7818608E-02  0.1391564E+00
          2   -1    0    0  502    0  0.00000000000E+00  0.00000000000E+00  0.34942223449E+03  0.34942223449E+03  0.00000000000E+00 0. -1.
          1   -1    0    0  501    0 -0.00000000000E+00 -0.00000000000E+00 -0.47331960264E+02  0.47331960264E+02  0.00000000000E+00 0. -1.
          2    1    1    2  501    0  0.16527629330E+02  0.31395347869E+02  0.20926578327E+03  0.21225220481E+03  0.00000000000E+00 0. -1.
          1    1    1    2  502    0 -0.13819609610E+02 -0.23167867622E+02 -0.48855625258E+01  0.27415331862E+02  0.00000000000E+00 0. -1.
         22    1    1    2    0    0 -0.28471337141E+02 -0.41521611752E+00 -0.20988212720E+02  0.35373641546E+02  0.00000000000E+00 0. -1.
         22    1    1    2    0    0  0.25763317421E+02 -0.78122641301E+01  0.11869826620E+03  0.12171301654E+03  0.00000000000E+00 0. -1.
</event>
<event>
 6    1  0.1715574E-005  0.1691475E+03  0.7818608E-02  0.1179370E+00
          2   -1    0    0  502    0  0.00000000000E+00  0.00000000000E+00  0.40570600111E+03  0.40570600111E+03  0.00000000000E+00 0.  1.
          1   -1    0    0  501    0 -0.00000000000E+00 -0.00000000000E+00 -0.83702274004E+02  0.83702274004E+02  0.00000000000E+00 0.  1.
          2    1    1    2  501    0 -0.76252954857E+02  0.58415813602E+02  0.15817602554E+03  0.18505830286E+03  0.00000000000E+00 0.  1.
          1    1    1    2  502    0  0.11287228301E+03 -0.62171053477E+02  0.67556634872E+02  0.14549670469E+03  0.00000000000E+00 0.  1.
         22    1    1    2    0    0  0.32921241638E+02 -0.77626111912E+01 -0.62912509695E+01  0.34404158502E+02  0.00000000000E+00 0.  1.
         22    1    1    2    0    0 -0.69540569789E+02  0.11517851066E+02  0.10256231767E+03  0.12444910906E+03  0.00000000000E+00 0.  1.
</event>
<event>
 6    1  0.1715574E-005  0.6421986E+02  0.7818608E-02  0.1383530E+00
          2   -1    0    0  502    0  0.00000000000E+00  0.00000000000E+00  0.19322371301E+03  0.19322371301E+03  0.00000000000E+00 0. -1.
          1   -1    0    0  501    0 -0.00000000000E+00 -0.00000000000E+00 -0.29253603227E+03  0.29253603227E+03  0.00000000000E+00 0. -1.
          2    1    1    2  501    0  0.27566111293E+02 -0.12803514047E+02  0.10529353441E+03  0.10959264963E+03  0.00000000000E+00 0. -1.
          1    1    1    2  502    0 -0.37539151458E+02  0.30079627749E+02 -0.23732297330E+03  0.24214905648E+03  0.00000000000E+00 0. -1.
         22    1    1    2    0    0  0.17254125706E+02 -0.28003087730E+02  0.79201341043E+02  0.85759723643E+02  0.00000000000E+00 0.  1.
         22    1    1    2    0    0 -0.72810855411E+01  0.10726974028E+02 -0.46484221406E+02  0.48258315534E+02  0.00000000000E+00 0. -1.
</event>
<event>
 6    1  0.1715574E-005  0.7101667E+02  0.7818608E-02  0.1380423E+00
          2   -1    0    0  502    0  0.00000000000E+00  0.00000000000E+00  0.25810345845E+03  0.25810345845E+03  0.00000000000E+00 0. -1.
          1   -1    0    0  501    0 -0.00000000000E+00 -0.00000000000E+00 -0.10956614534E+03  0.10956614534E+03  0.00000000000E+00 0. -1.
          2    1    1    2  501    0 -0.24033449063E+02 -0.17249895285E+02  0.69820031819E+02  0.75828770295E+02  0.00000000000E+00 0. -1.
          1    1    1    2  502    0 -0.36289014888E+01  0.37058765984E+02 -0.78808468063E+02  0.87162467271E+02  0.00000000000E+00 0. -1.
         22    1    1    2    0    0  0.23528487037E+02 -0.29583609425E+02  0.17781114732E+03  0.18178444312E+03  0.00000000000E+00 0. -1.
         22    1    1    2    0    0  0.41338635150E+01  0.97747387262E+01 -0.20285397959E+02  0.22893923104E+02  0.00000000000E+00 0.  1.
</event>
<event>
 6    1  0.1715574E-005  0.8189851E+02  0.7818608E-02  0.1354880E+00
          2   -1    0    0  502    0  0.00000000000E+00  0.00000000000E+00  0.42231746938E+02  0.42231746938E+02  0.00000000000E+00 0. -1.
          1   -1    0    0  501    0 -0.00000000000E+00 -0.00000000000E+00 -0.53403983947E+03  0.53403983947E+03  0.00000000000E+00 0.  1.
          2    1    1    2  501    0  0.28302328529E+02 -0.20872837330E+02  0.13609477029E+02  0.37708288258E+02  0.00000000000E+00 0. -1.
          1    1    1    2  502    0 -0.29105998028E+02 -0.18986855612E+02 -0.24081770869E+03  0.24331220402E+03  0.00000000000E+00 0.  1.
         22    1    1    2    0    0  0.99315460789E+01 -0.61241924104E+01  0.10794214658E+02  0.15895169401E+02  0.00000000000E+00 0. -1.
         22    1    1    2    0    0 -0.91278765799E+01  0.45983885353E+02 -0.27539407553E+03  0.27935592473E+03  0.00000000000E+00 0.  1.
</event>
<event>
 6    1  0.1715574E-005  0.1488230E+03  0.7818608E-02  0.1263213E+00
          2   -1    0    0  502    0  0.00000000000E+00  0.00000000000E+00  0.48560056007E+03  0.48560056007E+03  0.00000000000E+00 0.  1.
          1   -1    0    0  501    0 -0.00000000000E+00 -0.00000000000E+00 -0.79852913233E+02  0.79852913233E+02  0.00000000000E+00 0. -1.
          2    1    1    2  501    0 -0.96630770129E+02  0.60029487916E+02  0.21156580121E+03  0.24021060217E+03  0.00000000000E+00 0.  1.
          1    1    1    2  502    0  0.12625550323E+03 -0.36289784872E+02  0.79353367971E+02  0.15347428967E+03  0.00000000000E+00 0. -1.
         22    1    1    2    0    0  0.56022725825E+01 -0.41802242300E+02 -0.78152128047E+01  0.42893944451E+02  0.00000000000E+00 0. -1.
         22    1    1    2    0    0 -0.35227005683E+02  0.18062539255E+02  0.12264369046E+03  0.12887463701E+03  0.00000000000E+00 0. -1.
</event>
<event>
 6    1  0.1715574E-005  0.1774598E+03  0.7818608E-02  0.1193229E+00
          2   -1    0    0  502    0  0.00000000000E+00  0.00000000000E+00  0.94570380671E+03  0.94570380671E+03  0.00000000000E+00 0. -1.
          1   -1    0    0  501    0 -0.00000000000E+00 -0.00000000000E+00 -0.95139725911E+02  0.95139725911E+02  0.00000000000E+00 0. -1.
          2    1    1    2  501    0 -0.88388251833E+02 -0.11762425356E+03  0.51567753106E+02  0.15590760484E+03  0.00000000000E+00 0. -1.
          1    1    1    2  502    0  0.17147194824E+03  0.14544534765E+03  0.39655487676E+03  0.45586483574E+03  0.00000000000E+00 0. -1.
         22    1    1    2    0    0 -0.88158566945E+02 -0.59055276355E+02  0.36468031226E+03  0.37980414524E+03  0.00000000000E+00 0. -1.
         22    1    1    2    0    0  0.50748705392E+01  0.31234182261E+02  0.37761138668E+02  0.49266946790E+02  0.00000000000E+00 0. -1.
</event>
<event>
 6    1  0.1715574E-005  0.6790619E+02  0.7818608E-02  0.1429138E+00
          2   -1    0    0  502    0  0.00000000000E+00  0.00000000000E+00  0.12504105377E+03  0.12504105377E+03  0.00000000000E+00 0. -1.
          1   -1    0    0  501    0 -0.00000000000E+00 -0.00000000000E+00 -0.14328232647E+03  0.14328232647E+03  0.00000000000E+00 0.  1.
          2    1    1    2  501    0  0.19315010594E+02 -0.22844637775E+02  0.38443384622E+02  0.48711815102E+02  0.00000000000E+00 0. -1.
          1    1    1    2  502    0 -0.43309209267E+02  0.52565991247E+02 -0.52569785115E+02  0.86037511297E+02  0.00000000000E+00 0.  1.
         22    1    1    2    0    0  0.37090309706E+02 -0.78956008783E+01  0.56377676579E+02  0.67944639257E+02  0.00000000000E+00 0. -1.
         22    1    1    2    0    0 -0.13096111033E+02 -0.21825752593E+02 -0.60492548780E+02  0.65629414582E+02  0.00000000000E+00 0.  1.
</event>
<event>
 6    1  0.1715574E-005  0.1277026E+03  0.7818608E-02  0.1292190E+00
          2   -1    0    0  502    0  0.00000000000E+00  0.00000000000E+00  0.83980017059E+03  0.83980017059E+03  0.00000000000E+00 0. -1.
          1   -1    0    0  501    0 -0.00000000000E+00 -0.00000000000E+00 -0.24570627652E+03  0.24570627652E+03  0.00000000000E+00 0.  1.
          2    1    1    2  501    0  0.70108566930E+02 -0.82263928331E+02  0.72570141710E+03  0.73370642074E+03  0.00000000000E+00 0. -1.
          1    1    1    2  502    0 -0.49987910196E+02  0.86848430506E+02 -0.18782275538E+03  0.21288219391E+03  0.00000000000E+00 0.  1.
         22    1    1    2    0    0 -0.38360267058E+02  0.11282780471E+01 -0.31186392820E+02  0.49450724942E+02  0.00000000000E+00 0.  1.
         22    1    1    2    0    0  0.18239610324E+02 -0.57127802223E+01  0.87401625180E+02  0.89467107513E+02  0.00000000000E+00 0. -1.
</event>
<event>
 6    1  0.1715574E-005  0.1628031E+03  0.7818608E-02  0.1253702E+00
          2   -1    0    0  502    0  0.00000000000E+00  0.00000000000E+00  0.92786091645E+03  0.92786091645E+03  0.00000000000E+00 0. -1.
          1   -1    0    0  501    0 -0.00000000000E+00 -0.00000000000E+00 -0.36659405264E+02  0.36659405264E+02  0.00000000000E+00 0. -1.
          2    1    1    2  501    0 -0.14292235301E+03 -0.21211413131E+02  0.25866808360E+03  0.29628685511E+03  0.00000000000E+00 0. -1.
          1    1    1    2  502    0  0.58996063114E+02  0.18519206458E+02  0.24625350105E+03  0.25389817496E+03  0.00000000000E+00 0. -1.
         22    1    1    2    0    0 -0.22581841379E+02  0.31623041939E+02  0.11827152216E+03  0.12449140250E+03  0.00000000000E+00 0. -1.
         22    1    1    2    0    0  0.10650813128E+03 -0.28930835266E+02  0.26800840438E+03  0.28984388915E+03  0.00000000000E+00 0. -1.
</event>
<event>
 6    1  0.1715574E-005  0.1819011E+03  0.7818608E-02  0.1205952E+00
          2   -1    0    0  502    0  0.00000000000E+00  0.00000000000E+00  0.48702349260E+03  0.48702349260E+03  0.00000000000E+00 0.  1.
          1   -1    0    0  501    0 -0.00000000000E+00 -0.00000000000E+00 -0.17094918138E+03  0.17094918138E+03  0.00000000000E+00 0.  1.
          2    1    1    2  501    0 -0.14954414054E+03 -0.11256665584E+03  0.32302565968E+03  0.37333668289E+03  0.00000000000E+00 0.  1.
          1    1    1    2  502    0  0.10174333742E+03  0.77892990228E+02  0.42391051255E+02  0.13496675836E+03  0.00000000000E+00 0.  1.
         22    1    1    2    0    0  0.68644676520E+02  0.29524454751E+02 -0.81774707799E+02  0.11077403973E+03  0.00000000000E+00 0. -1.
         22    1    1    2    0    0 -0.20843873400E+02  0.51492108615E+01  0.32432308078E+02  0.38895192995E+02  0.00000000000E+00 0.  1.
</event>
<event>
 6    1  0.1715574E-005  0.1284136E+03  0.7818608E-02  0.1285925E+00
          2   -1    0    0  502    0  0.00000000000E+00  0.00000000000E+00  0.94143592439E+02  0.94143592439E+02  0.00000000000E+00 0. -1.
          1   -1    0    0  501    0 -0.00000000000E+00 -0.00000000000E+00 -0.28759515749E+03  0.28759515749E+03  0.00000000000E+00 0. -1.
          2    1    1    2  501    0 -0.46379593205E+02  0.79504301116E+02 -0.32921278496E+02  0.97753829284E+02  0.00000000000E+00 0. -1.
          1    1    1    2  502    0  0.80009730312E+02 -0.70705257271E+02 -0.76602934560E+02  0.13141080600E+03  0.00000000000E+00 0. -1.
         22    1    1    2    0    0 -0.18617799315E+02  0.30907618696E+02  0.19328571947E+02  0.40932835698E+02  0.00000000000E+00 0.  1.
         22    1    1    2    0    0 -0.15012337792E+02 -0.39706662541E+02 -0.10325592395E+03  0.11164127895E+03  0.00000000000E+00 0.  1.
</event>
<event>
 6    1  0.1715574E-005  0.1660222E+03  0.7818608E-02  0.1278086E+00
          2   -1    0    0  502    0  0.00000000000E+00  0.00000000000E+00  0.43193695394E+03  0.43193695394E+03  0.00000000000E+00 0.  1.
          1   -1    0    0  501    0 -0.00000000000E+00 -0.00000000000E+00 -0.89140938330E+02  0.89140938330E+02  0.00000000000E+00 0.  1.
          2    1    1    2  501    0  0.34549808980E+02 -0.78057745366E+02  0.15763121459E+03  0.17926042711E+03  0.00000000000E+00 0.  1.
          1    1    1    2  502    0 -0.28524994697E+02  0.14313068621E+03  0.79036612316E+02  0.16597245176E+03  0.00000000000E+00 0.  1.
         22    1    1    2    0    0 -0.13564648012E+01 -0.87382357531E+02  0.12053335027E+03  0.14888184890E+03  0.00000000000E+00 0.  1.
         22    1    1    2    0    0 -0.46683494825E+01  0.22309416689E+02 -0.14405161574E+02  0.26963164500E+02  0.00000000000E+00 0. -1.
</event>
<event>
 6    1  0.1715574E-005  0.9030345E+02  0.7818608E-02  0.1302331E+00
          2   -1    0    0  502    0  0.00000000000E+00  0.00000000000E+00  0.33451874392E+03  0.33451874392E+03  0.00000000000E+00 0.  1.
          1   -1    0    0  501    0 -0.00000000000E+00 -0.00000000000E+00 -0.13406096346E+03  0.13406096346E+03  0.00000000000E+00 0.  1.
          2    1    1    2  501    0  0.40822646177E+02 -0.34620340707E+02  0.19503513228E+03  0.20224677811E+03  0.00000000000E+00 0.  1.
          1    1    1    2  502    0 -0.42968226633E+02  0.46774039013E+02 -0.90883430804E+02  0.11087775801E+03  0.00000000000E+00 0.  1.
         22    1    1    2    0    0 -0.14234253629E+02  0.20587971149E+02 -0.20935258211E+02  0.32630715112E+02  0.00000000000E+00 0.  1.
         22    1    1    2    0    0  0.16379834085E+02 -0.32741669455E+02  0.11724133720E+03  0.12282445616E+03  0.00000000000E+00 0.  1.
</event>
<event>
 6    1  0.1715574E-005  0.6138250E+02  0.7818608E-02  0.1480750E+00
          2   -1    0    0  502    0  0.00000000000E+00  0.00000000000E+00  0.29468605130E+03  0.29468605130E+03  0.00000000000E+00 0. -1.
          1   -1    0    0  501    0 -0.00000000000E+00 -0.00000000000E+00 -0.59425734141E+02  0.59425734141E+02  0.00000000000E+00 0. -1.
          2    1    1    2  501    0 -0.93774504714E+01  0.20341221777E+02  0.14619237146E+03  0.14789831423E+03  0.00000000000E+00 0. -1.
          1    1    1    2  502    0  0.42197589766E+02 -0.33408372644E+02  0.24145188564E+02  0.58989372564E+02  0.00000000000E+00 0. -1.
         22    1    1    2    0    0 -0.92269743622E+01 -0.13304118736E+02 -0.36433366359E+02  0.39868870255E+02  0.00000000000E+00 0. -1.
         22    1    1    2    0    0 -0.23593164932E+02  0.26371269603E+02  0.10135612350E+03  0.10735522839E+03  0.00000000000E+00 0. -1.
</event>
<event>
 6    1  0.1715574E-005  0.4216309E+02  0.7818608E-02  0.1494094E+00
          2   -1    0    0  502    0  0.00000000000E+00  0.00000000000E+00  0.83472016585E+02  0.83472016585E+02  0.00000000000E+00 0. -1.
          1   -1    0    0  501    0 -0.00000000000E+00 -0.00000000000E+00 -0.19757886301E+03  0.19757886301E+03  0.00000000000E+00 0.  1.
          2    1    1    2  501    0 -0.66313785758E+01  0.25593627830E+02  0.37862027000E+02  0.46179454911E+02  0.00000000000E+00 0. -1.
          1    1    1    2  502    0  0.84595272120E-01 -0.22985847361E+02 -0.99659582292E+02  0.10227604156E+03  0.00000000000E+00 0.  1.
         22    1    1    2    0    0 -0.61792173804E+00  0.14333371029E+02  0.37902809083E+02  0.40527154954E+02  0.00000000000E+00 0.  1.
         22    1    1    2    0    0  0.71647050417E+01 -0.16941151498E+02 -0.90212100211E+02  0.92068228162E+02  0.00000000000E+00 0.  1.
</event>
<event>
 6    1  0.1715574E-005  0.4162880E+02  0.7818608E-02  0.1539734E+00
          2   -1    0    0  502    0  0.00000000000E+00  0.00000000000E+00  0.74520905782E+02  0.74520905782E+02  0.00000000000E+00 0. -1.
          1   -1    0    0  501    0 -0.00000000000E+00 -0.00000000000E+00 -0.28036712942E+03  0.28036712942E+03  0.00000000000E+00 0. -1.
          2    1    1    2  501    0 -0.89799798641E+01  0.24192901923E+02  0.32459804358E+02  0.41467763874E+02  0.00000000000E+00 0. -1.
          1    1    1    2  502    0 -0.20315620587E+02 -0.31563912183E+02 -0.14797005776E+03  0.15265694543E+03  0.00000000000E+00 0. -1.
         22    1    1    2    0    0  0.67749829849E+01  0.13468519767E+02  0.32449461707E+02  0.35780846611E+02  0.00000000000E+00 0. -1.
         22    1    1    2    0    0  0.22520617467E+02 -0.60975095079E+01 -0.12278543194E+03  0.12498247929E+03  0.00000000000E+00 0. -1.
</event>
<event>
 6    1  0.1715574E-005  0.8522559E+02  0.7818608E-02  0.1322411E+00
          2   -1    0    0  502    0  0.00000000000E+00  0.00000000000E+00  0.32610365653E+03  0.32610365653E+03  0.00000000000E+00 0. -1.
          1   -1    0    0  501    0 -0.00000000000E+00 -0.00000000000E+00 -0.31543515622E+02  0.31543515622E+02  0.00000000000E+00 0. -1.
          2    1    1    2  501    0 -0.90741752909E+01 -0.38124043052E+02  0.96951863760E+02  0.10457268861E+03  0.00000000000E+00 0. -1.
          1    1    1    2  502    0  0.15142015004E+02  0.28711841626E+02  0.42786280032E+02  0.53705830474E+02  0.00000000000E+00 0. -1.
         22    1    1    2    0    0 -0.10576898358E+02  0.40526656644E+02  0.51077943001E+00  0.41887248337E+02  0.00000000000E+00 0. -1.
         22    1    1    2    0    0  0.45090586452E+01 -0.31114455219E+02  0.15431121768E+03  0.15748140473E+03  0.00000000000E+00 0. -1.
</event>
<event>
 6    1  0.1715574E-005  0.4704123E+02  0.7818608E-02  0.1499747E+00
          2   -1    0    0  502    0  0.00000000000E+00  0.00000000000E+00  0.73022770883E+02  0.73022770883E+02  0.00000000000E+00 0.  1.
          1   -1    0    0  501    0 -0.00000000000E+00 -0.00000000000E+00 -0.19411527102E+03  0.19411527102E+03  0.00000000000E+00 0.  1.
          2    1    1    2  501    0 -0.11197073741E+02  0.32271845060E+02  0.19977335442E+02  0.39571964512E+02  0.00000000000E+00 0.  1.
          1    1    1    2  502    0  0.24241276829E+02 -0.13218758917E+02 -0.78827628341E+02  0.83523470231E+02  0.00000000000E+00 0.  1.
         22    1    1    2    0    0  0.14024436306E+02 -0.13618281246E+02 -0.97398697856E+02  0.99341072784E+02  0.00000000000E+00 0. -1.
         22    1    1    2    0    0 -0.27068639395E+02 -0.54348048980E+01  0.35156490619E+02  0.44701534376E+02  0.00000000000E+00 0. -1.
</event>
<event>
 6    1  0.1715574E-005  0.1151139E+03  0.7818608E-02  0.1253824E+00
          2   -1    0    0  502    0  0.00000000000E+00  0.00000000000E+00  0.16107929433E+03  0.16107929433E+03  0.00000000000E+00 0.  1.
          1   -1    0    0  501    0 -0.00000000000E+00 -0.00000000000E+00 -0.24251444371E+03  0.24251444371E+03  0.00000000000E+00 0.  1.
          2    1    1    2  501    0 -0.14171013436E+02 -0.83169942413E+02  0.68053623290E+02  0.10839443060E+03  0.00000000000E+00 0.  1.
          1    1    1    2  502    0  0.22651177202E+02  0.72080823335E+02 -0.15067539056E+03  0.16855798480E+03  0.00000000000E+00 0.  1.
         22    1    1    2    0    0 -0.25849332508E+01  0.33677929621E+02 -0.55705347062E+02  0.65145763597E+02  0.00000000000E+00 0.  1.
         22    1    1    2    0    0 -0.58952305155E+01 -0.22588810542E+02  0.56891964958E+02  0.61495559037E+02  0.00000000000E+00 0.  1.
</event>
<event>
 6    1  0.1715574E-005  0.1198609E+03  0.7818608E-02  0.1249267E+00
          2   -1    0    0  502    0  0.00000000000E+00  0.00000000000E+00  0.32483450190E+03  0.32483450190E+03  0.00000000000E+00 0.  1.
          1   -1    0    0  501    0 -0.00000000000E+00 -0.00000000000E+00 -0.42084158464E+02  0.42084158464E+02  0.00000000000E+00 0.  1.
          2    1    1    2  501    0  0.22587321741E+02  0.52648114716E+02  0.59322282874E+02  0.82469050752E+02  0.00000000000E+00 0.  1.
          1    1    1    2  502    0  0.15512073430E+02 -0.46814756574E+02  0.55363259021E+02  0.74144024065E+02  0.00000000000E+00 0.  1.
         22    1    1    2    0    0 -0.56728404429E+02 -0.39364119156E+02  0.47558966625E+02  0.83842119799E+02  0.00000000000E+00 0.  1.
         22    1    1    2    0    0  0.18629009258E+02  0.33530761014E+02  0.12050583492E+03  0.12646346575E+03  0.00000000000E+00 0. -1.
</event>
<event>
 6    1  0.1715574E-005  0.7879944E+02  0.7818608E-02  0.1411605E+00
          2   -1    0    0  502    0  0.00000000000E+00  0.00000000000E+00  0.38846608420E+03  0.38846608420E+03  0.00000000000E+00 0. -1.
          1   -1    0    0  501    0 -0.00000000000E+00 -0.00000000000E+00 -0.52954341361E+02  0.52954341361E+02  0.00000000000E+00 0. -1.
          2    1    1    2  501    0 -0.26089050370E+01  0.51121262623E+02  0.18486327353E+03  0.19181923724E+03  0.00000000000E+00 0. -1.
          1    1    1    2  502    0 -0.67252133722E+01 -0.64556631223E+02  0.16029549688E+02  0.66856066240E+02  0.00000000000E+00 0. -1.
         22    1    1    2    0    0 -0.59923790507E+01  0.28267872582E+02  0.15231472819E+03  0.15503147310E+03  0.00000000000E+00 0. -1.
         22    1    1    2    0    0  0.15326497460E+02 -0.14832503982E+02 -0.17695808569E+02  0.27713648978E+02  0.00000000000E+00 0. -1.
</event>
<event>
 6    1  0.1715574E-005  0.2043647E+03  0.7818608E-02  0.1155891E+00
          2   -1    0    0  502    0  0.00000000000E+00  0.00000000000E+00  0.10468497487E+04  0.10468497487E+04  0.00000000000E+00 0. -1.
          1   -1    0    0  501    0 -0.00000000000E+00 -0.00000000000E+00 -0.32719230903E+02  0.32719230903E+02  0.00000000000E+00 0. -1.
          2    1    1    2  501    0 -0.11848359594E+03  0.75925930357E+02  0.42286953453E+03  0.44567000420E+03  0.00000000000E+00 0. -1.
          1    1    1    2  502    0 -0.22841479085E+02 -0.25151510218E+02  0.11642151625E+03  0.12127778477E+03  0.00000000000E+00 0. -1.
         22    1    1    2    0    0 -0.18551877957E+02  0.90592141402E+00  0.10190330863E+03  0.10358222424E+03  0.00000000000E+00 0.  1.
         22    1    1    2    0    0  0.15987695298E+03 -0.51680341553E+02  0.37293615842E+03  0.40903896643E+03  0.00000000000E+00 0. -1.
</event>
<event>
 6    1  0.1715574E-005  0.3801983E+02  0.7818608E-02  0.1597456E+00
          2   -1    0    0  502    0  0.00000000000E+00  0.00000000000E+00  0.13487962131E+03  0.13487962131E+03  0.00000000000E+00 0. -1.
          1   -1    0    0  501    0 -0.00000000000E+00 -0.00000000000E+00 -0.12673456702E+03  0.12673456702E+03  0.00000000000E+00 0.  1.
          2    1    1    2  501    0  0.17252936659E+02 -0.27360507486E+02  0.66238470167E+02  0.73714287105E+02  0.00000000000E+00 0. -1.
          1    1    1    2  502    0 -0.90114439262E+01  0.22403832152E+02 -0.62165506961E+02  0.66690989440E+02  0.00000000000E+00 0.  1.
         22    1    1    2    0    0 -0.13060083459E+02 -0.70712300373E+01  0.61022157586E+02  0.62803437730E+02  0.00000000000E+00 0.  1.
         22    1    1    2    0    0  0.48185907257E+01  0.12027905372E+02 -0.56950066507E+02  0.58405474053E+02  0.00000000000E+00 0.  1.
</event>
<event>
 6    1  0.1715574E-005  0.6803001E+02  0.7818608E-02  0.1459082E+00
          2   -1    0    0  502    0  0.00000000000E+00  0.00000000000E+00  0.29769445470E+03  0.29769445470E+03  0.00000000000E+00 0. -1.
          1   -1    0    0  501    0 -0.00000000000E+00 -0.00000000000E+00 -0.83784619392E+02  0.83784619392E+02  0.00000000000E+00 0.  1.
          2    1    1    2  501    0  0.39529712394E+02 -0.31755026141E+01  0.16620065468E+03  0.17086643788E+03  0.00000000000E+00 0. -1.
          1    1    1    2  502    0 -0.64962181773E+02  0.61764694976E+00 -0.23020846075E+02  0.68923333512E+02  0.00000000000E+00 0.  1.
         22    1    1    2    0    0  0.24990293887E+02 -0.13658885376E+02  0.10230259295E+03  0.10619275146E+03  0.00000000000E+00 0.  1.
         22    1    1    2    0    0  0.44217549199E+00  0.16216741041E+02 -0.31572566255E+02  0.35496551228E+02  0.00000000000E+00 0. -1.
</event>
<event>
 6    1  0.1715574E-005  0.7915547E+02  0.7818608E-02  0.1332577E+00
          2   -1    0    0  502    0  0.00000000000E+00  0.00000000000E+00  0.21925994366E+02  0.21925994366E+02  0.00000000000E+00 0. -1.
          1   -1    0    0  501    0 -0.00000000000E+00 -0.00000000000E+00 -0.58774533702E+03  0.58774533702E+03  0.00000000000E+00 0.  1.
          2    1    1    2  501    0  0.27384093187E+02  0.13738604345E+02 -0.35767931796E+02  0.47095464262E+02  0.00000000000E+00 0. -1.
          1    1    1    2  502    0 -0.36604785928E+02 -0.12640009606E+02 -0.29813422236E+03  0.30063881109E+03  0.00000000000E+00 0.  1.
         22    1    1    2    0    0 -0.37478927878E+02 -0.43623393603E+01 -0.20393880879E+03  0.20739994641E+03  0.00000000000E+00 0.  1.
         22    1    1    2    0    0  0.46699620619E+02  0.32637446211E+01 -0.27978379714E+02  0.54537109626E+02  0.00000000000E+00 0. -1.
</event>
<event>
 6    1  0.1715574E-005  0.1328763E+03  0.7818608E-02  0.1225036E+00
          2   -1    0    0  502    0  0.00000000000E+00  0.00000000000E+00  0.46799485982E+03  0.46799485982E+03  0.00000000000E+00 0. -1.
          1   -1    0    0  501    0 -0.00000000000E+00 -0.00000000000E+00 -0.13556994785E+03  0.13556994785E+03  0.00000000000E+00 0. -1.
          2    1    1    2  501    0 -0.23061342778E+02 -0.90230612206E+02  0.25019239819E+03  0.26696371480E+03  0.00000000000E+00 0. -1.
          1    1    1    2  502    0  0.17608140524E+02  0.96453844009E+02 -0.81758861594E+02  0.12766323702E+03  0.00000000000E+00 0. -1.
         22    1    1    2    0    0 -0.12644363304E+01  0.28343323336E+02 -0.11006985936E+02  0.30431833930E+02  0.00000000000E+00 0. -1.
         22    1    1    2    0    0  0.67176385843E+01 -0.34566555139E+02  0.17499836131E+03  0.17850602192E+03  0.00000000000E+00 0. -1.
</event>
<event>
 6    1  0.1715574E-005  0.2486943E+02  0.7818608E-02  0.1694124E+00
          2   -1    0    0  502    0  0.00000000000E+00  0.00000000000E+00  0.14305828406E+03  0.14305828406E+03  0.00000000000E+00 0. -1.
          1   -1    0    0  501    0 -0.00000000000E+00 -0.00000000000E+00 -0.10554329788E+03  0.10554329788E+03  0.00000000000E+00 0.  1.
          2    1    1    2  501    0 -0.35852209369E+02 -0.96004314187E+01  0.42185193350E+02  0.56188430642E+02  0.00000000000E+00 0. -1.
          1    1    1    2  502    0  0.41474571197E+02 -0.14183188668E+02 -0.42666366190E+02  0.61169614194E+02  0.00000000000E+00 0.  1.
         22    1    1    2    0    0  0.12921071641E+02  0.99583151967E+01  0.80885824595E+02  0.82514476028E+02  0.00000000000E+00 0. -1.
         22    1    1    2    0    0 -0.18543433468E+02  0.13825304890E+02 -0.42889665571E+02  0.48729061072E+02  0.00000000000E+00 0. -1.
</event>
<event>
 6    1  0.1715574E-005  0.7985172E+02  0.7818608E-02  0.1428093E+00
          2   -1    0    0  502    0  0.00000000000E+00  0.00000000000E+00  0.13142408464E+04  0.13142408464E+04  0.00000000000E+00 0.  1.
          1   -1    0    0  501    0 -0.00000000000E+00 -0.00000000000E+00 -0.25888072306E+03  0.25888072306E+03  0.00000000000E+00 0. -1.
          2    1    1    2  501    0  0.61800869456E+02  0.21795571600E+02  0.12596270661E+04  0.12613305435E+04  0.00000000000E+00 0.  1.
          1    1    1    2  502    0 -0.53275956586E+02 -0.26969296695E+02 -0.16752431975E+03  0.17784844172E+03  0.00000000000E+00 0. -1.
         22    1    1    2    0    0  0.83865928741E+01  0.13513431309E+02  0.46211824872E+02  0.48872083276E+02  0.00000000000E+00 0. -1.
         22    1    1    2    0    0 -0.16911505744E+02 -0.83397062136E+01 -0.82954447818E+02  0.85070500992E+02  0.00000000000E+00 0. -1.
</event>
<event>
 6    1  0.1715574E-005  0.1652860E+03  0.7818608E-02  0.1184061E+00
          2   -1    0    0  502    0  0.00000000000E+00  0.00000000000E+00  0.37313742722E+02  0.37313742722E+02  0.00000000000E+00 0. -1.
          1   -1    0    0  501    0 -0.00000000000E+00 -0.00000000000E+00 -0.75062461252E+03  0.75062461252E+03  0.00000000000E+00 0. -1.
          2    1    1    2  501    0 -0.14584572926E+02  0.85099738479E+02 -0.16887441912E+03  0.18966614007E+03  0.00000000000E+00 0. -1.
          1    1    1    2  502    0 -0.16711078170E+02 -0.93789745762E+02 -0.10711060631E+03  0.14334733527E+03  0.00000000000E+00 0. -1.
         22    1    1    2    0    0  0.18781263736E+02 -0.55100657191E+02 -0.16569335575E+03  0.17562205564E+03  0.00000000000E+00 0. -1.
         22    1    1    2    0    0  0.12514387360E+02  0.63790664474E+02 -0.27163248863E+03  0.27930282426E+03  0.00000000000E+00 0. -1.
</event>
<event>
 6    1  0.1715574E-005  0.8227148E+02  0.7818608E-02  0.1334537E+00
          2   -1    0    0  502    0  0.00000000000E+00  0.00000000000E+00  0.26521492711E+03  0.26521492711E+03  0.00000000000E+00 0.  1.
          1   -1    0    0  501    0 -0.00000000000E+00 -0.00000000000E+00 -0.28846740512E+03  0.28846740512E+03  0.00000000000E+00 0.  1.
          2    1    1    2  501    0  0.28832106489E+02 -0.10207526363E+02  0.23236200710E+03  0.23436635062E+03  0.00000000000E+00 0.  1.
          1    1    1    2  502    0 -0.11034868550E+02  0.38830645106E+02 -0.13951238366E+03  0.14523530052E+03  0.00000000000E+00 0.  1.
         22    1    1    2    0    0  0.17478816182E+02 -0.60390468304E+01  0.22594431923E+02  0.29197387823E+02  0.00000000000E+00 0.  1.
         22    1    1    2    0    0 -0.35276054122E+02 -0.22584071913E+02 -0.13869653337E+03  0.14488329327E+03  0.00000000000E+00 0.  1.
</event>
<event>
 6    1  0.1715574E-005  0.9946309E+02  0.7818608E-02  0.1299164E+00
          2   -1    0    0  502    0  0.00000000000E+00  0.00000000000E+00  0.11423433362E+03  0.11423433362E+03  0.00000000000E+00 0.  1.
          1   -1    0    0  501    0 -0.00000000000E+00 -0.00000000000E+00 -0.41669439062E+03  0.41669439062E+03  0.00000000000E+00 0.  1.
          2    1    1    2  501    0 -0.14088496490E+02  0.24616876098E+02  0.38490552231E+02  0.47812121196E+02  0.00000000000E+00 0.  1.
          1    1    1    2  502    0  0.24189221342E+02 -0.15673511037E+02 -0.35807722610E+03  0.35923540642E+03  0.00000000000E+00 0.  1.
         22    1    1    2    0    0 -0.42086954696E+02 -0.88056350469E+01  0.57861361882E+02  0.72088751987E+02  0.00000000000E+00 0.  1.
         22    1    1    2    0    0  0.31986229844E+02 -0.13773001377E+00 -0.40734745016E+02  0.51792444630E+02  0.00000000000E+00 0.  1.
</event>
<event>
 6    1  0.1715574E-005  0.1089188E+03  0.7818608E-02  0.1281362E+00
          2   -1    0    0  502    0  0.00000000000E+00  0.00000000000E+00  0.88569938095E+03  0.88569938095E+03  0.00000000000E+00 0. -1.
          1   -1    0    0  501    0 -0.00000000000E+00 -0.00000000000E+00 -0.89389265195E+02  0.89389265195E+02  0.00000000000E+00 0. -1.
          2    1    1    2  501    0 -0.18163501061E+03  0.73559552095E+02  0.57386510667E+03  0.60640204934E+03  0.00000000000E+00 0. -1.
          1    1    1    2  502    0  0.12174208771E+03 -0.87004521711E+02  0.15400166580E+03  0.21472642080E+03  0.00000000000E+00 0. -1.
         22    1    1    2    0    0  0.57765761995E+02 -0.31965573200E+02 -0.64654653198E+01  0.66336139250E+02  0.00000000000E+00 0.  1.
         22    1    1    2    0    0  0.21271609033E+01  0.45410542817E+02  0.74908808607E+02  0.87624036767E+02  0.00000000000E+00 0. -1.
</event>
<event>
 6    1  0.1715574E-005  0.1298079E+03  0.7818608E-02  0.1233089E+00
          2   -1    0    0  502    0  0.00000000000E+00  0.00000000000E+00  0.97008555998E+03  0.97008555998E+03  0.00000000000E+00 0.  1.
          1   -1    0    0  501    0 -0.00000000000E+00 -0.00000000000E+00 -0.18265296174E+02  0.18265296174E+02  0.00000000000E+00 0.  1.
          2    1    1    2  501    0  0.40570178261E+02 -0.34856180401E+02  0.42822698188E+03  0.43155444695E+03  0.00000000000E+00 0.  1.
          1    1    1    2  502    0 -0.27687531703E+02  0.57187215435E+02  0.18867954549E+03  0.19909030089E+03  0.00000000000E+00 0.  1.
         22    1    1    2    0    0  0.23134933586E+01 -0.68116142190E+02  0.25854006003E+03  0.26737263083E+03  0.00000000000E+00 0.  1.
         22    1    1    2    0    0 -0.15196139916E+02  0.45785107157E+02  0.76373676406E+02  0.90333477479E+02  0.00000000000E+00 0.  1.
</event>
<event>
 6    1  0.1715574E-005  0.5014641E+02  0.7818608E-02  0.1493893E+00
          2   -1    0    0  502    0  0.00000000000E+00  0.00000000000E+00  0.30536487126E+03  0.30536487126E+03  0.00000000000E+00 0.  1.
          1   -1    0    0  501    0 -0.00000000000E+00 -0.00000000000E+00 -0.64198999429E+02  0.64198999429E+02  0.00000000000E+00 0.  1.
          2    1    1    2  501    0  0.14688813139E+02  0.31260754979E+02  0.18368121537E+03  0.18690046793E+03  0.00000000000E+00 0.  1.
          1    1    1    2  502    0 -0.17440092253E+02 -0.18828854362E+02 -0.18993808535E+02  0.31928785399E+02  0.00000000000E+00 0.  1.
         22    1    1    2    0    0 -0.21917790782E+02 -0.11029458465E+02 -0.31520744846E+02  0.39944910345E+02  0.00000000000E+00 0. -1.
         22    1    1    2    0    0  0.24669069896E+02 -0.14024421528E+01  0.10799920985E+03  0.11078970702E+03  0.00000000000E+00 0.  1.
</event>
<event>
 6    1  0.1715574E-005  0.1336632E+03  0.7818608E-02  0.1332795E+00
          2   -1    0    0  502    0  0.00000000000E+00  0.00000000000E+00  0.74576813466E+03  0.74576813466E+03  0.00000000000E+00 0.  1.
          1   -1    0    0  501    0 -0.00000000000E+00 -0.00000000000E+00 -0.30853660523E+03  0.30853660523E+03  0.00000000000E+00 0. -1.
          2    1    1    2  501    0 -0.29758068506E+02  0.13728752636E+03  0.67573924762E+03  0.69018616207E+03  0.00000000000E+00 0.  1.
          1    1    1    2  502    0  0.71848295066E+01 -0.10587100315E+03 -0.19953307776E+03  0.22599500039E+03  0.00000000000E+00 0. -1.
         22    1    1    2    0    0  0.12610421636E+02 -0.99456521983E+01  0.46623999917E+02  0.49312636309E+02  0.00000000000E+00 0. -1.
         22    1    1    2    0    0  0.99628173635E+01 -0.21470871012E+02 -0.85598640350E+02  0.88810941114E+02  0.00000000000E+00 0. -1.
</event>
<event>
 6    1  0.1715574E-005  0.4234561E+02  0.7818608E-02  0.1558160E+00
          2   -1    0    0  502    0  0.00000000000E+00  0.00000000000E+00  0.38226577675E+03  0.38226577675E+03  0.00000000000E+00 0.  1.
          1   -1    0    0  501    0 -0.00000000000E+00 -0.00000000000E+00 -0.10270766526E+03  0.10270766526E+03  0.00000000000E+00 0.  1.
          2    1    1    2  501    0 -0.23750341849E+02 -0.29743723147E+02  0.27365134068E+03  0.27628576522E+03  0.00000000000E+00 0.  1.
          1    1    1    2  502    0  0.17536218282E+02  0.14859291276E+02 -0.63018548364E+02  0.67079467252E+02  0.00000000000E+00 0.  1.
         22    1    1    2    0    0 -0.12272583647E+02  0.12459271833E+02  0.10208171035E+03  0.10356894009E+03  0.00000000000E+00 0.  1.
         22    1    1    2    0    0  0.18486707214E+02  0.24251600370E+01 -0.33156391178E+02  0.38039269456E+02  0.00000000000E+00 0.  1.
</event>
<event>
 6    1  0.1715574E-005  0.1822467E+03  0.7818608E-02  0.1165891E+00
          2   -1    0    0  502    0  0.00000000000E+00  0.00000000000E+00  0.54555095424E+03  0.54555095424E+03  0.00000000000E+00 0.  1.
          1   -1    0    0  501    0 -0.00000000000E+00 -0.00000000000E+00 -0.19966596249E+03  0.19966596249E+03  0.00000000000E+00 0.  1.
          2    1    1    2  501    0 -0.14396762702E+03  0.71390229287E+01  0.35809657073E+03  0.38601916694E+03  0.00000000000E+00 0.  1.
          1    1    1    2  502    0  0.15061170238E+03 -0.28476427465E+02 -0.11875737097E+03  0.19390230781E+03  0.00000000000E+00 0.  1.
         22    1    1    2    0    0 -0.33711957245E+02  0.14590288988E+02  0.12602628069E+03  0.13127069748E+03  0.00000000000E+00 0.  1.
         22    1    1    2    0    0  0.27067881883E+02  0.67471155476E+01 -0.19480488692E+02  0.34024744489E+02  0.00000000000E+00 0. -1.
</event>
<event>
 6    1  0.2127715E-005  0.1353795E+03  0.7818608E-02  0.1280340E+00
          2   -1    0    0  502    0  0.00000000000E+00  0.00000000000E+00  0.62291580807E+03  0.62291580807E+03  0.00000000000E+00 0. -1.
          1   -1    0    0  501    0 -0.00000000000E+00 -0.00000000000E+00 -0.20291755878E+03  0.20291755878E+03  0.00000000000E+00 0.  1.
          2    1    1    2  501    0  0.69015817793E+02 -0.10373076083E+03  0.54675685269E+03  0.56077295746E+03  0.00000000000E+00 0. -1.
          1    1    1    2  502    0 -0.41987455054E+02  0.96164855817E+02 -0.81731126581E+02  0.13300602591E+03  0.00000000000E+00 0.  1.
         22    1    1    2    0    0 -0.38086047666E+02  0.13079274073E+02 -0.82929300280E+02  0.92189388120E+02  0.00000000000E+00 0. -1.
         22    1    1    2    0    0  0.11057684927E+02 -0.55133690632E+01  0.37901823452E+02  0.39864995363E+02  0.00000000000E+00 0. -1.
</event>
<event>
 6    1  0.4189444E-005  0.3809983E+03  0.7818608E-02  0.1050970E+00
          2   -1    0    0  502    0  0.00000000000E+00  0.00000000000E+00  0.75634852242E+03  0.75634852242E+03  0.00000000000E+00 0.  1.
          1   -1    0    0  501    0 -0.00000000000E+00 -0.00000000000E+00 -0.10210171800E+04  0.10210171800E+04  0.00000000000E+00 0. -1.
          2    1    1    2  501    0  0.86632070115E+02 -0.34612929459E+03  0.60880156778E+03  0.70565569017E+03  0.00000000000E+00 0.  1.
          1    1    1    2  502    0 -0.73014224435E+02  0.35362484665E+03 -0.87901800943E+03  0.95029167629E+03  0.00000000000E+00 0. -1.
         22    1    1    2    0    0 -0.52470815499E+01  0.13187536069E+02 -0.55046315273E+02  0.56846634003E+02  0.00000000000E+00 0. -1.
         22    1    1    2    0    0 -0.83707641310E+01 -0.20683088131E+02  0.60594099298E+02  0.64571701979E+02  0.00000000000E+00 0. -1.
</event>
<event>
 6    1  0.1715574E-005  0.7975155E+02  0.7818608E-02  0.1330001E+00
          2   -1    0    0  502    0  0.00000000000E+00  0.00000000000E+00  0.22132165037E+03  0.22132165037E+03  0.00000000000E+00 0. -1.
          1   -1    0    0  501    0 -0.00000000000E+00 -0.00000000000E+00 -0.33500811012E+03  0.33500811012E+03  0.00000000000E+00 0. -1.
          2    1    1    2  501    0  0.50587145465E+02 -0.29233523355E+02  0.17656584190E+03  0.18598159775E+03  0.00000000000E+00 0. -1.
          1    1    1    2  502    0 -0.45006807559E+02  0.32671338011E+02 -0.22075053333E+03  0.22764847247E+03  0.00000000000E+00 0. -1.
         22    1    1    2    0    0  0.17854560542E+02 -0.72651915147E+01  0.32600311126E+02  0.37872795320E+02  0.00000000000E+00 0. -1.
         22    1    1    2    0    0 -0.23434898448E+02  0.38273768589E+01 -0.10210207944E+03  0.10482689495E+03  0.00000000000E+00 0.  1.
</event>
<event>
 6    1  0.1715574E-005  0.1044933E+03  0.7818608E-02  0.1271199E+00
          2   -1    0    0  502    0  0.00000000000E+00  0.00000000000E+00  0.37375159171E+03  0.37375159171E+03  0.00000000000E+00 0. -1.
          1   -1    0    0  501    0 -0.00000000000E+00 -0.00000000000E+00 -0.96337190970E+02  0.96337190970E+02  0.00000000000E+00 0. -1.
          2    1    1    2  501    0 -0.54211668708E+02  0.41345782343E+02  0.26814809316E+03  0.27667992086E+03  0.00000000000E+00 0. -1.
          1    1    1    2  502    0  0.31350549252E+02 -0.37453189285E+02 -0.30617276604E+02  0.57645606534E+02  0.00000000000E+00 0. -1.
         22    1    1    2    0    0  0.53424152220E+02 -0.14289076092E+02 -0.26966382600E+02  0.61526445749E+02  0.00000000000E+00 0. -1.
         22    1    1    2    0    0 -0.30563032765E+02  0.10396483034E+02  0.66849966787E+02  0.74236809540E+02  0.00000000000E+00 0. -1.
</event>
<event>
 6    1  0.1715574E-005  0.9089505E+02  0.7818608E-02  0.1316938E+00
          2   -1    0    0  502    0  0.00000000000E+00  0.00000000000E+00  0.98095474668E+02  0.98095474668E+02  0.00000000000E+00 0.  1.
          1   -1    0    0  501    0 -0.00000000000E+00 -0.00000000000E+00 -0.28336937922E+03  0.28336937922E+03  0.00000000000E+00 0. -1.
          2    1    1    2  501    0 -0.29726991606E+02 -0.19017164464E+02  0.25948354898E+02  0.43802553534E+02  0.00000000000E+00 0.  1.
          1    1    1    2  502    0 -0.72824767591E+02  0.36042260524E+02 -0.13101259008E+03  0.15416481465E+03  0.00000000000E+00 0. -1.
         22    1    1    2    0    0  0.12803026620E+03 -0.13052895888E+01 -0.84277700122E+02  0.15328464888E+03  0.00000000000E+00 0. -1.
         22    1    1    2    0    0 -0.25478507003E+02 -0.15719806471E+02  0.40680307487E+01  0.30212836821E+02  0.00000000000E+00 0.  1.
</event>
<event>
 6    1  0.1715574E-005  0.1063442E+03  0.7818608E-02  0.1269076E+00
          2   -1    0    0  502    0  0.00000000000E+00  0.00000000000E+00  0.92337522557E+02  0.92337522557E+02  0.00000000000E+00 0. -1.
          1   -1    0    0  501    0 -0.00000000000E+00 -0.00000000000E+00 -0.11980145656E+03  0.11980145656E+03  0.00000000000E+00 0. -1.
          2    1    1    2  501    0  0.11000362098E+02 -0.22918850533E+02 -0.15094770083E+02  0.29565753160E+02  0.00000000000E+00 0. -1.
          1    1    1    2  502    0  0.96503785122E+01  0.47569177542E+02  0.71718060796E+01  0.49065173595E+02  0.00000000000E+00 0. -1.
         22    1    1    2    0    0 -0.52539057214E+01  0.52744421388E+02 -0.11010134884E+02  0.54136868981E+02  0.00000000000E+00 0.  1.
         22    1    1    2    0    0 -0.15396834889E+02 -0.77394748397E+02 -0.85308351194E+01  0.79371183384E+02  0.00000000000E+00 0. -1.
</event>
<event>
 6    1  0.1715574E-005  0.7271283E+02  0.7818608E-02  0.1412796E+00
          2   -1    0    0  502    0  0.00000000000E+00  0.00000000000E+00  0.41218677574E+03  0.41218677574E+03  0.00000000000E+00 0.  1.
          1   -1    0    0  501    0 -0.00000000000E+00 -0.00000000000E+00 -0.93988884035E+02  0.93988884035E+02  0.00000000000E+00 0. -1.
          2    1    1    2  501    0 -0.56421730980E+02 -0.47013967226E+02  0.24714022463E+03  0.25782167378E+03  0.00000000000E+00 0.  1.
          1    1    1    2  502    0  0.52471953250E+02  0.16276057863E+02 -0.47192961526E+02  0.72425075458E+02  0.00000000000E+00 0. -1.
         22    1    1    2    0    0  0.15462431470E+02  0.67061885534E+01 -0.25038808236E+02  0.30182804206E+02  0.00000000000E+00 0. -1.
         22    1    1    2    0    0 -0.11512653740E+02  0.24031720809E+02  0.14328943683E+03  0.14574610632E+03  0.00000000000E+00 0.  1.
</event>
<event>
 6    1  0.1715574E-005  0.1023943E+03  0.7818608E-02  0.1401632E+00
          2   -1    0    0  502    0  0.00000000000E+00  0.00000000000E+00  0.49647868845E+03  0.49647868845E+03  0.00000000000E+00 0. -1.
          1   -1    0    0  501    0 -0.00000000000E+00 -0.00000000000E+00 -0.10217638187E+03  0.10217638187E+03  0.00000000000E+00 0.  1.
          2    1    1    2  501    0  0.52221723274E+02 -0.47166711180E+01  0.32214509528E+03  0.32638446314E+03  0.00000000000E+00 0. -1.
          1    1    1    2  502    0 -0.86664567186E+02  0.15160851073E+02 -0.43580499611E+02  0.98182781368E+02  0.00000000000E+00 0.  1.
         22    1    1    2    0    0 -0.10392469627E+02 -0.46039887796E+01 -0.24356434359E+02  0.26878170182E+02  0.00000000000E+00 0. -1.
         22    1    1    2    0    0  0.44835313539E+02 -0.58401911750E+01  0.14009414527E+03  0.14720965563E+03  0.00000000000E+00 0. -1.
</event>
<event>
 6    1  0.1715574E-005  0.2759374E+03  0.7818608E-02  0.1099817E+00
          2   -1    0    0  502    0  0.00000000000E+00  0.00000000000E+00  0.40138428900E+02  0.40138428900E+02  0.00000000000E+00 0.  1.
          1   -1    0    0  501    0 -0.00000000000E+00 -0.00000000000E+00 -0.18235941231E+04  0.18235941231E+04  0.00000000000E+00 0.  1.
          2    1    1    2  501    0 -0.19423740354E+03  0.51789302042E+02 -0.64226236108E+03  0.67298680611E+03  0.00000000000E+00 0.  1.
          1    1    1    2  502    0  0.19651018848E+03  0.17151312309E+02 -0.63272579328E+03  0.66276115695E+03  0.00000000000E+00 0.  1.
         22    1    1    2    0    0  0.54628173170E+02 -0.22540374240E+02 -0.32575590376E+03  0.33107282373E+03  0.00000000000E+00 0.  1.
         22    1    1    2    0    0 -0.56900958104E+02 -0.46400240110E+02 -0.18271163604E+03  0.19691176517E+03  0.00000000000E+00 0.  1.
</event>
<event>
 6    1  0.1715574E-005  0.1411279E+03  0.7818608E-02  0.1247300E+00
          2   -1    0    0  502    0  0.00000000000E+00  0.00000000000E+00  0.21397056993E+03  0.21397056993E+03  0.00000000000E+00 0.  1.
          1   -1    0    0  501    0 -0.00000000000E+00 -0.00000000000E+00 -0.20377640671E+03  0.20377640671E+03  0.00000000000E+00 0. -1.
          2    1    1    2  501    0  0.43627820449E+02  0.23065550942E+02  0.16043133436E+03  0.16784999077E+03  0.00000000000E+00 0.  1.
          1    1    1    2  502    0  0.32252290449E+02  0.22525692972E+02 -0.55161578602E+02  0.67752614983E+02  0.00000000000E+00 0. -1.
         22    1    1    2    0    0 -0.91147667058E+02 -0.44573920366E+02 -0.11734318210E+03  0.15512625172E+03  0.00000000000E+00 0. -1.
         22    1    1    2    0    0  0.15267556160E+02 -0.10173235488E+01  0.22267589560E+02  0.27018119163E+02  0.00000000000E+00 0.  1.
</event>
<event>
 6    1  0.1715574E-005  0.7781642E+02  0.7818608E-02  0.1335630E+00
          2   -1    0    0  502    0  0.00000000000E+00  0.00000000000E+00  0.35805259070E+03  0.35805259070E+03  0.00000000000E+00 0. -1.
          1   -1    0    0  501    0 -0.00000000000E+00 -0.00000000000E+00 -0.85395934175E+02  0.85395934175E+02  0.00000000000E+00 0.  1.
          2    1    1    2  501    0 -0.55992575912E+02 -0.93645832754E+01  0.21888972726E+03  0.22613176839E+03  0.00000000000E+00 0. -1.
          1    1    1    2  502    0  0.51116500910E+02  0.12707395911E+02 -0.35371219200E+02  0.63446810195E+02  0.00000000000E+00 0.  1.
         22    1    1    2    0    0  0.24158730281E+02 -0.21009832049E+01 -0.26909855143E+02  0.36224283057E+02  0.00000000000E+00 0.  1.
         22    1    1    2    0    0 -0.19282655278E+02 -0.12418294311E+01  0.11604800361E+03  0.11764566323E+03  0.00000000000E+00 0. -1.
</event>
<event>
 6    1  0.1715574E-005  0.2359591E+03  0.7818608E-02  0.1122790E+00
          2   -1    0    0  502    0  0.00000000000E+00  0.00000000000E+00  0.51614644900E+03  0.51614644900E+03  0.00000000000E+00 0.  1.
          1   -1    0    0  501    0 -0.00000000000E+00 -0.00000000000E+00 -0.12141346693E+03  0.12141346693E+03  0.00000000000E+00 0.  1.
          2    1    1    2  501    0  0.51797875856E+02  0.12927132791E+02  0.16770819365E+01  0.53412950763E+02  0.00000000000E+00 0.  1.
          1    1    1    2  502    0 -0.21013061691E+03  0.11794154407E+02  0.28091613106E+03  0.35100975902E+03  0.00000000000E+00 0.  1.
         22    1    1    2    0    0 -0.12481563543E+02  0.21799201692E+02  0.26367933116E+02  0.36417887360E+02  0.00000000000E+00 0. -1.
         22    1    1    2    0    0  0.17081430459E+03 -0.46520488890E+02  0.85771835953E+02  0.19671931879E+03  0.00000000000E+00 0.  1.
</event>
<event>
 6    1  0.1715574E-005  0.1366290E+03  0.7818608E-02  0.1222777E+00
          2   -1    0    0  502    0  0.00000000000E+00  0.00000000000E+00  0.14872694268E+03  0.14872694268E+03  0.00000000000E+00 0. -1.
          1   -1    0    0  501    0 -0.00000000000E+00 -0.00000000000E+00 -0.21822930973E+03  0.21822930973E+03  0.00000000000E+00 0. -1.
          2    1    1    2  501    0 -0.70107635049E+02 -0.18573007734E+01  0.24059015263E+02  0.74144226166E+02  0.00000000000E+00 0. -1.
          1    1    1    2  502    0  0.81430190029E+02 -0.40750297836E+02 -0.12330504468E+03  0.15328273440E+03  0.00000000000E+00 0. -1.
         22    1    1    2    0    0 -0.43511948599E+02  0.41477651604E+02  0.67176649079E+02  0.90146477662E+02  0.00000000000E+00 0. -1.
         22    1    1    2    0    0  0.32189393618E+02  0.11299470053E+01 -0.37432986712E+02  0.49382814176E+02  0.00000000000E+00 0. -1.
</event>
<event>
 6    1  0.1715574E-005  0.1031600E+03  0.7818608E-02  0.1278504E+00
          2   -1    0    0  502    0  0.00000000000E+00  0.00000000000E+00  0.45030473953E+02  0.45030473953E+02  0.00000000000E+00 0.  1.
          1   -1    0    0  501    0 -0.00000000000E+00 -0.00000000000E+00 -0.22918194135E+03  0.22918194135E+03  0.00000000000E+00 0.  1.
          2    1    1    2  501    0 -0.20514480612E+02  0.43833241084E+01 -0.43605153042E+02  0.48388705468E+02  0.00000000000E+00 0.  1.
          1    1    1    2  502    0  0.33748378471E+02 -0.12585747029E+02 -0.12618456441E+01  0.36040898049E+02  0.00000000000E+00 0.  1.
         22    1    1    2    0    0 -0.33166428108E+02  0.62671195473E+02 -0.76942689286E+02  0.10463206072E+03  0.00000000000E+00 0. -1.
         22    1    1    2    0    0  0.19932530249E+02 -0.54468772553E+02 -0.62341779422E+02  0.85150751065E+02  0.00000000000E+00 0.  1.
</event>
<event>
 6    1  0.1715574E-005  0.1103096E+03  0.7818608E-02  0.1261513E+00
          2   -1    0    0  502    0  0.00000000000E+00  0.00000000000E+00  0.70482332371E+03  0.70482332371E+03  0.00000000000E+00 0. -1.
          1   -1    0    0  501    0 -0.00000000000E+00 -0.00000000000E+00 -0.17184595638E+02  0.17184595638E+02  0.00000000000E+00 0. -1.
          2    1    1    2  501    0  0.66863676408E+00 -0.27364139243E+02  0.48642002651E+02  0.55814761610E+02  0.00000000000E+00 0. -1.
          1    1    1    2  502    0 -0.35845199741E+02  0.38451409760E+02  0.21532940569E+03  0.22165320257E+03  0.00000000000E+00 0. -1.
         22    1    1    2    0    0 -0.10869779714E+01  0.57174604069E+02  0.19008888068E+03  0.19850415469E+03  0.00000000000E+00 0. -1.
         22    1    1    2    0    0  0.36263540948E+02 -0.68261874586E+02  0.23357843905E+03  0.24603580047E+03  0.00000000000E+00 0. -1.
</event>
<event>
 6    1  0.1715574E-005  0.1018105E+03  0.7818608E-02  0.1278759E+00
          2   -1    0    0  502    0  0.00000000000E+00  0.00000000000E+00  0.62182563465E+02  0.62182563465E+02  0.00000000000E+00 0.  1.
          1   -1    0    0  501    0 -0.00000000000E+00 -0.00000000000E+00 -0.16155130797E+03  0.16155130797E+03  0.00000000000E+00 0.  1.
          2    1    1    2  501    0  0.23130847578E+02 -0.28392116444E+02 -0.10568662178E+02  0.38116203983E+02  0.00000000000E+00 0.  1.
          1    1    1    2  502    0 -0.33197944123E+02  0.22593133170E+02 -0.15313074950E+02  0.42977243104E+02  0.00000000000E+00 0.  1.
         22    1    1    2    0    0 -0.54596002824E+02  0.11901418520E+02 -0.44876566261E+02  0.71667799509E+02  0.00000000000E+00 0.  1.
         22    1    1    2    0    0  0.64663099369E+02 -0.61024352457E+01 -0.28610441119E+02  0.70972624841E+02  0.00000000000E+00 0.  1.
</event>
<event>
 6    1  0.1715574E-005  0.7118578E+02  0.7818608E-02  0.1374681E+00
          2   -1    0    0  502    0  0.00000000000E+00  0.00000000000E+00  0.13505974206E+03  0.13505974206E+03  0.00000000000E+00 0. -1.
          1   -1    0    0  501    0 -0.00000000000E+00 -0.00000000000E+00 -0.18629270064E+03  0.18629270064E+03  0.00000000000E+00 0.  1.
          2    1    1    2  501    0  0.90971610452E+01 -0.40508896998E+02  0.92854574411E+02  0.10171381943E+03  0.00000000000E+00 0. -1.
          1    1    1    2  502    0 -0.27756843870E+02  0.95344957660E+01 -0.43799419001E+02  0.52723221601E+02  0.00000000000E+00 0.  1.
         22    1    1    2    0    0  0.94575700036E+01 -0.45621439599E+01  0.29879410132E+02  0.31670774188E+02  0.00000000000E+00 0. -1.
         22    1    1    2    0    0  0.92021128212E+01  0.35536545192E+02 -0.13016752412E+03  0.13524462748E+03  0.00000000000E+00 0.  1.
</event>
<event>
 6    1  0.1715574E-005  0.8256912E+02  0.7818608E-02  0.1322093E+00
          2   -1    0    0  502    0  0.00000000000E+00  0.00000000000E+00  0.45501786666E+02  0.45501786666E+02  0.00000000000E+00 0. -1.
          1   -1    0    0  501    0 -0.00000000000E+00 -0.00000000000E+00 -0.33010013485E+03  0.33010013485E+03  0.00000000000E+00 0. -1.
          2    1    1    2  501    0  0.21621173521E+02 -0.39391686588E+02  0.65764165541E+01  0.45413977709E+02  0.00000000000E+00 0. -1.
          1    1    1    2  502    0 -0.15740173468E+02  0.20787606223E+02 -0.70877734115E+02  0.75521724203E+02  0.00000000000E+00 0. -1.
         22    1    1    2    0    0 -0.19442141289E+02  0.51795210292E+02 -0.21028369094E+03  0.21743958090E+03  0.00000000000E+00 0.  1.
         22    1    1    2    0    0  0.13561141236E+02 -0.33191129927E+02 -0.10013339683E+02  0.37226638702E+02  0.00000000000E+00 0. -1.
</event>
<event>
 6    1  0.1715574E-005  0.1300647E+03  0.7818608E-02  0.1334188E+00
          2   -1    0    0  502    0  0.00000000000E+00  0.00000000000E+00  0.69869814341E+03  0.69869814341E+03  0.00000000000E+00 0. -1.
          1   -1    0    0  501    0 -0.00000000000E+00 -0.00000000000E+00 -0.81909144894E+02  0.81909144894E+02  0.00000000000E+00 0. -1.
          2    1    1    2  501    0 -0.13827607473E+03  0.40316127889E+02  0.44768467499E+03  0.47028420261E+03  0.00000000000E+00 0. -1.
          1    1    1    2  502    0  0.40787688665E+02 -0.73491061494E+02  0.11785114271E+02  0.84873202983E+02  0.00000000000E+00 0. -1.
         22    1    1    2    0    0 -0.17007160559E+02 -0.37236565799E+00 -0.10163741806E+02  0.19816251259E+02  0.00000000000E+00 0.  1.
         22    1    1    2    0    0  0.11449554663E+03  0.33547299263E+02  0.16748295107E+03  0.20563363145E+03  0.00000000000E+00 0. -1.
</event>
<event>
 6    1  0.1715574E-005  0.1583659E+03  0.7818608E-02  0.1192459E+00
          2   -1    0    0  502    0  0.00000000000E+00  0.00000000000E+00  0.22739490686E+03  0.22739490686E+03  0.00000000000E+00 0.  1.
          1   -1    0    0  501    0 -0.00000000000E+00 -0.00000000000E+00 -0.11263636255E+03  0.11263636255E+03  0.00000000000E+00 0.  1.
          2    1    1    2  501    0  0.43607932834E+02  0.40214942586E+02  0.78434909036E+01  0.59836558748E+02  0.00000000000E+00 0.  1.
          1    1    1    2  502    0 -0.10341829085E+03 -0.42388282630E+02  0.77591884752E+02  0.13606105235E+03  0.00000000000E+00 0.  1.
         22    1    1    2    0    0  0.98877605990E+02 -0.51421699412E+01  0.88000941476E+01  0.99401531855E+02  0.00000000000E+00 0. -1.
         22    1    1    2    0    0 -0.39067247970E+02  0.73155099854E+01  0.20523074507E+02  0.44732126459E+02  0.00000000000E+00 0. -1.
</event>
<event>
 6    1  0.1715574E-005  0.5164200E+02  0.7818608E-02  0.1439725E+00
          2   -1    0    0  502    0  0.00000000000E+00  0.00000000000E+00  0.19777369571E+03  0.19777369571E+03  0.00000000000E+00 0.  1.
          1   -1    0    0  501    0 -0.00000000000E+00 -0.00000000000E+00 -0.12247444829E+03  0.12247444829E+03  0.00000000000E+00 0. -1.
          2    1    1    2  501    0  0.25717454466E+02  0.79059469742E+01  0.13180127966E+03  0.13451939928E+03  0.00000000000E+00 0.  1.
          1    1    1    2  502    0 -0.19708160705E+02 -0.18697370885E+02 -0.57187243493E+02  0.63311800596E+02  0.00000000000E+00 0. -1.
         22    1    1    2    0    0 -0.21235466708E+02 -0.55894714472E+01 -0.56712940263E+02  0.60815662708E+02  0.00000000000E+00 0. -1.
         22    1    1    2    0    0  0.15226172947E+02  0.16380895358E+02  0.57398151507E+02  0.61601281413E+02  0.00000000000E+00 0. -1.
</event>
<event>
 6    1  0.1715574E-005  0.9761960E+02  0.7818608E-02  0.1286283E+00
          2   -1    0    0  502    0  0.00000000000E+00  0.00000000000E+00  0.44114737659E+02  0.44114737659E+02  0.00000000000E+00 0. -1.
          1   -1    0    0  501    0 -0.00000000000E+00 -0.00000000000E+00 -0.26226800352E+03  0.26226800352E+03  0.00000000000E+00 0. -1.
          2    1    1    2  501    0 -0.14016994016E+02 -0.48687607236E+02 -0.43289107255E+02  0.66640123249E+02  0.00000000000E+00 0. -1.
          1    1    1    2  502    0 -0.12734410382E+00  0.34434773485E+02 -0.36530020027E+02  0.50201715157E+02  0.00000000000E+00 0. -1.
         22    1    1    2    0    0  0.42595939402E+02  0.39281803789E+02 -0.14009618611E+03  0.15160611968E+03  0.00000000000E+00 0. -1.
         22    1    1    2    0    0 -0.28451601282E+02 -0.25028970038E+02  0.17620475317E+01  0.37934783091E+02  0.00000000000E+00 0. -1.
</event>
<event>
 6    1  0.1715574E-005  0.2068897E+03  0.7818608E-02  0.1151197E+00
          2   -1    0    0  502    0  0.00000000000E+00  0.00000000000E+00  0.11736028185E+03  0.11736028185E+03  0.00000000000E+00 0.  1.
          1   -1    0    0  501    0 -0.00000000000E+00 -0.00000000000E+00 -0.35442402625E+03  0.35442402625E+03  0.00000000000E+00 0.  1.
          2    1    1    2  501    0  0.12817539127E+03  0.83724801667E+02 -0.10690224522E+03  0.18672670771E+03  0.00000000000E+00 0.  1.
          1    1    1    2  502    0 -0.64097834822E+02 -0.28765049102E+02  0.17034456622E+02  0.72291999496E+02  0.00000000000E+00 0.  1.
         22    1    1    2    0    0 -0.47336059424E+02 -0.82080183280E+02 -0.43458442532E+02  0.10424248288E+03  0.00000000000E+00 0.  1.
         22    1    1    2    0    0 -0.16741497020E+02  0.27120430715E+02 -0.10373751328E+03  0.10852311802E+03  0.00000000000E+00 0.  1.
</event>
<event>
 6    1  0.1715574E-005  0.7749804E+02  0.7818608E-02  0.1347316E+00
          2   -1    0    0  502    0  0.00000000000E+00  0.00000000000E+00  0.42761998998E+03  0.42761998998E+03  0.00000000000E+00 0. -1.
          1   -1    0    0  501    0 -0.00000000000E+00 -0.00000000000E+00 -0.71128489646E+02  0.71128489646E+02  0.00000000000E+00 0. -1.
          2    1    1    2  501    0 -0.26082568103E+02  0.20700629538E+02  0.26002025254E+03  0.26214375475E+03  0.00000000000E+00 0. -1.
          1    1    1    2  502    0  0.47171525246E+02 -0.70897092167E+00 -0.32185111622E+02  0.57109866432E+02  0.00000000000E+00 0. -1.
         22    1    1    2    0    0 -0.36302965610E+02 -0.15595298043E+02  0.14875153327E+03  0.15390951005E+03  0.00000000000E+00 0. -1.
         22    1    1    2    0    0  0.15214008467E+02 -0.43963605731E+01 -0.20095173860E+02  0.25585348393E+02  0.00000000000E+00 0. -1.
</event>
<event>
 6    1  0.1715574E-005  0.6682425E+02  0.7818608E-02  0.1452177E+00
          2   -1    0    0  502    0  0.00000000000E+00  0.00000000000E+00  0.41878079809E+02  0.41878079809E+02  0.00000000000E+00 0.  1.
          1   -1    0    0  501    0 -0.00000000000E+00 -0.00000000000E+00 -0.30653392448E+03  0.30653392448E+03  0.00000000000E+00 0.  1.
          2    1    1    2  501    0 -0.52537868407E+02  0.16962982515E+01 -0.27985189703E+02  0.59550616178E+02  0.00000000000E+00 0.  1.
          1    1    1    2  502    0  0.28578212987E+02 -0.42805343123E+01 -0.98724241986E+02  0.10286648233E+03  0.00000000000E+00 0.  1.
         22    1    1    2    0    0  0.39338362696E+02  0.13630476142E+02 -0.15501141567E+03  0.16050493963E+03  0.00000000000E+00 0.  1.
         22    1    1    2    0    0 -0.15378707276E+02 -0.11046240081E+02  0.17065002686E+02  0.25489966146E+02  0.00000000000E+00 0.  1.
</event>
<event>
 6    1  0.1715574E-005  0.7253510E+02  0.7818608E-02  0.1352866E+00
          2   -1    0    0  502    0  0.00000000000E+00  0.00000000000E+00  0.16607700651E+03  0.16607700651E+03  0.00000000000E+00 0.  1.
          1   -1    0    0  501    0 -0.00000000000E+00 -0.00000000000E+00 -0.12908597069E+03  0.12908597069E+03  0.00000000000E+00 0. -1.
          2    1    1    2  501    0  0.38240706183E+02 -0.14749133584E+02  0.87140648689E+02  0.96298396689E+02  0.00000000000E+00 0.  1.
          1    1    1    2  502    0 -0.31003187095E+02  0.38079403822E+02 -0.57673453545E+02  0.75746061609E+02  0.00000000000E+00 0. -1.
         22    1    1    2    0    0 -0.16220153460E+02  0.68247315814E+01 -0.52487471277E+02  0.55358874451E+02  0.00000000000E+00 0. -1.
         22    1    1    2    0    0  0.89826343727E+01 -0.30155001819E+02  0.60011311948E+02  0.67759644455E+02  0.00000000000E+00 0.  1.
</event>
<event>
 6    1  0.1715574E-005  0.1175360E+03  0.7818608E-02  0.1247235E+00
          2   -1    0    0  502    0  0.00000000000E+00  0.00000000000E+00  0.53806831144E+03  0.53806831144E+03  0.00000000000E+00 0. -1.
          1   -1    0    0  501    0 -0.00000000000E+00 -0.00000000000E+00 -0.31203354015E+02  0.31203354015E+02  0.00000000000E+00 0. -1.
          2    1    1    2  501    0  0.50772933747E+01  0.22051888199E+02  0.20463683243E+02  0.30509457764E+02  0.00000000000E+00 0. -1.
          1    1    1    2  502    0  0.23479246268E+02 -0.78064726005E+02  0.24624212479E+03  0.25938496578E+03  0.00000000000E+00 0. -1.
         22    1    1    2    0    0  0.31245674756E+02 -0.17203740391E+02  0.12706055668E+03  0.13197214077E+03  0.00000000000E+00 0. -1.
         22    1    1    2    0    0 -0.59802214399E+02  0.73216578197E+02  0.11309859271E+03  0.14740510114E+03  0.00000000000E+00 0. -1.
</event>
<event>
 6    1  0.1715574E-005  0.5452207E+02  0.7818608E-02  0.1489086E+00
          2   -1    0    0  502    0  0.00000000000E+00  0.00000000000E+00  0.63917280201E+02  0.63917280201E+02  0.00000000000E+00 0.  1.
          1   -1    0    0  501    0 -0.00000000000E+00 -0.00000000000E+00 -0.20541320273E+03  0.20541320273E+03  0.00000000000E+00 0. -1.
          2    1    1    2  501    0  0.21216408217E+02 -0.28463957128E+02  0.12622038357E+02  0.37678225613E+02  0.00000000000E+00 0.  1.
          1    1    1    2  502    0 -0.15500123014E+02  0.14778202035E+02 -0.89131006247E+02  0.91667798836E+02  0.00000000000E+00 0. -1.
         22    1    1    2    0    0 -0.53057697024E+01  0.34235016797E+02 -0.96404956596E+02  0.10244073030E+03  0.00000000000E+00 0. -1.
         22    1    1    2    0    0 -0.41051550084E+00 -0.20549261704E+02  0.31418001954E+02  0.37543728189E+02  0.00000000000E+00 0.  1.
</event>
<event>
 6    1  0.1715574E-005  0.1042822E+03  0.7818608E-02  0.1273237E+00
          2   -1    0    0  502    0  0.00000000000E+00  0.00000000000E+00  0.43356336120E+02  0.43356336120E+02  0.00000000000E+00 0. -1.
          1   -1    0    0  501    0 -0.00000000000E+00 -0.00000000000E+00 -0.31626778927E+03  0.31626778927E+03  0.00000000000E+00 0. -1.
          2    1    1    2  501    0 -0.59261862378E+02  0.20489812900E+02 -0.55550187214E+02  0.83771260374E+02  0.00000000000E+00 0. -1.
          1    1    1    2  502    0  0.16474750827E+02  0.19025045430E+02 -0.14324254123E+02  0.28957797302E+02  0.00000000000E+00 0. -1.
         22    1    1    2    0    0 -0.11816859091E+02 -0.30056434418E+02  0.40247504971E+01  0.32545752799E+02  0.00000000000E+00 0. -1.
         22    1    1    2    0    0  0.54603970642E+02 -0.94584239126E+01 -0.20706176231E+03  0.21434931491E+03  0.00000000000E+00 0. -1.
</event>
<event>
 6    1  0.1715574E-005  0.1266949E+03  0.7818608E-02  0.1233121E+00
          2   -1    0    0  502    0  0.00000000000E+00  0.00000000000E+00  0.10835988124E+03  0.10835988124E+03  0.00000000000E+00 0. -1.
          1   -1    0    0  501    0 -0.00000000000E+00 -0.00000000000E+00 -0.14795015913E+03  0.14795015913E+03  0.00000000000E+00 0. -1.
          2    1    1    2  501    0  0.52776303671E+02 -0.31641564972E+02 -0.27469726008E+02  0.67387778640E+02  0.00000000000E+00 0. -1.
          1    1    1    2  502    0 -0.59469041576E+02  0.27747509716E+02 -0.15619998332E+02  0.67457212730E+02  0.00000000000E+00 0. -1.
         22    1    1    2    0    0 -0.56665096196E+02 -0.36271863476E+00  0.10322823830E+02  0.57598831443E+02  0.00000000000E+00 0. -1.
         22    1    1    2    0    0  0.63357834101E+02  0.42567738909E+01 -0.68233773794E+01  0.63866217555E+02  0.00000000000E+00 0. -1.
</event>
<event>
 6    1  0.1715574E-005  0.5142438E+02  0.7818608E-02  0.1493550E+00
          2   -1    0    0  502    0  0.00000000000E+00  0.00000000000E+00  0.19526717183E+03  0.19526717183E+03  0.00000000000E+00 0. -1.
          1   -1    0    0  501    0 -0.00000000000E+00 -0.00000000000E+00 -0.89360264503E+02  0.89360264503E+02  0.00000000000E+00 0.  1.
          2    1    1    2  501    0  0.36107327413E+02  0.24397188075E+02  0.68130956643E+02  0.80875145329E+02  0.00000000000E+00 0. -1.
          1    1    1    2  502    0  0.23994807211E+02  0.41491368949E+02 -0.49877426223E+01  0.48188816615E+02  0.00000000000E+00 0.  1.
         22    1    1    2    0    0 -0.22227611886E+02 -0.59938016979E+01 -0.40279153645E+02  0.46393993224E+02  0.00000000000E+00 0. -1.
         22    1    1    2    0    0 -0.37874522739E+02 -0.59894755325E+02  0.83042846954E+02  0.10916948117E+03  0.00000000000E+00 0. -1.
</event>
<event>
 6    1  0.1950923E-005  0.1270476E+03  0.7818608E-02  0.1236354E+00
          2   -1    0    0  502    0  0.00000000000E+00  0.00000000000E+00  0.76162181526E+03  0.76162181526E+03  0.00000000000E+00 0.  1.
          1   -1    0    0  501    0 -0.00000000000E+00 -0.00000000000E+00 -0.92678940869E+02  0.92678940869E+02  0.00000000000E+00 0. -1.
          2    1    1    2  501    0  0.21271385107E+02  0.35128117877E+02  0.67400894442E+03  0.67525884937E+03  0.00000000000E+00 0.  1.
          1    1    1    2  502    0 -0.10814502938E+02 -0.21021160204E+02  0.39034736202E+02  0.45635000608E+02  0.00000000000E+00 0. -1.
         22    1    1    2    0    0  0.23876052490E+02 -0.99892499420E+01  0.37050809652E+02  0.45195281754E+02  0.00000000000E+00 0. -1.
         22    1    1    2    0    0 -0.34332934658E+02 -0.41177077307E+01 -0.81151615882E+02  0.88211624401E+02  0.00000000000E+00 0. -1.
</event>
<event>
 6    1  0.1715574E-005  0.1720139E+03  0.7818608E-02  0.1179188E+00
          2   -1    0    0  502    0  0.00000000000E+00  0.00000000000E+00  0.51522465359E+03  0.51522465359E+03  0.00000000000E+00 0. -1.
          1   -1    0    0  501    0 -0.00000000000E+00 -0.00000000000E+00 -0.62402271192E+02  0.62402271192E+02  0.00000000000E+00 0. -1.
          2    1    1    2  501    0 -0.18166461298E+02  0.23001668101E+02  0.13170774389E+03  0.13492971078E+03  0.00000000000E+00 0. -1.
          1    1    1    2  502    0  0.32424105239E+01 -0.11515515148E+03  0.38355953768E+02  0.12141829075E+03  0.00000000000E+00 0. -1.
         22    1    1    2    0    0  0.36492030378E+02  0.11366050548E+03  0.19786377256E+03  0.23108537660E+03  0.00000000000E+00 0. -1.
         22    1    1    2    0    0 -0.21567979604E+02 -0.21507022101E+02  0.84894912177E+02  0.90193546650E+02  0.00000000000E+00 0. -1.
</event>
<event>
 6    1  0.1715574E-005  0.1357971E+03  0.7818608E-02  0.1259308E+00
          2   -1    0    0  502    0  0.00000000000E+00  0.00000000000E+00  0.96995907576E+03  0.96995907576E+03  0.00000000000E+00 0. -1.
          1   -1    0    0  501    0 -0.00000000000E+00 -0.00000000000E+00 -0.44135392824E+02  0.44135392824E+02  0.00000000000E+00 0.  1.
          2    1    1    2  501    0  0.16433772036E+02 -0.31431945801E+02  0.66325330579E+03  0.66420101153E+03  0.00000000000E+00 0. -1.
          1    1    1    2  502    0 -0.29787112903E+02 -0.36024529150E+02 -0.52325935026E+01  0.47036356474E+02  0.00000000000E+00 0.  1.
         22    1    1    2    0    0  0.23479502321E+02  0.66550726595E+02  0.27896858622E+03  0.28775642189E+03  0.00000000000E+00 0. -1.
         22    1    1    2    0    0 -0.10126161454E+02  0.90574835658E+00 -0.11165615570E+02  0.15100678691E+02  0.00000000000E+00 0.  1.
</event>
<event>
 6    1  0.1715574E-005  0.1861399E+03  0.7818608E-02  0.1208352E+00
          2   -1    0    0  502    0  0.00000000000E+00  0.00000000000E+00  0.29145951577E+03  0.29145951577E+03  0.00000000000E+00 0. -1.
          1   -1    0    0  501    0 -0.00000000000E+00 -0.00000000000E+00 -0.78331761393E+02  0.78331761393E+02  0.00000000000E+00 0.  1.
          2    1    1    2  501    0  0.21320617409E+01  0.32382255873E+02 -0.17550728778E+02  0.36894230760E+02  0.00000000000E+00 0. -1.
          1    1    1    2  502    0  0.41466366613E+02  0.21104880184E+02 -0.15439453464E+02  0.49022976765E+02  0.00000000000E+00 0.  1.
         22    1    1    2    0    0  0.15981560669E+02 -0.11528898627E+02 -0.66607250174E+01  0.20801226953E+02  0.00000000000E+00 0. -1.
         22    1    1    2    0    0 -0.59579989023E+02 -0.41958237430E+02  0.25277866164E+03  0.26307284269E+03  0.00000000000E+00 0. -1.
</event>
<event>
 6    1  0.1715574E-005  0.1247568E+03  0.7818608E-02  0.1242106E+00
          2   -1    0    0  502    0  0.00000000000E+00  0.00000000000E+00  0.16861674494E+03  0.16861674494E+03  0.00000000000E+00 0. -1.
          1   -1    0    0  501    0 -0.00000000000E+00 -0.00000000000E+00 -0.81982810122E+02  0.81982810122E+02  0.00000000000E+00 0. -1.
          2    1    1    2  501    0  0.55496459069E+02 -0.36775068894E+02  0.36227631096E+02  0.75793825053E+02  0.00000000000E+00 0. -1.
          1    1    1    2  502    0 -0.10746084589E+02  0.19089966787E+02  0.38127725722E+02  0.43973044410E+02  0.00000000000E+00 0. -1.
         22    1    1    2    0    0 -0.31851195730E+02  0.69052481186E+02  0.16109942803E+02  0.77732065999E+02  0.00000000000E+00 0. -1.
         22    1    1    2    0    0 -0.12899178751E+02 -0.51367379078E+02 -0.38313648024E+01  0.53100619601E+02  0.00000000000E+00 0. -1.
</event>
<event>
 6    1  0.1715574E-005  0.6364904E+02  0.7818608E-02  0.1425051E+00
          2   -1    0    0  502    0  0.00000000000E+00  0.00000000000E+00  0.36709805799E+03  0.36709805799E+03  0.00000000000E+00 0. -1.
          1   -1    0    0  501    0 -0.00000000000E+00 -0.00000000000E+00 -0.38598311111E+02  0.38598311111E+02  0.00000000000E+00 0. -1.
          2    1    1    2  501    0  0.12710548759E+02 -0.31125052261E+02  0.68167954065E+02  0.76007873865E+02  0.00000000000E+00 0. -1.
          1    1    1    2  502    0 -0.52484849468E+02  0.24772015191E+02  0.15288851596E+03  0.16353351483E+03  0.00000000000E+00 0. -1.
         22    1    1    2    0    0  0.22911952233E+02 -0.21890325640E+02  0.12494073691E+03  0.12889659287E+03  0.00000000000E+00 0. -1.
         22    1    1    2    0    0  0.16862348476E+02  0.28243362710E+02 -0.17497460063E+02  0.37258387538E+02  0.00000000000E+00 0. -1.
</event>
<event>
 6    1  0.1715574E-005  0.1114567E+03  0.7818608E-02  0.1268609E+00
          2   -1    0    0  502    0  0.00000000000E+00  0.00000000000E+00  0.64352569044E+03  0.64352569044E+03  0.00000000000E+00 0. -1.
          1   -1    0    0  501    0 -0.00000000000E+00 -0.00000000000E+00 -0.29274366163E+02  0.29274366163E+02  0.00000000000E+00 0. -1.
          2    1    1    2  501    0  0.24515581418E+02  0.38148679036E+02  0.18736005224E+02  0.49064990943E+02  0.00000000000E+00 0. -1.
          1    1    1    2  502    0  0.14472069395E+01 -0.34317089556E+02  0.30691041411E+03  0.30882642266E+03  0.00000000000E+00 0. -1.
         22    1    1    2    0    0 -0.67830604424E+02  0.18789900514E+01  0.24485846180E+03  0.25408696900E+03  0.00000000000E+00 0. -1.
         22    1    1    2    0    0  0.41867816066E+02 -0.57105795311E+01  0.43746443144E+02  0.60821674002E+02  0.00000000000E+00 0. -1.
</event>
<event>
 6    1  0.1715574E-005  0.1506073E+03  0.7818608E-02  0.1218926E+00
          2   -1    0    0  502    0  0.00000000000E+00  0.00000000000E+00  0.73598274014E+02  0.73598274014E+02  0.00000000000E+00 0.  1.
          1   -1    0    0  501    0 -0.00000000000E+00 -0.00000000000E+00 -0.27629015816E+03  0.27629015816E+03  0.00000000000E+00 0.  1.
          2    1    1    2  501    0  0.35077825327E+02  0.28086336839E+01 -0.66423852414E+02  0.75169611030E+02  0.00000000000E+00 0.  1.
          1    1    1    2  502    0 -0.62782605281E+02  0.45717224221E+02 -0.10752043954E+03  0.13263621313E+03  0.00000000000E+00 0.  1.
         22    1    1    2    0    0  0.34653434056E+02 -0.64134305019E+02  0.31534551064E+02  0.79426050405E+02  0.00000000000E+00 0.  1.
         22    1    1    2    0    0 -0.69486541027E+01  0.15608447114E+02 -0.60282143258E+02  0.62656557605E+02  0.00000000000E+00 0.  1.
</event>
<event>
 6    1  0.1715574E-005  0.5225856E+02  0.7818608E-02  0.1530010E+00
          2   -1    0    0  502    0  0.00000000000E+00  0.00000000000E+00  0.39042308549E+03  0.39042308549E+03  0.00000000000E+00 0. -1.
          1   -1    0    0  501    0 -0.00000000000E+00 -0.00000000000E+00 -0.13744522706E+03  0.13744522706E+03  0.00000000000E+00 0. -1.
          2    1    1    2  501    0 -0.30008609885E+02  0.10986479652E+02  0.28417812386E+03  0.28596927367E+03  0.00000000000E+00 0. -1.
          1    1    1    2  502    0  0.45873978228E+02  0.60212337409E+01 -0.91250964851E+02  0.10231038911E+03  0.00000000000E+00 0. -1.
         22    1    1    2    0    0 -0.18329044468E+02 -0.38391945028E+01  0.97777034529E+02  0.99554215213E+02  0.00000000000E+00 0. -1.
         22    1    1    2    0    0  0.24636761247E+01 -0.13168518890E+02 -0.37726335107E+02  0.40034434558E+02  0.00000000000E+00 0. -1.
</event>
<event>
 6    1  0.1715574E-005  0.7505317E+02  0.7818608E-02  0.1344819E+00
          2   -1    0    0  502    0  0.00000000000E+00  0.00000000000E+00  0.32239456919E+03  0.32239456919E+03  0.00000000000E+00 0.  1.
          1   -1    0    0  501    0 -0.00000000000E+00 -0.00000000000E+00 -0.34494218811E+02  0.34494218811E+02  0.00000000000E+00 0.  1.
          2    1    1    2  501    0 -0.18769531129E+02 -0.21184823042E+02  0.73812542757E+02  0.79053042284E+02  0.00000000000E+00 0.  1.
          1    1    1    2  502    0  0.13045025026E+02  0.34170867532E+02  0.73070253762E+01  0.37298974325E+02  0.00000000000E+00 0.  1.
         22    1    1    2    0    0 -0.26831045844E+02 -0.33386865868E+02  0.19601112209E+03  0.20063635717E+03  0.00000000000E+00 0.  1.
         22    1    1    2    0    0  0.32555551947E+02  0.20400821378E+02  0.10769660155E+02  0.39900414225E+02  0.00000000000E+00 0.  1.
</event>
<event>
 6    1  0.1715574E-005  0.7592104E+02  0.7818608E-02  0.1375616E+00
          2   -1    0    0  502    0  0.00000000000E+00  0.00000000000E+00  0.94547861445E+02  0.94547861445E+02  0.00000000000E+00 0. -1.
          1   -1    0    0  501    0 -0.00000000000E+00 -0.00000000000E+00 -0.20070469119E+03  0.20070469119E+03  0.00000000000E+00 0.  1.
          2    1    1    2  501    0  0.94323147279E+02 -0.25280071993E+02 -0.71888640997E+02  0.12125970005E+03  0.00000000000E+00 0. -1.
          1    1    1    2  502    0 -0.16398683709E+02  0.15797599900E+02 -0.17742940694E+02  0.28866813721E+02  0.00000000000E+00 0.  1.
         22    1    1    2    0    0 -0.36699997729E+02  0.19382375683E+02 -0.67244078676E+02  0.79021088561E+02  0.00000000000E+00 0.  1.
         22    1    1    2    0    0 -0.41224465841E+02 -0.98999035899E+01  0.50718830620E+02  0.66104950302E+02  0.00000000000E+00 0. -1.
</event>
<event>
 6    1  0.1715574E-005  0.8035185E+02  0.7818608E-02  0.1328243E+00
          2   -1    0    0  502    0  0.00000000000E+00  0.00000000000E+00  0.20484445546E+03  0.20484445546E+03  0.00000000000E+00 0.  1.
          1   -1    0    0  501    0 -0.00000000000E+00 -0.00000000000E+00 -0.69104665788E+02  0.69104665788E+02  0.00000000000E+00 0.  1.
          2    1    1    2  501    0  0.33520388319E+02  0.81304941540E+01  0.58550593118E+02  0.67955083127E+02  0.00000000000E+00 0.  1.
          1    1    1    2  502    0 -0.41914077698E+02 -0.99527734013E+01 -0.19784680687E+02  0.47405497546E+02  0.00000000000E+00 0.  1.
         22    1    1    2    0    0 -0.34149260987E+02  0.14730924498E+02 -0.13451956469E+02  0.39549049235E+02  0.00000000000E+00 0. -1.
         22    1    1    2    0    0  0.42542950366E+02 -0.12908645251E+02  0.11042583371E+03  0.11903949134E+03  0.00000000000E+00 0.  1.
</event>
<event>
 6    1  0.1715574E-005  0.5475171E+02  0.7818608E-02  0.1423992E+00
          2   -1    0    0  502    0  0.00000000000E+00  0.00000000000E+00  0.92246180684E+02  0.92246180684E+02  0.00000000000E+00 0.  1.
          1   -1    0    0  501    0 -0.00000000000E+00 -0.00000000000E+00 -0.22557940769E+03  0.22557940769E+03  0.00000000000E+00 0.  1.
          2    1    1    2  501    0  0.29916959235E+02 -0.84176478881E+01  0.42032445714E+02  0.52274350675E+02  0.00000000000E+00 0.  1.
          1    1    1    2  502    0 -0.28716809730E+02  0.20464147112E+02 -0.12273935826E+03  0.12770429337E+03  0.00000000000E+00 0.  1.
         22    1    1    2    0    0  0.12810570660E+02 -0.19698360518E+02  0.38624355747E+02  0.45210363686E+02  0.00000000000E+00 0.  1.
         22    1    1    2    0    0 -0.14010720165E+02  0.76518612942E+01 -0.91250670204E+02  0.92636580644E+02  0.00000000000E+00 0.  1.
</event>
<event>
 6    1  0.1715574E-005  0.4964159E+02  0.7818608E-02  0.1519123E+00
          2   -1    0    0  502    0  0.00000000000E+00  0.00000000000E+00  0.17189823575E+03  0.17189823575E+03  0.00000000000E+00 0.  1.
          1   -1    0    0  501    0 -0.00000000000E+00 -0.00000000000E+00 -0.36033010254E+03  0.36033010254E+03  0.00000000000E+00 0.  1.
          2    1    1    2  501    0 -0.28711945558E+02 -0.23705271653E+02  0.10943201595E+03  0.11559274128E+03  0.00000000000E+00 0.  1.
          1    1    1    2  502    0  0.39559411340E+02  0.13767708721E+02 -0.28587472859E+03  0.28892707952E+03  0.00000000000E+00 0.  1.
         22    1    1    2    0    0 -0.25958139287E+01  0.17875285680E+02 -0.68093126135E+02  0.70448122153E+02  0.00000000000E+00 0.  1.
         22    1    1    2    0    0 -0.82516518540E+01 -0.79377227486E+01  0.56103971993E+02  0.57260395337E+02  0.00000000000E+00 0.  1.
</event>
<event>
 6    1  0.1715574E-005  0.6407376E+02  0.7818608E-02  0.1442263E+00
          2   -1    0    0  502    0  0.00000000000E+00  0.00000000000E+00  0.11890736887E+03  0.11890736887E+03  0.00000000000E+00 0. -1.
          1   -1    0    0  501    0 -0.00000000000E+00 -0.00000000000E+00 -0.65763459675E+03  0.65763459675E+03  0.00000000000E+00 0.  1.
          2    1    1    2  501    0 -0.23679545060E+02  0.43115542148E+02 -0.57220735489E+02  0.75457825300E+02  0.00000000000E+00 0. -1.
          1    1    1    2  502    0  0.57230349015E+01  0.46422627947E+02 -0.53458034420E+03  0.53662273332E+03  0.00000000000E+00 0.  1.
         22    1    1    2    0    0  0.15924329766E+02 -0.64749276198E+02  0.94790184528E+02  0.11589319277E+03  0.00000000000E+00 0. -1.
         22    1    1    2    0    0  0.20321803924E+01 -0.24788893897E+02 -0.41716332716E+02  0.48568214226E+02  0.00000000000E+00 0. -1.
</event>
<event>
 6    1  0.1715574E-005  0.7864389E+02  0.7818608E-02  0.1435754E+00
          2   -1    0    0  502    0  0.00000000000E+00  0.00000000000E+00  0.42267787801E+03  0.42267787801E+03  0.00000000000E+00 0.  1.
          1   -1    0    0  501    0 -0.00000000000E+00 -0.00000000000E+00 -0.17325468044E+03  0.17325468044E+03  0.00000000000E+00 0.  1.
          2    1    1    2  501    0  0.57516277213E+02 -0.43219523116E+02  0.34429918788E+03  0.35173566794E+03  0.00000000000E+00 0.  1.
          1    1    1    2  502    0 -0.34397642212E+02  0.47951922250E+02 -0.10489010944E+03  0.12035165016E+03  0.00000000000E+00 0.  1.
         22    1    1    2    0    0 -0.70252624505E+01 -0.13057508062E+02  0.64626454267E+02  0.66305591170E+02  0.00000000000E+00 0. -1.
         22    1    1    2    0    0 -0.16093372550E+02  0.83251089285E+01 -0.54612335142E+02  0.57539649186E+02  0.00000000000E+00 0. -1.
</event>
<event>
 6    1  0.1715574E-005  0.7889621E+02  0.7818608E-02  0.1332437E+00
          2   -1    0    0  502    0  0.00000000000E+00  0.00000000000E+00  0.77129959465E+02  0.77129959465E+02  0.00000000000E+00 0. -1.
          1   -1    0    0  501    0 -0.00000000000E+00 -0.00000000000E+00 -0.15396358194E+03  0.15396358194E+03  0.00000000000E+00 0. -1.
          2    1    1    2  501    0 -0.40658932548E+01 -0.36452227926E+02  0.27305888845E+02  0.45726447209E+02  0.00000000000E+00 0. -1.
          1    1    1    2  502    0 -0.10539867576E+02  0.30126021337E+02 -0.24527313926E+02  0.40252392457E+02  0.00000000000E+00 0. -1.
         22    1    1    2    0    0 -0.10181455445E+02  0.38662621913E+02 -0.93804979404E+02  0.10196977262E+03  0.00000000000E+00 0. -1.
         22    1    1    2    0    0  0.24787216276E+02 -0.32336415324E+02  0.14192782013E+02  0.43144929111E+02  0.00000000000E+00 0. -1.
</event>
<event>
 6    1  0.1715574E-005  0.1313453E+03  0.7818608E-02  0.1238617E+00
          2   -1    0    0  502    0  0.00000000000E+00  0.00000000000E+00  0.10516404527E+03  0.10516404527E+03  0.00000000000E+00 0. -1.
          1   -1    0    0  501    0 -0.00000000000E+00 -0.00000000000E+00 -0.33215800183E+03  0.33215800183E+03  0.00000000000E+00 0.  1.
          2    1    1    2  501    0 -0.44601942404E+02 -0.35418376710E+02  0.55545112022E+02  0.79555352708E+02  0.00000000000E+00 0. -1.
          1    1    1    2  502    0 -0.71325232830E+01  0.50526697473E+02 -0.17931163503E+03  0.18643090544E+03  0.00000000000E+00 0.  1.
         22    1    1    2    0    0  0.69320004446E+02  0.18846124078E+02 -0.11109451394E+03  0.13229675142E+03  0.00000000000E+00 0.  1.
         22    1    1    2    0    0 -0.17585538759E+02 -0.33954444841E+02  0.78670803817E+01  0.39039037535E+02  0.00000000000E+00 0. -1.
</event>
<event>
 6    1  0.1715574E-005  0.4196928E+02  0.7818608E-02  0.1498117E+00
          2   -1    0    0  502    0  0.00000000000E+00  0.00000000000E+00  0.10966266927E+03  0.10966266927E+03  0.00000000000E+00 0. -1.
          1   -1    0    0  501    0 -0.00000000000E+00 -0.00000000000E+00 -0.23183914013E+03  0.23183914013E+03  0.00000000000E+00 0. -1.
          2    1    1    2  501    0 -0.56624922299E+01  0.27612890617E+02  0.62772394016E+02  0.68810675022E+02  0.00000000000E+00 0. -1.
          1    1    1    2  502    0  0.10073278006E+02 -0.18384389746E+02 -0.14061212879E+03  0.14216619668E+03  0.00000000000E+00 0. -1.
         22    1    1    2    0    0 -0.37814184497E+01 -0.19644446378E+02 -0.85628883718E+02  0.87934686704E+02  0.00000000000E+00 0.  1.
         22    1    1    2    0    0 -0.62936732668E+00  0.10415945507E+02  0.41292147633E+02  0.42590250999E+02  0.00000000000E+00 0. -1.
</event>
<event>
 6    1  0.1715574E-005  0.1434221E+03  0.7818608E-02  0.1327477E+00
          2   -1    0    0  502    0  0.00000000000E+00  0.00000000000E+00  0.33053265083E+03  0.33053265083E+03  0.00000000000E+00 0. -1.
          1   -1    0    0  501    0 -0.00000000000E+00 -0.00000000000E+00 -0.45865154558E+03  0.45865154558E+03  0.00000000000E+00 0.  1.
          2    1    1    2  501    0 -0.53508718005E+02 -0.31784958282E+02  0.83850558193E+02  0.10442405175E+03  0.00000000000E+00 0. -1.
          1    1    1    2  502    0  0.11272466122E+03  0.46518166556E+02 -0.41866134467E+03  0.43605975575E+03  0.00000000000E+00 0.  1.
         22    1    1    2    0    0 -0.72431946543E+02 -0.93377463797E+01  0.21836908216E+03  0.23025776085E+03  0.00000000000E+00 0. -1.
         22    1    1    2    0    0  0.13216003325E+02 -0.53954618943E+01 -0.11677190437E+02  0.18442628051E+02  0.00000000000E+00 0.  1.
</event>
<event>
 6    1  0.1715574E-005  0.1073017E+03  0.7818608E-02  0.1266666E+00
          2   -1    0    0  502    0  0.00000000000E+00  0.00000000000E+00  0.39410534520E+02  0.39410534520E+02  0.00000000000E+00 0. -1.
          1   -1    0    0  501    0 -0.00000000000E+00 -0.00000000000E+00 -0.34456278964E+03  0.34456278964E+03  0.00000000000E+00 0. -1.
          2    1    1    2  501    0  0.10507008872E+02  0.53163780135E+02 -0.39185324179E+02  0.66875065493E+02  0.00000000000E+00 0. -1.
          1    1    1    2  502    0 -0.14174036041E+02 -0.40708628496E+02 -0.11614628519E+03  0.12388726849E+03  0.00000000000E+00 0. -1.
         22    1    1    2    0    0  0.36248949107E+02  0.38786410232E+02 -0.35807224266E+02  0.64035374909E+02  0.00000000000E+00 0.  1.
         22    1    1    2    0    0 -0.32581921938E+02 -0.51241561871E+02 -0.11401342149E+03  0.12917561527E+03  0.00000000000E+00 0. -1.
</event>
<event>
 6    1  0.1875099E-005  0.1335116E+03  0.7818608E-02  0.1254673E+00
          2   -1    0    0  502    0  0.00000000000E+00  0.00000000000E+00  0.25740048940E+03  0.25740048940E+03  0.00000000000E+00 0. -1.
          1   -1    0    0  501    0 -0.00000000000E+00 -0.00000000000E+00 -0.77189420273E+03  0.77189420273E+03  0.00000000000E+00 0. -1.
          2    1    1    2  501    0  0.33099268353E+03 -0.15756941554E+03 -0.61049750262E+02  0.37163335328E+03  0.00000000000E+00 0. -1.
          1    1    1    2  502    0 -0.30770558839E+03  0.16407708341E+03 -0.34452347221E+03  0.49020448929E+03  0.00000000000E+00 0. -1.
         22    1    1    2    0    0  0.23129809169E+02  0.10192122796E+02  0.18169686075E+02  0.31128844041E+02  0.00000000000E+00 0. -1.
         22    1    1    2    0    0 -0.46416904316E+02 -0.16699790667E+02 -0.12709017694E+03  0.13632800552E+03  0.00000000000E+00 0. -1.
</event>
<event>
 6    1  0.1715574E-005  0.7948353E+02  0.7818608E-02  0.1336262E+00
          2   -1    0    0  502    0  0.00000000000E+00  0.00000000000E+00  0.19082423783E+03  0.19082423783E+03  0.00000000000E+00 0. -1.
          1   -1    0    0  501    0 -0.00000000000E+00 -0.00000000000E+00 -0.16535975808E+03  0.16535975808E+03  0.00000000000E+00 0. -1.
          2    1    1    2  501    0 -0.55133921694E+02  0.15484927790E+02  0.14287985196E+03  0.15392915385E+03  0.00000000000E+00 0. -1.
          1    1    1    2  502    0  0.31062153281E+02 -0.59935393210E+01 -0.29904228069E+02  0.43532088584E+02  0.00000000000E+00 0. -1.
         22    1    1    2    0    0 -0.14394161061E+02 -0.17239793265E+01  0.30817306570E+02  0.34056869522E+02  0.00000000000E+00 0. -1.
         22    1    1    2    0    0  0.38465929475E+02 -0.77674091424E+01 -0.11832845071E+03  0.12466588395E+03  0.00000000000E+00 0. -1.
</event>
<event>
 6    1  0.1715574E-005  0.4445835E+02  0.7818608E-02  0.1561526E+00
          2   -1    0    0  502    0  0.00000000000E+00  0.00000000000E+00  0.57833264458E+02  0.57833264458E+02  0.00000000000E+00 0. -1.
          1   -1    0    0  501    0 -0.00000000000E+00 -0.00000000000E+00 -0.23706079747E+03  0.23706079747E+03  0.00000000000E+00 0.  1.
          2    1    1    2  501    0 -0.33031079379E+02 -0.58645221693E+01 -0.20475267757E+02  0.39302435229E+02  0.00000000000E+00 0. -1.
          1    1    1    2  502    0  0.33150298803E+02  0.11445455630E+01 -0.12509999914E+03  0.12942280356E+03  0.00000000000E+00 0.  1.
         22    1    1    2    0    0 -0.13404263587E+02  0.54782769771E+01  0.44549083478E+02  0.46843426857E+02  0.00000000000E+00 0. -1.
         22    1    1    2    0    0  0.13285044164E+02 -0.75830037084E+00 -0.78201349592E+02  0.79325396285E+02  0.00000000000E+00 0. -1.
</event>
<event>
 6    1  0.1715574E-005  0.5562282E+02  0.7818608E-02  0.1430521E+00
          2   -1    0    0  502    0  0.00000000000E+00  0.00000000000E+00  0.25589496525E+03  0.25589496525E+03  0.00000000000E+00 0. -1.
          1   -1    0    0  501    0 -0.00000000000E+00 -0.00000000000E+00 -0.98644329483E+02  0.98644329483E+02  0.00000000000E+00 0.  1.
          2    1    1    2  501    0  0.28009234429E+02  0.11227687769E+02  0.19412393285E+03  0.19645528624E+03  0.00000000000E+00 0. -1.
          1    1    1    2  502    0 -0.10763832124E+02 -0.19814001177E+02 -0.25307062414E+02  0.33895458880E+02  0.00000000000E+00 0.  1.
         22    1    1    2    0    0  0.13649883422E+02  0.22058467262E+01  0.51687132154E+02  0.53504623235E+02  0.00000000000E+00 0. -1.
         22    1    1    2    0    0 -0.30895285727E+02  0.63804666826E+01 -0.63253366818E+02  0.70683926384E+02  0.00000000000E+00 0.  1.
</event>
<event>
 6    1  0.1715574E-005  0.4372120E+02  0.7818608E-02  0.1491538E+00
          2   -1    0    0  502    0  0.00000000000E+00  0.00000000000E+00  0.55622874175E+03  0.55622874175E+03  0.00000000000E+00 0. -1.
          1   -1    0    0  501    0 -0.00000000000E+00 -0.00000000000E+00 -0.82144832127E+02  0.82144832127E+02  0.00000000000E+00 0.  1.
          2    1    1    2  501    0  0.51342511471E+01  0.36512052504E+02  0.37768988843E+03  0.37948536511E+03  0.00000000000E+00 0. -1.
          1    1    1    2  502    0 -0.64277059895E+01 -0.53076239530E+02 -0.46064403865E+02  0.70571466687E+02  0.00000000000E+00 0.  1.
         22    1    1    2    0    0  0.28980328750E+02 -0.28450915548E+01 -0.11037113542E+02  0.31141160475E+02  0.00000000000E+00 0.  1.
         22    1    1    2    0    0 -0.27686873907E+02  0.19409278580E+02  0.15349553861E+03  0.15717558161E+03  0.00000000000E+00 0. -1.
</event>
<event>
 6    1  0.1715574E-005  0.6121658E+02  0.7818608E-02  0.1397176E+00
          2   -1    0    0  502    0  0.00000000000E+00  0.00000000000E+00  0.28710731588E+03  0.28710731588E+03  0.00000000000E+00 0.  1.
          1   -1    0    0  501    0 -0.00000000000E+00 -0.00000000000E+00 -0.10915007648E+03  0.10915007648E+03  0.00000000000E+00 0. -1.
          2    1    1    2  501    0 -0.44671429082E+00  0.44529426074E+02  0.16347258457E+03  0.16942949934E+03  0.00000000000E+00 0.  1.
          1    1    1    2  502    0  0.51098205838E+02 -0.41203799878E+02  0.55571506271E+02  0.86005651404E+02  0.00000000000E+00 0. -1.
         22    1    1    2    0    0  0.10347475566E+02  0.13931819121E+02  0.36628018780E+02  0.40531192856E+02  0.00000000000E+00 0. -1.
         22    1    1    2    0    0 -0.60998967113E+02 -0.17257445317E+02 -0.77714870227E+02  0.10029104876E+03  0.00000000000E+00 0. -1.
</event>
<event>
 6    1  0.1715574E-005  0.1426918E+03  0.7818608E-02  0.1233483E+00
          2   -1    0    0  502    0  0.00000000000E+00  0.00000000000E+00  0.27139966660E+03  0.27139966660E+03  0.00000000000E+00 0. -1.
          1   -1    0    0  501    0 -0.00000000000E+00 -0.00000000000E+00 -0.73776708266E+02  0.73776708266E+02  0.00000000000E+00 0.  1.
          2    1    1    2  501    0  0.42621849065E+02  0.39224974086E+02  0.86299574114E+02  0.10393669757E+03  0.00000000000E+00 0. -1.
          1    1    1    2  502    0  0.22758318388E+02 -0.46198372973E+02 -0.13792384971E+02  0.53314731589E+02  0.00000000000E+00 0.  1.
         22    1    1    2    0    0 -0.84469798654E+02  0.11850790560E+02  0.29429597445E+02  0.90231310128E+02  0.00000000000E+00 0.  1.
         22    1    1    2    0    0  0.19089631201E+02 -0.48773916722E+01  0.95686171750E+02  0.97693635581E+02  0.00000000000E+00 0. -1.
</event>
<event>
 6    1  0.1715574E-005  0.4823697E+02  0.7818608E-02  0.1514214E+00
          2   -1    0    0  502    0  0.00000000000E+00  0.00000000000E+00  0.55822031142E+03  0.55822031142E+03  0.00000000000E+00 0. -1.
          1   -1    0    0  501    0 -0.00000000000E+00 -0.00000000000E+00 -0.88641209703E+02  0.88641209703E+02  0.00000000000E+00 0. -1.
          2    1    1    2  501    0  0.31162298725E+01 -0.40920147825E+02  0.42465977214E+03  0.42663812706E+03  0.00000000000E+00 0. -1.
          1    1    1    2  502    0 -0.18867590524E+02  0.30521582144E+02 -0.51860546552E+02  0.63064009050E+02  0.00000000000E+00 0. -1.
         22    1    1    2    0    0 -0.52774891368E+01  0.10326283048E+02 -0.28164061195E+02  0.30458141049E+02  0.00000000000E+00 0. -1.
         22    1    1    2    0    0  0.21028849789E+02  0.72282632833E-01  0.12494393732E+03  0.12670124396E+03  0.00000000000E+00 0. -1.
</event>
<event>
 6    1  0.1715574E-005  0.7430247E+02  0.7818608E-02  0.1410054E+00
          2   -1    0    0  502    0  0.00000000000E+00  0.00000000000E+00  0.56322652527E+03  0.56322652527E+03  0.00000000000E+00 0. -1.
          1   -1    0    0  501    0 -0.00000000000E+00 -0.00000000000E+00 -0.11765512442E+03  0.11765512442E+03  0.00000000000E+00 0.  1.
          2    1    1    2  501    0 -0.51809291328E+02  0.83036589628E+02  0.48665939683E+03  0.49640371313E+03  0.00000000000E+00 0. -1.
          1    1    1    2  502    0  0.21077560035E+02 -0.23301891887E+02 -0.32056946670E+02  0.44887520898E+02  0.00000000000E+00 0.  1.
         22    1    1    2    0    0  0.13132593636E+02 -0.22512098873E+02  0.56486691834E+02  0.62209372008E+02  0.00000000000E+00 0.  1.
         22    1    1    2    0    0  0.17599137656E+02 -0.37222598867E+02 -0.65517741147E+02  0.77381043659E+02  0.00000000000E+00 0.  1.
</event>
<event>
 6    1  0.1715574E-005  0.1179046E+03  0.7818608E-02  0.1316111E+00
          2   -1    0    0  502    0  0.00000000000E+00  0.00000000000E+00  0.63751946562E+03  0.63751946562E+03  0.00000000000E+00 0. -1.
          1   -1    0    0  501    0 -0.00000000000E+00 -0.00000000000E+00 -0.59470094549E+02  0.59470094549E+02  0.00000000000E+00 0. -1.
          2    1    1    2  501    0 -0.61589211931E+02  0.36808425777E+02  0.30129177794E+03  0.30971733353E+03  0.00000000000E+00 0. -1.
          1    1    1    2  502    0  0.87176941253E+02 -0.49307787337E+02  0.25687497685E+02  0.10339692701E+03  0.00000000000E+00 0. -1.
         22    1    1    2    0    0 -0.20181163100E+02  0.43493015844E+02  0.24762651900E+03  0.25222572169E+03  0.00000000000E+00 0.  1.
         22    1    1    2    0    0 -0.54065662219E+01 -0.30993654284E+02  0.34435764374E+01  0.31649577925E+02  0.00000000000E+00 0.  1.
</event>
<event>
 6    1  0.1715574E-005  0.5595206E+02  0.7818608E-02  0.1418802E+00
          2   -1    0    0  502    0  0.00000000000E+00  0.00000000000E+00  0.10807925920E+03  0.10807925920E+03  0.00000000000E+00 0. -1.
          1   -1    0    0  501    0 -0.00000000000E+00 -0.00000000000E+00 -0.29144711393E+03  0.29144711393E+03  0.00000000000E+00 0. -1.
          2    1    1    2  501    0 -0.14169264587E+02 -0.16990067636E+02  0.43721546558E+02  0.49000041742E+02  0.00000000000E+00 0. -1.
          1    1    1    2  502    0  0.31950159320E+02  0.12810882961E+02 -0.22417220255E+03  0.22679970855E+03  0.00000000000E+00 0. -1.
         22    1    1    2    0    0 -0.33611072920E+02 -0.10352122873E+01  0.54444837525E+02  0.63992313760E+02  0.00000000000E+00 0.  1.
         22    1    1    2    0    0  0.15830178187E+02  0.52143969623E+01 -0.57362036260E+02  0.59734309078E+02  0.00000000000E+00 0. -1.
</event>
<event>
 6    1  0.1715574E-005  0.1067480E+03  0.7818608E-02  0.1267214E+00
          2   -1    0    0  502    0  0.00000000000E+00  0.00000000000E+00  0.29335750453E+03  0.29335750453E+03  0.00000000000E+00 0. -1.
          1   -1    0    0  501    0 -0.00000000000E+00 -0.00000000000E+00 -0.59483521244E+02  0.59483521244E+02  0.00000000000E+00 0.  1.
          2    1    1    2  501    0 -0.98434037612E+01 -0.23750933005E+02  0.68622997296E+02  0.73281069685E+02  0.00000000000E+00 0. -1.
          1    1    1    2  502    0  0.11948461644E+02  0.70400117457E+02  0.71166671757E+01  0.71760638412E+02  0.00000000000E+00 0.  1.
         22    1    1    2    0    0  0.63176154034E+01 -0.79892611499E+02  0.15354251690E+03  0.17319944034E+03  0.00000000000E+00 0. -1.
         22    1    1    2    0    0 -0.84226732862E+01  0.33243427048E+02  0.45918019132E+01  0.34599877340E+02  0.00000000000E+00 0.  1.
</event>
<event>
 6    1  0.1715574E-005  0.8669429E+02  0.7818608E-02  0.1385766E+00
          2   -1    0    0  502    0  0.00000000000E+00  0.00000000000E+00  0.13085476163E+03  0.13085476163E+03  0.00000000000E+00 0. -1.
          1   -1    0    0  501    0 -0.00000000000E+00 -0.00000000000E+00 -0.17844737919E+03  0.17844737919E+03  0.00000000000E+00 0. -1.
          2    1    1    2  501    0  0.68623686203E+02  0.19342905287E+02  0.41270485384E+02  0.82380891333E+02  0.00000000000E+00 0. -1.
          1    1    1    2  502    0 -0.54240107284E+02 -0.27397683398E+02 -0.75080068585E+02  0.96590056385E+02  0.00000000000E+00 0. -1.
         22    1    1    2    0    0  0.31268016326E+01  0.23930039040E+02  0.53675782243E+02  0.58851620677E+02  0.00000000000E+00 0. -1.
         22    1    1    2    0    0 -0.17510380552E+02 -0.15875260928E+02 -0.67458816606E+02  0.71479572428E+02  0.00000000000E+00 0.  1.
</event>
<event>
 6    1  0.1715574E-005  0.2548063E+03  0.7818608E-02  0.1113383E+00
          2   -1    0    0  502    0  0.00000000000E+00  0.00000000000E+00  0.38080667645E+03  0.38080667645E+03  0.00000000000E+00 0.  1.
          1   -1    0    0  501    0 -0.00000000000E+00 -0.00000000000E+00 -0.37878111900E+03  0.37878111900E+03  0.00000000000E+00 0. -1.
          2    1    1    2  501    0  0.63562917304E+02 -0.21542551817E+03  0.27605290636E+03  0.35588425850E+03  0.00000000000E+00 0.  1.
          1    1    1    2  502    0 -0.43259782791E+02  0.12999383428E+03 -0.90715299630E+02  0.16431394142E+03  0.00000000000E+00 0. -1.
         22    1    1    2    0    0 -0.27760673829E+02  0.93538988357E+02 -0.19817324095E+03  0.22089099298E+03  0.00000000000E+00 0. -1.
         22    1    1    2    0    0  0.74575393158E+01 -0.81073044709E+01  0.14861191666E+02  0.18498602546E+02  0.00000000000E+00 0.  1.
</event>
<event>
 6    1  0.1715574E-005  0.5598538E+02  0.7818608E-02  0.1475830E+00
          2   -1    0    0  502    0  0.00000000000E+00  0.00000000000E+00  0.14913040619E+03  0.14913040619E+03  0.00000000000E+00 0.  1.
          1   -1    0    0  501    0 -0.00000000000E+00 -0.00000000000E+00 -0.16370877063E+03  0.16370877063E+03  0.00000000000E+00 0. -1.
          2    1    1    2  501    0 -0.30018903091E+02  0.24242868910E+02  0.68091227138E+02  0.78264081473E+02  0.00000000000E+00 0.  1.
          1    1    1    2  502    0  0.52906368280E+02 -0.51723434554E+02  0.13194118299E+02  0.75156385253E+02  0.00000000000E+00 0. -1.
         22    1    1    2    0    0 -0.16555376531E+02  0.15790933125E+02 -0.12516695543E+03  0.12724071987E+03  0.00000000000E+00 0. -1.
         22    1    1    2    0    0 -0.63320886583E+01  0.11689632519E+02  0.29303245556E+02  0.32177990231E+02  0.00000000000E+00 0. -1.
</event>
<event>
 6    1  0.1715574E-005  0.5360223E+02  0.7818608E-02  0.1512893E+00
          2   -1    0    0  502    0  0.00000000000E+00  0.00000000000E+00  0.11756351167E+03  0.11756351167E+03  0.00000000000E+00 0. -1.
          1   -1    0    0  501    0 -0.00000000000E+00 -0.00000000000E+00 -0.13962391713E+03  0.13962391713E+03  0.00000000000E+00 0. -1.
          2    1    1    2  501    0  0.29458127461E+02  0.14693359518E+02  0.61192667557E+02  0.69485384436E+02  0.00000000000E+00 0. -1.
          1    1    1    2  502    0 -0.28532907726E+02 -0.26884285619E+02 -0.42532287156E+02  0.57843643447E+02  0.00000000000E+00 0. -1.
         22    1    1    2    0    0  0.13594528706E+02  0.17897601167E+02  0.40949254712E+02  0.46711634523E+02  0.00000000000E+00 0. -1.
         22    1    1    2    0    0 -0.14519748441E+02 -0.57066750661E+01 -0.81670040573E+02  0.83146766397E+02  0.00000000000E+00 0. -1.
</event>
<event>
 6    1  0.1715574E-005  0.1336832E+03  0.7818608E-02  0.1227927E+00
          2   -1    0    0  502    0  0.00000000000E+00  0.00000000000E+00  0.16448778588E+03  0.16448778588E+03  0.00000000000E+00 0.  1.
          1   -1    0    0  501    0 -0.00000000000E+00 -0.00000000000E+00 -0.45847213200E+03  0.45847213200E+03  0.00000000000E+00 0.  1.
          2    1    1    2  501    0  0.13736739952E+03 -0.11105989314E+03 -0.14949818300E+03  0.23141695927E+03  0.00000000000E+00 0.  1.
          1    1    1    2  502    0 -0.10608839271E+03 -0.12072158145E+02 -0.18271828133E+03  0.21162810400E+03  0.00000000000E+00 0.  1.
         22    1    1    2    0    0 -0.82480173528E+01 -0.67382914560E+01 -0.29700125160E+02  0.31552049007E+02  0.00000000000E+00 0.  1.
         22    1    1    2    0    0 -0.23030989464E+02  0.12987034274E+03  0.67932243370E+02  0.14836280561E+03  0.00000000000E+00 0.  1.
</event>
<event>
 6    1  0.1715574E-005  0.9242500E+02  0.7818608E-02  0.1298417E+00
          2   -1    0    0  502    0  0.00000000000E+00  0.00000000000E+00  0.36610273670E+03  0.36610273670E+03  0.00000000000E+00 0.  1.
          1   -1    0    0  501    0 -0.00000000000E+00 -0.00000000000E+00 -0.94127346841E+02  0.94127346841E+02  0.00000000000E+00 0. -1.
          2    1    1    2  501    0 -0.18943178412E+02  0.51186370133E+02  0.25038571983E+03  0.25626528675E+03  0.00000000000E+00 0.  1.
          1    1    1    2  502    0  0.53751089263E+01 -0.52784830351E+02 -0.32870972237E+02  0.62414989602E+02  0.00000000000E+00 0. -1.
         22    1    1    2    0    0  0.27379228070E+02 -0.27966255076E+02 -0.31092484627E+02  0.49984759207E+02  0.00000000000E+00 0. -1.
         22    1    1    2    0    0 -0.13811158585E+02  0.29564715294E+02  0.85553126891E+02  0.91565047986E+02  0.00000000000E+00 0.  1.
</event>
<event>
 6    1  0.1715574E-005  0.1127885E+03  0.7818608E-02  0.1301014E+00
          2   -1    0    0  502    0  0.00000000000E+00  0.00000000000E+00  0.36098096967E+02  0.36098096967E+02  0.00000000000E+00 0. -1.
          1   -1    0    0  501    0 -0.00000000000E+00 -0.00000000000E+00 -0.48720416087E+03  0.48720416087E+03  0.00000000000E+00 0. -1.
          2    1    1    2  501    0 -0.19536068886E+02 -0.86839859153E+01 -0.36590582421E+01  0.21690050856E+02  0.00000000000E+00 0. -1.
          1    1    1    2  502    0 -0.21448060759E+02 -0.13540359191E+02 -0.31611786143E+03  0.31713382499E+03  0.00000000000E+00 0. -1.
         22    1    1    2    0    0  0.60755942039E+02  0.10851193890E+02 -0.14520709241E+03  0.15777874568E+03  0.00000000000E+00 0. -1.
         22    1    1    2    0    0 -0.19771812394E+02  0.11373151216E+02  0.13877948174E+02  0.26699636317E+02  0.00000000000E+00 0. -1.
</event>
<event>
 6    1  0.1715574E-005  0.7745111E+02  0.7818608E-02  0.1345114E+00
          2   -1    0    0  502    0  0.00000000000E+00  0.00000000000E+00  0.44897019410E+02  0.44897019410E+02  0.00000000000E+00 0. -1.
          1   -1    0    0  501    0 -0.00000000000E+00 -0.00000000000E+00 -0.24706106475E+03  0.24706106475E+03  0.00000000000E+00 0. -1.
          2    1    1    2  501    0 -0.42251093787E+02 -0.78984945672E+01 -0.11173799885E+02  0.44411653274E+02  0.00000000000E+00 0. -1.
          1    1    1    2  502    0  0.22762458204E+02 -0.96675440278E+01 -0.23289851324E+02  0.33970694513E+02  0.00000000000E+00 0. -1.
         22    1    1    2    0    0 -0.10903222845E+02  0.19185156224E+01  0.19961496238E+02  0.22825912964E+02  0.00000000000E+00 0. -1.
         22    1    1    2    0    0  0.30391858429E+02  0.15647522973E+02 -0.18766189037E+03  0.19074982341E+03  0.00000000000E+00 0. -1.
</event>
<event>
 6    1  0.1715574E-005  0.6474463E+02  0.7818608E-02  0.1381244E+00
          2   -1    0    0  502    0  0.00000000000E+00  0.00000000000E+00  0.44460625992E+03  0.44460625992E+03  0.00000000000E+00 0.  1.
          1   -1    0    0  501    0 -0.00000000000E+00 -0.00000000000E+00 -0.76671694489E+02  0.76671694489E+02  0.00000000000E+00 0.  1.
          2    1    1    2  501    0  0.34700100465E+02  0.24007823432E+02  0.33161077610E+03  0.33428457844E+03  0.00000000000E+00 0.  1.
          1    1    1    2  502    0 -0.28809899131E+02 -0.25627589157E+02 -0.28158649201E+02  0.47746132186E+02  0.00000000000E+00 0.  1.
         22    1    1    2    0    0  0.18828673277E+02 -0.21930891134E+01  0.96655045299E+02  0.98496326627E+02  0.00000000000E+00 0. -1.
         22    1    1    2    0    0 -0.24718874610E+02  0.38128548379E+01 -0.32172606759E+02  0.40750917164E+02  0.00000000000E+00 0.  1.
</event>
<event>
 6    1  0.1715574E-005  0.1428660E+03  0.7818608E-02  0.1213412E+00
          2   -1    0    0  502    0  0.00000000000E+00  0.00000000000E+00  0.44905793574E+02  0.44905793574E+02  0.00000000000E+00 0. -1.
          1   -1    0    0  501    0 -0.00000000000E+00 -0.00000000000E+00 -0.45075712774E+03  0.45075712774E+03  0.00000000000E+00 0. -1.
          2    1    1    2  501    0 -0.90132687500E+02 -0.35658715877E+02 -0.11308614598E+03  0.14894267953E+03  0.00000000000E+00 0. -1.
          1    1    1    2  502    0  0.49373646736E+02 -0.64196797421E+01 -0.64999952970E+02  0.81877733030E+02  0.00000000000E+00 0. -1.
         22    1    1    2    0    0  0.69620984761E+02  0.54997076027E+02 -0.21134359824E+03  0.22921142295E+03  0.00000000000E+00 0. -1.
         22    1    1    2    0    0 -0.28861943997E+02 -0.12918680408E+02 -0.16421636978E+02  0.35631085808E+02  0.00000000000E+00 0. -1.
</event>
<event>
 6    1  0.1715574E-005  0.1261215E+03  0.7818608E-02  0.1237470E+00
          2   -1    0    0  502    0  0.00000000000E+00  0.00000000000E+00  0.28657815283E+03  0.28657815283E+03  0.00000000000E+00 0. -1.
          1   -1    0    0  501    0 -0.00000000000E+00 -0.00000000000E+00 -0.11829929008E+03  0.11829929008E+03  0.00000000000E+00 0. -1.
          2    1    1    2  501    0 -0.54416493486E+02 -0.70699857722E+02  0.19491101637E+03  0.21435934537E+03  0.00000000000E+00 0. -1.
          1    1    1    2  502    0  0.45103122914E+02  0.28033046870E+02 -0.24991010360E+01  0.53163793313E+02  0.00000000000E+00 0. -1.
         22    1    1    2    0    0  0.32983873997E+02  0.52870005889E+02 -0.64355631792E+02  0.89581364188E+02  0.00000000000E+00 0. -1.
         22    1    1    2    0    0 -0.23670503426E+02 -0.10203195037E+02  0.40222579211E+02  0.47772940037E+02  0.00000000000E+00 0. -1.
</event>
<event>
 6    1  0.1715574E-005  0.7094105E+02  0.7818608E-02  0.1358722E+00
          2   -1    0    0  502    0  0.00000000000E+00  0.00000000000E+00  0.11276111705E+03  0.11276111705E+03  0.00000000000E+00 0.  1.
          1   -1    0    0  501    0 -0.00000000000E+00 -0.00000000000E+00 -0.32113363681E+03  0.32113363681E+03  0.00000000000E+00 0.  1.
          2    1    1    2  501    0  0.40216943792E+02  0.42128267182E+02  0.68577816345E+02  0.89972831223E+02  0.00000000000E+00 0.  1.
          1    1    1    2  502    0 -0.30807259118E+02 -0.32062647835E+02 -0.17245446407E+03  0.17809447712E+03  0.00000000000E+00 0.  1.
         22    1    1    2    0    0  0.29349023185E+01  0.96159773435E+01  0.28809141711E+02  0.30513067987E+02  0.00000000000E+00 0.  1.
         22    1    1    2    0    0 -0.12344586992E+02 -0.19681596691E+02 -0.13330501374E+03  0.13531437753E+03  0.00000000000E+00 0.  1.
</event>
<event>
 6    1  0.1715574E-005  0.9111668E+02  0.7818608E-02  0.1304392E+00
          2   -1    0    0  502    0  0.00000000000E+00  0.00000000000E+00  0.26914859739E+03  0.26914859739E+03  0.00000000000E+00 0. -1.
          1   -1    0    0  501    0 -0.00000000000E+00 -0.00000000000E+00 -0.12349102373E+03  0.12349102373E+03  0.00000000000E+00 0.  1.
          2    1    1    2  501    0 -0.10547190967E+02 -0.49149281249E+02  0.94613372372E+02  0.10713815994E+03  0.00000000000E+00 0. -1.
          1    1    1    2  502    0  0.25654977285E+01  0.72508645421E+02 -0.78191144941E+02  0.10666742983E+03  0.00000000000E+00 0.  1.
         22    1    1    2    0    0  0.14959032986E+01  0.10262820112E+02 -0.21706494592E+02  0.24056913991E+02  0.00000000000E+00 0.  1.
         22    1    1    2    0    0  0.64857899397E+01 -0.33622184285E+02  0.15094184082E+03  0.15477711735E+03  0.00000000000E+00 0. -1.
</event>
<event>
 6    1  0.2150451E-005  0.3260782E+03  0.7818608E-02  0.1103608E+00
          2   -1    0    0  502    0  0.00000000000E+00  0.00000000000E+00  0.24270785115E+03  0.24270785115E+03  0.00000000000E+00 0. -1.
          1   -1    0    0  501    0 -0.00000000000E+00 -0.00000000000E+00 -0.46907750540E+03  0.46907750540E+03  0.00000000000E+00 0. -1.
          2    1    1    2  501    0 -0.10869339151E+03 -0.30689552750E+01  0.15654829644E+03  0.19060703282E+03  0.00000000000E+00 0. -1.
          1    1    1    2  502    0  0.31891034825E+02  0.19288984008E+02  0.50613843587E+02  0.62855900033E+02  0.00000000000E+00 0. -1.
         22    1    1    2    0    0  0.70795707272E+02 -0.35435360204E+02 -0.43079005911E+03  0.43800430586E+03  0.00000000000E+00 0. -1.
         22    1    1    2    0    0  0.60066494078E+01  0.19215331470E+02 -0.27417351602E+01  0.20318117834E+02  0.00000000000E+00 0.  1.
</event>
<event>
 6    1  0.1715574E-005  0.4132613E+02  0.7818608E-02  0.1499363E+00
          2   -1    0    0  502    0  0.00000000000E+00  0.00000000000E+00  0.22422966050E+03  0.22422966050E+03  0.00000000000E+00 0.  1.
          1   -1    0    0  501    0 -0.00000000000E+00 -0.00000000000E+00 -0.98929963088E+02  0.98929963088E+02  0.00000000000E+00 0.  1.
          2    1    1    2  501    0 -0.26038761597E+02 -0.44808066902E+01  0.14948394417E+03  0.15180100229E+03  0.00000000000E+00 0.  1.
          1    1    1    2  502    0  0.21725210334E+02  0.22166110219E+01 -0.43596005366E+02  0.48759715056E+02  0.00000000000E+00 0.  1.
         22    1    1    2    0    0  0.16302222481E+02  0.10204832815E+02 -0.49027665994E+02  0.52665103280E+02  0.00000000000E+00 0. -1.
         22    1    1    2    0    0 -0.11988671218E+02 -0.79406371463E+01  0.68439424609E+02  0.69933802962E+02  0.00000000000E+00 0.  1.
</event>
<event>
 6    1  0.1715574E-005  0.2134933E+03  0.7818608E-02  0.1185321E+00
          2   -1    0    0  502    0  0.00000000000E+00  0.00000000000E+00  0.14355965777E+03  0.14355965777E+03  0.00000000000E+00 0. -1.
          1   -1    0    0  501    0 -0.00000000000E+00 -0.00000000000E+00 -0.28440705374E+03  0.28440705374E+03  0.00000000000E+00 0. -1.
          2    1    1    2  501    0 -0.24508506616E+02 -0.50230464950E+02  0.67512742504E+02  0.87645518460E+02  0.00000000000E+00 0. -1.
          1    1    1    2  502    0 -0.65675199984E+02 -0.84879741593E+01 -0.15779771261E+03  0.17112976276E+03  0.00000000000E+00 0. -1.
         22    1    1    2    0    0  0.10671878684E+03  0.61005558475E+02 -0.71661066872E+02  0.14228803933E+03  0.00000000000E+00 0. -1.
         22    1    1    2    0    0 -0.16535080241E+02 -0.22871193659E+01  0.21098641003E+02  0.26903390971E+02  0.00000000000E+00 0. -1.
</event>
<event>
 6    1  0.1715574E-005  0.1200605E+03  0.7818608E-02  0.1243591E+00
          2   -1    0    0  502    0  0.00000000000E+00  0.00000000000E+00  0.44589496791E+03  0.44589496791E+03  0.00000000000E+00 0. -1.
          1   -1    0    0  501    0 -0.00000000000E+00 -0.00000000000E+00 -0.51441861461E+02  0.51441861461E+02  0.00000000000E+00 0.  1.
          2    1    1    2  501    0 -0.91426828103E+02  0.49939410880E+01  0.24992180360E+03  0.26616670013E+03  0.00000000000E+00 0. -1.
          1    1    1    2  502    0  0.49556404722E+02  0.42904414275E+01  0.28810347557E+02  0.57482877998E+02  0.00000000000E+00 0.  1.
         22    1    1    2    0    0  0.66770214411E+02 -0.16750110298E+02  0.16054333783E+02  0.70686415673E+02  0.00000000000E+00 0.  1.
         22    1    1    2    0    0 -0.24899791029E+02  0.74657277824E+01  0.99666621504E+02  0.10300083556E+03  0.00000000000E+00 0.  1.
</event>
<event>
 6    1  0.1715574E-005  0.1385533E+03  0.7818608E-02  0.1217004E+00
          2   -1    0    0  502    0  0.00000000000E+00  0.00000000000E+00  0.16415977326E+03  0.16415977326E+03  0.00000000000E+00 0. -1.
          1   -1    0    0  501    0 -0.00000000000E+00 -0.00000000000E+00 -0.21403450752E+03  0.21403450752E+03  0.00000000000E+00 0.  1.
          2    1    1    2  501    0  0.15109242502E+02 -0.84600164703E+02  0.83909633058E+02  0.12010954832E+03  0.00000000000E+00 0. -1.
          1    1    1    2  502    0 -0.38542657854E+02  0.75480168696E+02 -0.77752984390E+02  0.11501442919E+03  0.00000000000E+00 0.  1.
         22    1    1    2    0    0 -0.11495746035E+02  0.44038168186E+02 -0.76974694036E+02  0.89423799718E+02  0.00000000000E+00 0. -1.
         22    1    1    2    0    0  0.34929161387E+02 -0.34918172179E+02  0.20943311113E+02  0.53646503557E+02  0.00000000000E+00 0.  1.
</event>
<event>
 6    1  0.1715574E-005  0.1587322E+03  0.7818608E-02  0.1219980E+00
          2   -1    0    0  502    0  0.00000000000E+00  0.00000000000E+00  0.23797085661E+03  0.23797085661E+03  0.00000000000E+00 0. -1.
          1   -1    0    0  501    0 -0.00000000000E+00 -0.00000000000E+00 -0.14315633002E+03  0.14315633002E+03  0.00000000000E+00 0.  1.
          2    1    1    2  501    0  0.81962156268E+01 -0.62956995786E+02  0.15745134185E+03  0.16976950939E+03  0.00000000000E+00 0. -1.
          1    1    1    2  502    0 -0.42693919631E+02 -0.16745918083E+01  0.19238420477E+02  0.46858210099E+02  0.00000000000E+00 0.  1.
         22    1    1    2    0    0  0.23101673429E+02  0.78569566717E+02 -0.10627985519E+03  0.13417254469E+03  0.00000000000E+00 0.  1.
         22    1    1    2    0    0  0.11396030575E+02 -0.13937979123E+02  0.24404619459E+02  0.30326922459E+02  0.00000000000E+00 0. -1.
</event>
<event>
 6    1  0.1715574E-005  0.5162201E+02  0.7818608E-02  0.1437476E+00
          2   -1    0    0  502    0  0.00000000000E+00  0.00000000000E+00  0.12722404007E+03  0.12722404007E+03  0.00000000000E+00 0.  1.
          1   -1    0    0  501    0 -0.00000000000E+00 -0.00000000000E+00 -0.15805749934E+03  0.15805749934E+03  0.00000000000E+00 0. -1.
          2    1    1    2  501    0 -0.18028865869E+02  0.19100780507E+02  0.49477411917E+02  0.56016909148E+02  0.00000000000E+00 0.  1.
          1    1    1    2  502    0  0.25931947483E+02 -0.25177621192E+02 -0.99602826079E+02  0.10595801750E+03  0.00000000000E+00 0. -1.
         22    1    1    2    0    0  0.13641910760E+02 -0.57222481739E+01 -0.48761175193E+02  0.50955844214E+02  0.00000000000E+00 0. -1.
         22    1    1    2    0    0 -0.21544992374E+02  0.11799088858E+02  0.68053130087E+02  0.72350768544E+02  0.00000000000E+00 0.  1.
</event>
<event>
 6    1  0.1715574E-005  0.3283380E+02  0.7818608E-02  0.1644298E+00
          2   -1    0    0  502    0  0.00000000000E+00  0.00000000000E+00  0.84938190001E+02  0.84938190001E+02  0.00000000000E+00 0. -1.
          1   -1    0    0  501    0 -0.00000000000E+00 -0.00000000000E+00 -0.14426561768E+03  0.14426561768E+03  0.00000000000E+00 0. -1.
          2    1    1    2  501    0 -0.24478062118E+01  0.39301159636E+02  0.18623535082E+02  0.43559258062E+02  0.00000000000E+00 0. -1.
          1    1    1    2  502    0  0.24546235443E+02 -0.17551502534E+02 -0.43878055319E+02  0.53252761940E+02  0.00000000000E+00 0. -1.
         22    1    1    2    0    0 -0.11380434277E+02 -0.25585366385E+02 -0.80164884187E+02  0.84914862739E+02  0.00000000000E+00 0. -1.
         22    1    1    2    0    0 -0.10717994955E+02  0.38357092828E+01  0.46091976745E+02  0.47476924941E+02  0.00000000000E+00 0. -1.
</event>
<event>
 6    1  0.1715574E-005  0.1543684E+03  0.7818608E-02  0.1195849E+00
          2   -1    0    0  502    0  0.00000000000E+00  0.00000000000E+00  0.19320926862E+03  0.19320926862E+03  0.00000000000E+00 0. -1.
          1   -1    0    0  501    0 -0.00000000000E+00 -0.00000000000E+00 -0.37463700632E+03  0.37463700632E+03  0.00000000000E+00 0. -1.
          2    1    1    2  501    0  0.95645586157E+02 -0.54345208732E+02  0.13222595295E+03  0.17200343746E+03  0.00000000000E+00 0. -1.
          1    1    1    2  502    0 -0.97508461935E+02  0.42195112288E+02 -0.20331163025E+03  0.22939909905E+03  0.00000000000E+00 0. -1.
         22    1    1    2    0    0  0.27874049863E+02 -0.23766687944E+02  0.10182353069E+02  0.38019711014E+02  0.00000000000E+00 0. -1.
         22    1    1    2    0    0 -0.26011174085E+02  0.35916784387E+02 -0.12052441347E+03  0.12842402742E+03  0.00000000000E+00 0. -1.
</event>
<event>
 6    1  0.2097140E-005  0.2249260E+03  0.7818608E-02  0.1130557E+00
          2   -1    0    0  502    0  0.00000000000E+00  0.00000000000E+00  0.65221852720E+03  0.65221852720E+03  0.00000000000E+00 0. -1.
          1   -1    0    0  501    0 -0.00000000000E+00 -0.00000000000E+00 -0.71755451838E+03  0.71755451838E+03  0.00000000000E+00 0. -1.
          2    1    1    2  501    0 -0.12353298793E+03  0.16677944128E+03  0.58452753987E+03  0.62028076386E+03  0.00000000000E+00 0. -1.
          1    1    1    2  502    0  0.10146162137E+03 -0.16311193468E+03 -0.57031556463E+03  0.60179714780E+03  0.00000000000E+00 0. -1.
         22    1    1    2    0    0 -0.53420660889E+01  0.14057729511E+02  0.29907315285E+02  0.33475437811E+02  0.00000000000E+00 0.  1.
         22    1    1    2    0    0  0.27413432652E+02 -0.17725236117E+02 -0.10945528171E+03  0.11421969611E+03  0.00000000000E+00 0. -1.
</event>
<event>
 6    1  0.1715574E-005  0.5641971E+02  0.7818608E-02  0.1444812E+00
          2   -1    0    0  502    0  0.00000000000E+00  0.00000000000E+00  0.32547753028E+02  0.32547753028E+02  0.00000000000E+00 0.  1.
          1   -1    0    0  501    0 -0.00000000000E+00 -0.00000000000E+00 -0.35367943140E+03  0.35367943140E+03  0.00000000000E+00 0.  1.
          2    1    1    2  501    0  0.32718210352E+02 -0.14665411634E+02 -0.56254164514E+02  0.66708969503E+02  0.00000000000E+00 0.  1.
          1    1    1    2  502    0 -0.38458931358E+02  0.47429458010E+01 -0.13569205329E+03  0.14111668315E+03  0.00000000000E+00 0.  1.
         22    1    1    2    0    0  0.34291648479E+02 -0.73730432386E+01  0.90243955165E+01  0.36217656419E+02  0.00000000000E+00 0.  1.
         22    1    1    2    0    0 -0.28550927474E+02  0.17295509071E+02 -0.13820985608E+03  0.14218387536E+03  0.00000000000E+00 0.  1.
</event>
<event>
 6    1  0.1715574E-005  0.6938379E+02  0.7818608E-02  0.1364835E+00
          2   -1    0    0  502    0  0.00000000000E+00  0.00000000000E+00  0.10765234503E+03  0.10765234503E+03  0.00000000000E+00 0.  1.
          1   -1    0    0  501    0 -0.00000000000E+00 -0.00000000000E+00 -0.33742307833E+03  0.33742307833E+03  0.00000000000E+00 0. -1.
          2    1    1    2  501    0 -0.33381581038E+01  0.54771518353E+02  0.77469176905E+02  0.94934376769E+02  0.00000000000E+00 0.  1.
          1    1    1    2  502    0  0.14775512206E+02 -0.24400493881E+02 -0.12413228390E+03  0.12736767160E+03  0.00000000000E+00 0. -1.
         22    1    1    2    0    0 -0.57517566129E+01  0.99822379401E+01  0.15900557283E+02  0.19635567227E+02  0.00000000000E+00 0. -1.
         22    1    1    2    0    0 -0.56855974892E+01 -0.40353262412E+02 -0.19900818359E+03  0.20313780776E+03  0.00000000000E+00 0. -1.
</event>
<event>
 6    1  0.1715574E-005  0.6578234E+02  0.7818608E-02  0.1376336E+00
          2   -1    0    0  502    0  0.00000000000E+00  0.00000000000E+00  0.39790781346E+03  0.39790781346E+03  0.00000000000E+00 0. -1.
          1   -1    0    0  501    0 -0.00000000000E+00 -0.00000000000E+00 -0.12052056476E+03  0.12052056476E+03  0.00000000000E+00 0. -1.
          2    1    1    2  501    0  0.35879844275E+02 -0.24265047482E+02  0.25267263176E+03  0.25635837142E+03  0.00000000000E+00 0. -1.
          1    1    1    2  502    0 -0.36127465866E+02  0.38051131080E+02 -0.81754951000E+02  0.97143987871E+02  0.00000000000E+00 0. -1.
         22    1    1    2    0    0  0.92813261053E+01 -0.20458033313E+02  0.13364579513E+03  0.13552074637E+03  0.00000000000E+00 0.  1.
         22    1    1    2    0    0 -0.90337045141E+01  0.66719497155E+01 -0.27176227189E+02  0.29405272563E+02  0.00000000000E+00 0. -1.
</event>
<event>
 6    1  0.1715574E-005  0.8530628E+02  0.7818608E-02  0.1316390E+00
          2   -1    0    0  502    0  0.00000000000E+00  0.00000000000E+00  0.31053649504E+03  0.31053649504E+03  0.00000000000E+00 0.  1.
          1   -1    0    0  501    0 -0.00000000000E+00 -0.00000000000E+00 -0.50315643232E+02  0.50315643232E+02  0.00000000000E+00 0. -1.
          2    1    1    2  501    0 -0.44845473539E+02 -0.21149844861E+02  0.17122704278E+03  0.17826141650E+03  0.00000000000E+00 0.  1.
          1    1    1    2  502    0  0.24131968214E+02  0.25955593402E+02  0.10841241348E+02  0.37061802880E+02  0.00000000000E+00 0. -1.
         22    1    1    2    0    0  0.41740462595E+02  0.20212237531E+02 -0.13436471148E+02  0.48283946820E+02  0.00000000000E+00 0. -1.
         22    1    1    2    0    0 -0.21026957270E+02 -0.25017986072E+02  0.91589038831E+02  0.97244972071E+02  0.00000000000E+00 0.  1.
</event>
<event>
 6    1  0.1715574E-005  0.4356220E+02  0.7818608E-02  0.1538704E+00
          2   -1    0    0  502    0  0.00000000000E+00  0.00000000000E+00  0.56579847707E+02  0.56579847707E+02  0.00000000000E+00 0.  1.
          1   -1    0    0  501    0 -0.00000000000E+00 -0.00000000000E+00 -0.32832557135E+03  0.32832557135E+03  0.00000000000E+00 0.  1.
          2    1    1    2  501    0 -0.21866817033E+02  0.81074007175E+01  0.74734713736E+01  0.24489597954E+02  0.00000000000E+00 0.  1.
          1    1    1    2  502    0  0.25313904581E+02 -0.98681463421E+01 -0.22328179328E+03  0.22492872935E+03  0.00000000000E+00 0.  1.
         22    1    1    2    0    0 -0.13082154176E+02  0.15959183588E+02  0.36252298690E+02  0.41714115825E+02  0.00000000000E+00 0.  1.
         22    1    1    2    0    0  0.96350666286E+01 -0.14198437964E+02 -0.92189700422E+02  0.93772975923E+02  0.00000000000E+00 0. -1.
</event>
<event>
 6    1  0.1715574E-005  0.2952169E+02  0.7818608E-02  0.1624485E+00
          2   -1    0    0  502    0  0.00000000000E+00  0.00000000000E+00  0.11305970615E+03  0.11305970615E+03  0.00000000000E+00 0.  1.
          1   -1    0    0  501    0 -0.00000000000E+00 -0.00000000000E+00 -0.29974427788E+03  0.29974427788E+03  0.00000000000E+00 0. -1.
          2    1    1    2  501    0  0.33271659025E+02  0.31848126438E+02 -0.31223748336E+02  0.55643767953E+02  0.00000000000E+00 0.  1.
          1    1    1    2  502    0 -0.38679609396E+02 -0.29634496031E+02 -0.21202357861E+03  0.21755071460E+03  0.00000000000E+00 0. -1.
         22    1    1    2    0    0 -0.44633554901E+01  0.14229105738E+02 -0.39202319437E+02  0.41942947460E+02  0.00000000000E+00 0. -1.
         22    1    1    2    0    0  0.98713058610E+01 -0.16442736146E+02  0.95765074644E+02  0.97666554014E+02  0.00000000000E+00 0.  1.
</event>
<event>
 6    1  0.1715574E-005  0.1074286E+03  0.7818608E-02  0.1266362E+00
          2   -1    0    0  502    0  0.00000000000E+00  0.00000000000E+00  0.37429913535E+02  0.37429913535E+02  0.00000000000E+00 0. -1.
          1   -1    0    0  501    0 -0.00000000000E+00 -0.00000000000E+00 -0.31849839423E+03  0.31849839423E+03  0.00000000000E+00 0. -1.
          2    1    1    2  501    0  0.19770158964E+02  0.37295202427E+02 -0.95529729300E+02  0.10444003298E+03  0.00000000000E+00 0. -1.
          1    1    1    2  502    0 -0.27764175872E+02 -0.23655959685E+02 -0.18143517867E+02  0.40738693291E+02  0.00000000000E+00 0. -1.
         22    1    1    2    0    0  0.41651843216E+02  0.44391159848E+02 -0.83420555326E+02  0.10326877634E+03  0.00000000000E+00 0.  1.
         22    1    1    2    0    0 -0.33657826309E+02 -0.58030402590E+02 -0.83974678201E+02  0.10748080515E+03  0.00000000000E+00 0. -1.
</event>
<event>
 6    1  0.1715574E-005  0.5719121E+02  0.7818608E-02  0.1495881E+00
          2   -1    0    0  502    0  0.00000000000E+00  0.00000000000E+00  0.30302038768E+03  0.30302038768E+03  0.00000000000E+00 0. -1.
          1   -1    0    0  501    0 -0.00000000000E+00 -0.00000000000E+00 -0.66689516964E+02  0.66689516964E+02  0.00000000000E+00 0.  1.
          2    1    1    2  501    0  0.67550630342E+02 -0.33618486514E+02  0.55109590988E+02  0.93436381105E+02  0.00000000000E+00 0. -1.
          1    1    1    2  502    0  0.18832991481E+01  0.55704059852E+02  0.20276040757E+02  0.59309416862E+02  0.00000000000E+00 0.  1.
         22    1    1    2    0    0 -0.53234516019E+02 -0.22494115556E+02  0.18167891237E+03  0.19064922274E+03  0.00000000000E+00 0.  1.
         22    1    1    2    0    0 -0.16199413471E+02  0.40854221821E+00 -0.20733673406E+02  0.26314883934E+02  0.00000000000E+00 0. -1.
</event>
<event>
 6    1  0.1715574E-005  0.1015625E+03  0.7818608E-02  0.1278039E+00
          2   -1    0    0  502    0  0.00000000000E+00  0.00000000000E+00  0.43582531436E+03  0.43582531436E+03  0.00000000000E+00 0. -1.
          1   -1    0    0  501    0 -0.00000000000E+00 -0.00000000000E+00 -0.59333283228E+02  0.59333283228E+02  0.00000000000E+00 0. -1.
          2    1    1    2  501    0  0.35070104185E+02 -0.16055733847E+02 -0.16222825368E+02  0.41843504392E+02  0.00000000000E+00 0. -1.
          1    1    1    2  502    0 -0.33305273343E+02  0.32125314341E+02  0.27692700639E+03  0.28076652920E+03  0.00000000000E+00 0. -1.
         22    1    1    2    0    0 -0.18323405089E+02  0.40124168515E+02  0.10375606839E+03  0.11274314968E+03  0.00000000000E+00 0. -1.
         22    1    1    2    0    0  0.16558574247E+02 -0.56193749009E+02  0.12031781720E+02  0.59805414305E+02  0.00000000000E+00 0. -1.
</event>
<event>
 6    1  0.1715574E-005  0.6878944E+02  0.7818608E-02  0.1455779E+00
          2   -1    0    0  502    0  0.00000000000E+00  0.00000000000E+00  0.17923109177E+03  0.17923109177E+03  0.00000000000E+00 0.  1.
          1   -1    0    0  501    0 -0.00000000000E+00 -0.00000000000E+00 -0.90014190057E+02  0.90014190057E+02  0.00000000000E+00 0.  1.
          2    1    1    2  501    0 -0.20524980916E+01  0.51480016881E+02  0.58358223068E+02  0.77846561171E+02  0.00000000000E+00 0.  1.
          1    1    1    2  502    0 -0.17948515960E+02 -0.35680829812E+02 -0.27144816610E+02  0.48291944567E+02  0.00000000000E+00 0.  1.
         22    1    1    2    0    0  0.93629888790E+01 -0.28366995517E+02 -0.36507895048E+02  0.47171796619E+02  0.00000000000E+00 0. -1.
         22    1    1    2    0    0  0.10638025173E+02  0.12567808448E+02  0.94511390306E+02  0.95934979472E+02  0.00000000000E+00 0.  1.
</event>
<event>
 6    1  0.1715574E-005  0.9204223E+02  0.7818608E-02  0.1299128E+00
          2   -1    0    0  502    0  0.00000000000E+00  0.00000000000E+00  0.77962265689E+02  0.77962265689E+02  0.00000000000E+00 0.  1.
          1   -1    0    0  501    0 -0.00000000000E+00 -0.00000000000E+00 -0.47066092036E+03  0.47066092036E+03  0.00000000000E+00 0.  1.
          2    1    1    2  501    0 -0.44094787879E+02 -0.60018447365E+02  0.35896851429E+02  0.82674955607E+02  0.00000000000E+00 0.  1.
          1    1    1    2  502    0  0.33762569884E+02  0.30909998743E+02 -0.18198205018E+03  0.18765075468E+03  0.00000000000E+00 0.  1.
         22    1    1    2    0    0 -0.17259483058E+02 -0.32705472411E+01  0.86028435180E+01  0.19560039654E+02  0.00000000000E+00 0.  1.
         22    1    1    2    0    0  0.27591701053E+02  0.32378995863E+02 -0.25521629944E+03  0.25873743610E+03  0.00000000000E+00 0.  1.
</event>
<event>
 6    1  0.1715574E-005  0.9419791E+02  0.7818608E-02  0.1299255E+00
          2   -1    0    0  502    0  0.00000000000E+00  0.00000000000E+00  0.27341763834E+02  0.27341763834E+02  0.00000000000E+00 0. -1.
          1   -1    0    0  501    0 -0.00000000000E+00 -0.00000000000E+00 -0.60406101579E+03  0.60406101579E+03  0.00000000000E+00 0.  1.
          2    1    1    2  501    0 -0.56291415692E+02  0.38139050110E+01 -0.53728761953E+02  0.77910520555E+02  0.00000000000E+00 0. -1.
          1    1    1    2  502    0  0.21575047031E+02 -0.30069171752E+02 -0.21826205924E+03  0.22137742488E+03  0.00000000000E+00 0.  1.
         22    1    1    2    0    0 -0.19488703882E+02  0.83453097389E+01  0.88158694486E+00  0.21218646733E+02  0.00000000000E+00 0. -1.
         22    1    1    2    0    0  0.54205072544E+02  0.17909957002E+02 -0.30561001771E+03  0.31089618746E+03  0.00000000000E+00 0.  1.
</event>
<event>
 6    1  0.1715574E-005  0.1078029E+03  0.7818608E-02  0.1292249E+00
          2   -1    0    0  502    0  0.00000000000E+00  0.00000000000E+00  0.32009917729E+03  0.32009917729E+03  0.00000000000E+00 0. -1.
          1   -1    0    0  501    0 -0.00000000000E+00 -0.00000000000E+00 -0.79574986471E+02  0.79574986471E+02  0.00000000000E+00 0. -1.
          2    1    1    2  501    0  0.65292734541E+02 -0.27522909936E+02  0.49307681901E+02  0.86324383865E+02  0.00000000000E+00 0. -1.
          1    1    1    2  502    0 -0.97955659937E+02  0.41033049439E+02  0.47236740013E+02  0.11623395402E+03  0.00000000000E+00 0. -1.
         22    1    1    2    0    0  0.56334347802E+02 -0.29785739352E+02  0.15402231149E+03  0.16668419676E+03  0.00000000000E+00 0. -1.
         22    1    1    2    0    0 -0.23671422407E+02  0.16275599849E+02 -0.10042542589E+02  0.30431629119E+02  0.00000000000E+00 0.  1.
</event>
<event>
 6    1  0.1715574E-005  0.9726935E+02  0.7818608E-02  0.1326793E+00
          2   -1    0    0  502    0  0.00000000000E+00  0.00000000000E+00  0.31346583709E+03  0.31346583709E+03  0.00000000000E+00 0. -1.
          1   -1    0    0  501    0 -0.00000000000E+00 -0.00000000000E+00 -0.14420527079E+03  0.14420527079E+03  0.00000000000E+00 0. -1.
          2    1    1    2  501    0 -0.15332250070E+02  0.57812365928E+02  0.11823063530E+03  0.13249841761E+03  0.00000000000E+00 0. -1.
          1    1    1    2  502    0  0.42196402780E+02 -0.49625248022E+02 -0.10408750096E+03  0.12279010344E+03  0.00000000000E+00 0. -1.
         22    1    1    2    0    0 -0.22358967899E+02 -0.40562868207E+02  0.25873361115E+01  0.46389266332E+02  0.00000000000E+00 0. -1.
         22    1    1    2    0    0 -0.45051848112E+01  0.32375750301E+02  0.15253009585E+03  0.15599332049E+03  0.00000000000E+00 0. -1.
</event>
<event>
 6    1  0.1715574E-005  0.4651797E+02  0.7818608E-02  0.1468769E+00
          2   -1    0    0  502    0  0.00000000000E+00  0.00000000000E+00  0.15914056900E+03  0.15914056900E+03  0.00000000000E+00 0.  1.
          1   -1    0    0  501    0 -0.00000000000E+00 -0.00000000000E+00 -0.27175461212E+03  0.27175461212E+03  0.00000000000E+00 0. -1.
          2    1    1    2  501    0 -0.27711304636E+02  0.89392775473E+01  0.94921997681E+02  0.99287525558E+02  0.00000000000E+00 0.  1.
          1    1    1    2  502    0  0.18650959088E+02 -0.21186176669E+02 -0.20264490394E+03  0.20460124498E+03  0.00000000000E+00 0. -1.
         22    1    1    2    0    0 -0.49583833221E+01  0.16671083046E+02  0.58966742664E+02  0.61478348347E+02  0.00000000000E+00 0.  1.
         22    1    1    2    0    0  0.14018728870E+02 -0.44241839249E+01 -0.63857879529E+02  0.65528062237E+02  0.00000000000E+00 0. -1.
</event>
<event>
 6    1  0.1715574E-005  0.4720352E+02  0.7818608E-02  0.1461045E+00
          2   -1    0    0  502    0  0.00000000000E+00  0.00000000000E+00  0.19924168478E+03  0.19924168478E+03  0.00000000000E+00 0.  1.
          1   -1    0    0  501    0 -0.00000000000E+00 -0.00000000000E+00 -0.22418075017E+03  0.22418075017E+03  0.00000000000E+00 0. -1.
          2    1    1    2  501    0 -0.27756485614E+02 -0.40264900384E+00  0.12234454754E+03  0.12545426630E+03  0.00000000000E+00 0.  1.
          1    1    1    2  502    0  0.31692223389E+02  0.35738577392E+01 -0.16979246403E+03  0.17276183121E+03  0.00000000000E+00 0. -1.
         22    1    1    2    0    0  0.13275116238E+02  0.55180748662E+01 -0.49040803463E+02  0.51104581650E+02  0.00000000000E+00 0. -1.
         22    1    1    2    0    0 -0.17210854014E+02 -0.86892836015E+01  0.71549654552E+02  0.74101755795E+02  0.00000000000E+00 0. -1.
</event>
<event>
 6    1  0.1715574E-005  0.9762592E+02  0.7818608E-02  0.1289980E+00
          2   -1    0    0  502    0  0.00000000000E+00  0.00000000000E+00  0.15205164118E+03  0.15205164118E+03  0.00000000000E+00 0. -1.
          1   -1    0    0  501    0 -0.00000000000E+00 -0.00000000000E+00 -0.19323666554E+03  0.19323666554E+03  0.00000000000E+00 0. -1.
          2    1    1    2  501    0  0.19394812992E+01 -0.30980074881E+02  0.56290597577E+02  0.64281863717E+02  0.00000000000E+00 0. -1.
          1    1    1    2  502    0  0.37688980227E+02  0.64288706194E+02 -0.12401342896E+03  0.14468181481E+03  0.00000000000E+00 0. -1.
         22    1    1    2    0    0  0.73679572270E+01  0.10885017964E+02 -0.40923390173E+02  0.42982487981E+02  0.00000000000E+00 0.  1.
         22    1    1    2    0    0 -0.46996418754E+02 -0.44193649277E+02  0.67461197191E+02  0.93342140207E+02  0.00000000000E+00 0. -1.
</event>
<event>
 6    1  0.1715574E-005  0.7390883E+02  0.7818608E-02  0.1381920E+00
          2   -1    0    0  502    0  0.00000000000E+00  0.00000000000E+00  0.19514718581E+03  0.19514718581E+03  0.00000000000E+00 0.  1.
          1   -1    0    0  501    0 -0.00000000000E+00 -0.00000000000E+00 -0.29488404733E+03  0.29488404733E+03  0.00000000000E+00 0. -1.
          2    1    1    2  501    0  0.73788578797E+02  0.15997513239E+02  0.21534532207E+02  0.78513762285E+02  0.00000000000E+00 0.  1.
          1    1    1    2  502    0 -0.10385266593E+03 -0.32141478343E+02 -0.22448626288E+03  0.24942440352E+03  0.00000000000E+00 0. -1.
         22    1    1    2    0    0  0.27532712640E+02  0.45656560155E+02  0.11763150517E+03  0.12915007843E+03  0.00000000000E+00 0.  1.
         22    1    1    2    0    0  0.25313744895E+01 -0.29512595051E+02 -0.14416636024E+02  0.32942988901E+02  0.00000000000E+00 0. -1.
</event>
<event>
 6    1  0.1715574E-005  0.6606915E+02  0.7818608E-02  0.1374187E+00
          2   -1    0    0  502    0  0.00000000000E+00  0.00000000000E+00  0.16994145900E+03  0.16994145900E+03  0.00000000000E+00 0. -1.
          1   -1    0    0  501    0 -0.00000000000E+00 -0.00000000000E+00 -0.12249909999E+03  0.12249909999E+03  0.00000000000E+00 0. -1.
          2    1    1    2  501    0  0.74790693332E+01 -0.51478265915E+02  0.10668709559E+03  0.11869323782E+03  0.00000000000E+00 0. -1.
          1    1    1    2  502    0 -0.16448155828E+01  0.26560951853E+02 -0.28489762771E+02  0.38985332683E+02  0.00000000000E+00 0. -1.
         22    1    1    2    0    0 -0.16795921886E+01 -0.11880801566E+02  0.47070176326E+02  0.48575466803E+02  0.00000000000E+00 0. -1.
         22    1    1    2    0    0 -0.41546615619E+01  0.36798115628E+02 -0.77825150132E+02  0.86186521682E+02  0.00000000000E+00 0. -1.
</event>
<event>
 6    1  0.1715574E-005  0.7840710E+02  0.7818608E-02  0.1380918E+00
          2   -1    0    0  502    0  0.00000000000E+00  0.00000000000E+00  0.96163012659E+02  0.96163012659E+02  0.00000000000E+00 0.  1.
          1   -1    0    0  501    0 -0.00000000000E+00 -0.00000000000E+00 -0.32474321150E+03  0.32474321150E+03  0.00000000000E+00 0.  1.
          2    1    1    2  501    0  0.71143128440E+01  0.42925592706E+02  0.36185620104E+02  0.56591687187E+02  0.00000000000E+00 0.  1.
          1    1    1    2  502    0  0.15168422917E+02 -0.45537472606E+02 -0.23001975993E+03  0.23497411011E+03  0.00000000000E+00 0.  1.
         22    1    1    2    0    0 -0.10083961656E+02  0.35730680182E+02  0.35094748343E+02  0.51088248651E+02  0.00000000000E+00 0.  1.
         22    1    1    2    0    0 -0.12198774105E+02 -0.33118800282E+02 -0.69840807357E+02  0.78252178206E+02  0.00000000000E+00 0.  1.
</event>
<event>
 6    1  0.1715574E-005  0.1960566E+03  0.7818608E-02  0.1179084E+00
          2   -1    0    0  502    0  0.00000000000E+00  0.00000000000E+00  0.12256622854E+03  0.12256622854E+03  0.00000000000E+00 0.  1.
          1   -1    0    0  501    0 -0.00000000000E+00 -0.00000000000E+00 -0.26883081221E+03  0.26883081221E+03  0.00000000000E+00 0.  1.
          2    1    1    2  501    0  0.43978979654E+02 -0.66235808510E+02  0.32426606222E+02  0.85865113821E+02  0.00000000000E+00 0.  1.
          1    1    1    2  502    0 -0.93958569937E+02  0.77084952375E+01 -0.11336111107E+03  0.14743939523E+03  0.00000000000E+00 0.  1.
         22    1    1    2    0    0  0.49083091846E+02  0.86758497840E+02 -0.78546090947E+02  0.12690813707E+03  0.00000000000E+00 0.  1.
         22    1    1    2    0    0  0.89649843724E+00 -0.28231184567E+02  0.13216012117E+02  0.31184394620E+02  0.00000000000E+00 0. -1.
</event>
<event>
 6    1  0.1715574E-005  0.1758218E+03  0.7818608E-02  0.1224082E+00
          2   -1    0    0  502    0  0.00000000000E+00  0.00000000000E+00  0.22702740047E+04  0.22702740047E+04  0.00000000000E+00 0.  1.
          1   -1    0    0  501    0 -0.00000000000E+00 -0.00000000000E+00 -0.19548913072E+03  0.19548913072E+03  0.00000000000E+00 0. -1.
          2    1    1    2  501    0  0.10169234716E+03 -0.10714767795E+03  0.18943390376E+04  0.19000900894E+04  0.00000000000E+00 0.  1.
          1    1    1    2  502    0 -0.68787888447E+02  0.13957128245E+03 -0.14566219786E+03  0.21314171897E+03  0.00000000000E+00 0. -1.
         22    1    1    2    0    0 -0.54341239083E+01  0.16796005010E+02 -0.36196225778E+01  0.18020464882E+02  0.00000000000E+00 0.  1.
         22    1    1    2    0    0 -0.27470334809E+02 -0.49219609509E+02  0.32972765681E+03  0.33451086218E+03  0.00000000000E+00 0.  1.
</event>
<event>
 6    1  0.1715574E-005  0.5981987E+02  0.7818608E-02  0.1502155E+00
          2   -1    0    0  502    0  0.00000000000E+00  0.00000000000E+00  0.10921180995E+03  0.10921180995E+03  0.00000000000E+00 0. -1.
          1   -1    0    0  501    0 -0.00000000000E+00 -0.00000000000E+00 -0.29000464670E+03  0.29000464670E+03  0.00000000000E+00 0.  1.
          2    1    1    2  501    0 -0.34168348369E+02 -0.35339699545E+02  0.41692683920E+02  0.64456576752E+02  0.00000000000E+00 0. -1.
          1    1    1    2  502    0  0.62948715182E+02 -0.26956269305E+02 -0.16511753817E+03  0.17875397229E+03  0.00000000000E+00 0.  1.
         22    1    1    2    0    0 -0.15826965432E+02  0.61328140650E+02 -0.96133000530E+02  0.11512248895E+03  0.00000000000E+00 0.  1.
         22    1    1    2    0    0 -0.12953401381E+02  0.96782819916E+00  0.38765018032E+02  0.40883418666E+02  0.00000000000E+00 0. -1.
</event>
<event>
 6    1  0.1715574E-005  0.2828330E+03  0.7818608E-02  0.1199480E+00
          2   -1    0    0  502    0  0.00000000000E+00  0.00000000000E+00  0.26350271353E+03  0.26350271353E+03  0.00000000000E+00 0. -1.
          1   -1    0    0  501    0 -0.00000000000E+00 -0.00000000000E+00 -0.59684793788E+03  0.59684793788E+03  0.00000000000E+00 0. -1.
          2    1    1    2  501    0 -0.94340974607E+02 -0.24280219571E+03 -0.44318744231E+03  0.51407026247E+03  0.00000000000E+00 0. -1.
          1    1    1    2  502    0  0.89836396340E+01  0.12792578368E+03  0.91378563681E+02  0.15746667524E+03  0.00000000000E+00 0. -1.
         22    1    1    2    0    0  0.87307243570E+02  0.13765631567E+03  0.25277236321E+02  0.16495682677E+03  0.00000000000E+00 0. -1.
         22    1    1    2    0    0 -0.19499085965E+01 -0.22779903639E+02 -0.68135820444E+01  0.23856886922E+02  0.00000000000E+00 0. -1.
</event>
<event>
 6    1  0.1715574E-005  0.3062183E+02  0.7818608E-02  0.1600787E+00
          2   -1    0    0  502    0  0.00000000000E+00  0.00000000000E+00  0.15723908435E+03  0.15723908435E+03  0.00000000000E+00 0. -1.
          1   -1    0    0  501    0 -0.00000000000E+00 -0.00000000000E+00 -0.27179781890E+03  0.27179781890E+03  0.00000000000E+00 0. -1.
          2    1    1    2  501    0  0.24321041872E+01 -0.28831062101E+02  0.95559108637E+02  0.99843319837E+02  0.00000000000E+00 0. -1.
          1    1    1    2  502    0 -0.68952806980E+01  0.45731813055E+02 -0.19375624888E+03  0.19919946687E+03  0.00000000000E+00 0. -1.
         22    1    1    2    0    0 -0.18373899265E+02 -0.18496294251E+02 -0.68368947823E+02  0.73171210880E+02  0.00000000000E+00 0.  1.
         22    1    1    2    0    0  0.22837075776E+02  0.15955432971E+01  0.52007353512E+02  0.56822905661E+02  0.00000000000E+00 0. -1.
</event>
<event>
 6    1  0.1715574E-005  0.1359680E+03  0.7818608E-02  0.1291288E+00
          2   -1    0    0  502    0  0.00000000000E+00  0.00000000000E+00  0.45537005981E+03  0.45537005981E+03  0.00000000000E+00 0. -1.
          1   -1    0    0  501    0 -0.00000000000E+00 -0.00000000000E+00 -0.90156550460E+02  0.90156550460E+02  0.00000000000E+00 0. -1.
          2    1    1    2  501    0 -0.84147659025E+02  0.94362664101E+02  0.22213607698E+03  0.25559651326E+03  0.00000000000E+00 0. -1.
          1    1    1    2  502    0  0.32887451791E+02 -0.68946182460E+02 -0.17478552887E+02  0.78362365790E+02  0.00000000000E+00 0. -1.
         22    1    1    2    0    0  0.20722477749E+02  0.24821980552E+02  0.14794682366E+03  0.15143914432E+03  0.00000000000E+00 0. -1.
         22    1    1    2    0    0  0.30537729485E+02 -0.50238462193E+02  0.12609161598E+02  0.60128586893E+02  0.00000000000E+00 0.  1.
</event>
<event>
 6    1  0.1715574E-005  0.8523981E+02  0.7818608E-02  0.1318148E+00
          2   -1    0    0  502    0  0.00000000000E+00  0.00000000000E+00  0.16746948062E+03  0.16746948062E+03  0.00000000000E+00 0. -1.
          1   -1    0    0  501    0 -0.00000000000E+00 -0.00000000000E+00 -0.13603451708E+03  0.13603451708E+03  0.00000000000E+00 0. -1.
          2    1    1    2  501    0  0.21072819967E+02  0.16604948052E+01  0.15145410906E+02  0.26003931547E+02  0.00000000000E+00 0. -1.
          1    1    1    2  502    0 -0.67380714496E+02  0.10183574354E+02 -0.85574356939E+02  0.10939303652E+03  0.00000000000E+00 0. -1.
         22    1    1    2    0    0 -0.10618801211E+02  0.36347233746E+00 -0.25741029774E+02  0.27847650980E+02  0.00000000000E+00 0.  1.
         22    1    1    2    0    0  0.56926695740E+02 -0.12207541497E+02  0.12760493934E+03  0.14025937866E+03  0.00000000000E+00 0. -1.
</event>
<event>
 6    1  0.1715574E-005  0.5909550E+03  0.7818608E-02  0.9929450E-01
          2   -1    0    0  502    0  0.00000000000E+00  0.00000000000E+00  0.46426850212E+03  0.46426850212E+03  0.00000000000E+00 0.  1.
          1   -1    0    0  501    0 -0.00000000000E+00 -0.00000000000E+00 -0.15335432580E+04  0.15335432580E+04  0.00000000000E+00 0. -1.
          2    1    1    2  501    0 -0.27060645716E+03  0.49189335996E+03  0.19019887705E+03  0.59275842049E+03  0.00000000000E+00 0.  1.
          1    1    1    2  502    0  0.25332450319E+03 -0.38202728456E+03 -0.89976376256E+03  0.10097984841E+04  0.00000000000E+00 0. -1.
         22    1    1    2    0    0  0.25942331455E+02 -0.12465936552E+03 -0.35548354855E+03  0.37759967593E+03  0.00000000000E+00 0. -1.
         22    1    1    2    0    0 -0.86603774882E+01  0.14793290119E+02 -0.42263218344E+01  0.17655179609E+02  0.00000000000E+00 0. -1.
</event>
<event>
 6    1  0.1715574E-005  0.1413467E+03  0.7818608E-02  0.1235473E+00
          2   -1    0    0  502    0  0.00000000000E+00  0.00000000000E+00  0.91981548981E+02  0.91981548981E+02  0.00000000000E+00 0.  1.
          1   -1    0    0  501    0 -0.00000000000E+00 -0.00000000000E+00 -0.22628150918E+03  0.22628150918E+03  0.00000000000E+00 0.  1.
          2    1    1    2  501    0  0.18525992517E+01 -0.33015698600E+02 -0.27489752820E+02  0.43001802150E+02  0.00000000000E+00 0.  1.
          1    1    1    2  502    0  0.68344937775E+02  0.49283512189E+01 -0.11392607583E+03  0.13294536442E+03  0.00000000000E+00 0.  1.
         22    1    1    2    0    0  0.15213294117E+02  0.64694717048E+01 -0.39370126301E+02  0.42700178302E+02  0.00000000000E+00 0. -1.
         22    1    1    2    0    0 -0.85410831144E+02  0.21617875676E+02  0.46485994758E+02  0.99615713289E+02  0.00000000000E+00 0.  1.
</event>
<event>
 6    1  0.1715574E-005  0.8914428E+02  0.7818608E-02  0.1329134E+00
          2   -1    0    0  502    0  0.00000000000E+00  0.00000000000E+00  0.54365434344E+03  0.54365434344E+03  0.00000000000E+00 0. -1.
          1   -1    0    0  501    0 -0.00000000000E+00 -0.00000000000E+00 -0.46636265663E+02  0.46636265663E+02  0.00000000000E+00 0. -1.
          2    1    1    2  501    0  0.71626435066E+02 -0.33409928333E+01  0.21690907847E+03  0.22845362058E+03  0.00000000000E+00 0. -1.
          1    1    1    2  502    0 -0.53284731229E+02  0.46306895603E+02  0.30886587769E+02  0.77055645261E+02  0.00000000000E+00 0. -1.
         22    1    1    2    0    0 -0.13671104364E+02  0.14581285369E+02 -0.77238010021E+01  0.21428254233E+02  0.00000000000E+00 0. -1.
         22    1    1    2    0    0 -0.46705994728E+01 -0.57547188139E+02  0.25694621254E+03  0.26335308903E+03  0.00000000000E+00 0. -1.
</event>
<event>
 6    1  0.1715574E-005  0.1298968E+03  0.7818608E-02  0.1230917E+00
          2   -1    0    0  502    0  0.00000000000E+00  0.00000000000E+00  0.75816291086E+03  0.75816291086E+03  0.00000000000E+00 0. -1.
          1   -1    0    0  501    0 -0.00000000000E+00 -0.00000000000E+00 -0.41493725362E+02  0.41493725362E+02  0.00000000000E+00 0. -1.
          2    1    1    2  501    0 -0.41056957908E+01  0.20270191415E+02  0.25605635211E+03  0.25689023503E+03  0.00000000000E+00 0. -1.
          1    1    1    2  502    0 -0.80468118609E+02 -0.58587160748E+02  0.71438842222E+02  0.12251971962E+03  0.00000000000E+00 0. -1.
         22    1    1    2    0    0  0.38165905630E+01 -0.17039273832E+02 -0.14669316677E+01  0.17522987895E+02  0.00000000000E+00 0.  1.
         22    1    1    2    0    0  0.80757223837E+02  0.55356243164E+02  0.39064092283E+03  0.40272369368E+03  0.00000000000E+00 0. -1.
</event>
<event>
 6    1  0.1715574E-005  0.1342743E+03  0.7818608E-02  0.1251717E+00
          2   -1    0    0  502    0  0.00000000000E+00  0.00000000000E+00  0.24470199696E+02  0.24470199696E+02  0.00000000000E+00 0.  1.
          1   -1    0    0  501    0 -0.00000000000E+00 -0.00000000000E+00 -0.45404714602E+03  0.45404714602E+03  0.00000000000E+00 0.  1.
          2    1    1    2  501    0 -0.28755952651E+01  0.36638941408E+02 -0.66081904955E+02  0.75614147077E+02  0.00000000000E+00 0.  1.
          1    1    1    2  502    0 -0.23672438180E+02  0.18679899912E+02 -0.34225254608E+02  0.45614592436E+02  0.00000000000E+00 0.  1.
         22    1    1    2    0    0 -0.15184333125E+02  0.30606056105E+02 -0.39738123971E+02  0.52406231877E+02  0.00000000000E+00 0.  1.
         22    1    1    2    0    0  0.41732366571E+02 -0.85924897425E+02 -0.28953166279E+03  0.30488237433E+03  0.00000000000E+00 0.  1.
</event>
<event>
 6    1  0.1715574E-005  0.7808546E+02  0.7818608E-02  0.1461511E+00
          2   -1    0    0  502    0  0.00000000000E+00  0.00000000000E+00  0.69980880289E+03  0.69980880289E+03  0.00000000000E+00 0. -1.
          1   -1    0    0  501    0 -0.00000000000E+00 -0.00000000000E+00 -0.31504505099E+03  0.31504505099E+03  0.00000000000E+00 0. -1.
          2    1    1    2  501    0 -0.43339286410E+02 -0.49372141800E+02  0.65244834183E+03  0.65574746732E+03  0.00000000000E+00 0. -1.
          1    1    1    2  502    0  0.40466556865E+02  0.36022247793E+02 -0.21205633654E+03  0.21886761850E+03  0.00000000000E+00 0. -1.
         22    1    1    2    0    0  0.37944608431E+01  0.23664993497E+02 -0.95800526224E+02  0.98753079320E+02  0.00000000000E+00 0. -1.
         22    1    1    2    0    0 -0.92173129844E+00 -0.10315099491E+02  0.40172272831E+02  0.41485688744E+02  0.00000000000E+00 0.  1.
</event>
<event>
 6    1  0.1715574E-005  0.1959561E+03  0.7818608E-02  0.1231507E+00
          2   -1    0    0  502    0  0.00000000000E+00  0.00000000000E+00  0.17751758801E+04  0.17751758801E+04  0.00000000000E+00 0.  1.
          1   -1    0    0  501    0 -0.00000000000E+00 -0.00000000000E+00 -0.14615961657E+03  0.14615961657E+03  0.00000000000E+00 0. -1.
          2    1    1    2  501    0  0.92927145716E+02 -0.16299590202E+03  0.16351345491E+04  0.16458639409E+04  0.00000000000E+00 0.  1.
          1    1    1    2  502    0 -0.84601498508E+02  0.11276492417E+03 -0.20166724353E+02  0.14240799993E+03  0.00000000000E+00 0. -1.
         22    1    1    2    0    0 -0.35584089332E+02  0.28423048420E+02 -0.45283633834E+02  0.64223863075E+02  0.00000000000E+00 0. -1.
         22    1    1    2    0    0  0.27258442124E+02  0.21807929425E+02  0.59332072655E+02  0.68839692753E+02  0.00000000000E+00 0.  1.
</event>
<event>
 6    1  0.1715574E-005  0.9585390E+02  0.7818608E-02  0.1331450E+00
          2   -1    0    0  502    0  0.00000000000E+00  0.00000000000E+00  0.41151910813E+03  0.41151910813E+03  0.00000000000E+00 0. -1.
          1   -1    0    0  501    0 -0.00000000000E+00 -0.00000000000E+00 -0.70918065637E+02  0.70918065637E+02  0.00000000000E+00 0. -1.
          2    1    1    2  501    0  0.22373280998E+02 -0.57792289643E+02  0.13243170171E+03  0.14621445914E+03  0.00000000000E+00 0. -1.
          1    1    1    2  502    0 -0.34928210799E+02  0.52968553434E+02 -0.27910243465E+02  0.69315433006E+02  0.00000000000E+00 0. -1.
         22    1    1    2    0    0 -0.30074133390E+02  0.17892403471E+02  0.98898505207E+01  0.36364828399E+02  0.00000000000E+00 0.  1.
         22    1    1    2    0    0  0.42629063191E+02 -0.13068667262E+02  0.22618973373E+03  0.23054245322E+03  0.00000000000E+00 0. -1.
</event>
<event>
 6    1  0.1715574E-005  0.6783752E+02  0.7818608E-02  0.1454989E+00
          2   -1    0    0  502    0  0.00000000000E+00  0.00000000000E+00  0.21109627828E+03  0.21109627828E+03  0.00000000000E+00 0.  1.
          1   -1    0    0  501    0 -0.00000000000E+00 -0.00000000000E+00 -0.46697141930E+03  0.46697141930E+03  0.00000000000E+00 0. -1.
          2    1    1    2  501    0  0.56552474917E+02 -0.17953295225E+01  0.15721793549E+03  0.16708945170E+03  0.00000000000E+00 0.  1.
          1    1    1    2  502    0 -0.81616768953E+02 -0.41511548099E+01 -0.36283618401E+03  0.37192556445E+03  0.00000000000E+00 0. -1.
         22    1    1    2    0    0  0.17341456342E+02 -0.96163672694E+00 -0.93237179404E+02  0.94841037935E+02  0.00000000000E+00 0. -1.
         22    1    1    2    0    0  0.77228376947E+01  0.69081210594E+01  0.42980286903E+02  0.44211643499E+02  0.00000000000E+00 0. -1.
</event>
<event>
 6    1  0.1715574E-005  0.5771329E+02  0.7818608E-02  0.1463658E+00
          2   -1    0    0  502    0  0.00000000000E+00  0.00000000000E+00  0.17077352994E+03  0.17077352994E+03  0.00000000000E+00 0.  1.
          1   -1    0    0  501    0 -0.00000000000E+00 -0.00000000000E+00 -0.28366243761E+03  0.28366243761E+03  0.00000000000E+00 0.  1.
          2    1    1    2  501    0  0.29016582510E+02  0.15378476189E+02  0.48726199365E+02  0.58759697880E+02  0.00000000000E+00 0.  1.
          1    1    1    2  502    0 -0.39254425755E+02 -0.23869033631E+02 -0.24003540412E+03  0.24439238110E+03  0.00000000000E+00 0.  1.
         22    1    1    2    0    0 -0.78494043112E+01 -0.85711887822E+01 -0.34111870706E+02  0.36037454797E+02  0.00000000000E+00 0.  1.
         22    1    1    2    0    0  0.18087247556E+02  0.17061746225E+02  0.11253216779E+03  0.11524643377E+03  0.00000000000E+00 0.  1.
</event>
<event>
 6    1  0.1715574E-005  0.7338163E+02  0.7818608E-02  0.1358438E+00
          2   -1    0    0  502    0  0.00000000000E+00  0.00000000000E+00  0.43460266236E+02  0.43460266236E+02  0.00000000000E+00 0.  1.
          1   -1    0    0  501    0 -0.00000000000E+00 -0.00000000000E+00 -0.32086434412E+03  0.32086434412E+03  0.00000000000E+00 0.  1.
          2    1    1    2  501    0 -0.72680376459E+01 -0.23961752432E+02 -0.18383931244E+02  0.31063787259E+02  0.00000000000E+00 0.  1.
          1    1    1    2  502    0  0.36889859100E+02  0.13507103044E+02 -0.18429714420E+03  0.18843763132E+03  0.00000000000E+00 0.  1.
         22    1    1    2    0    0  0.26349735927E+01  0.22990375847E+02 -0.99567723329E+02  0.10222148500E+03  0.00000000000E+00 0.  1.
         22    1    1    2    0    0 -0.32256795047E+02 -0.12535726458E+02  0.24844720885E+02  0.42601706778E+02  0.00000000000E+00 0.  1.
</event>
<event>
 6    1  0.1715574E-005  0.1026529E+03  0.7818608E-02  0.1281691E+00
          2   -1    0    0  502    0  0.00000000000E+00  0.00000000000E+00  0.96273213008E+02  0.96273213008E+02  0.00000000000E+00 0. -1.
          1   -1    0    0  501    0 -0.00000000000E+00 -0.00000000000E+00 -0.11596430924E+03  0.11596430924E+03  0.00000000000E+00 0. -1.
          2    1    1    2  501    0  0.45769233122E+02 -0.21848878459E+02  0.11865599031E+02  0.52086357435E+02  0.00000000000E+00 0. -1.
          1    1    1    2  502    0 -0.24187992046E+02 -0.71262391573E+01 -0.24474824540E+01  0.25334411659E+02  0.00000000000E+00 0. -1.
         22    1    1    2    0    0  0.39162399958E+02  0.33550815641E+02  0.21254551984E+02  0.55777296283E+02  0.00000000000E+00 0. -1.
         22    1    1    2    0    0 -0.60743641033E+02 -0.45756980246E+01 -0.50363764794E+02  0.79039456872E+02  0.00000000000E+00 0. -1.
</event>
<event>
 6    1  0.1715574E-005  0.4953205E+02  0.7818608E-02  0.1504126E+00
          2   -1    0    0  502    0  0.00000000000E+00  0.00000000000E+00  0.10481603624E+03  0.10481603624E+03  0.00000000000E+00 0. -1.
          1   -1    0    0  501    0 -0.00000000000E+00 -0.00000000000E+00 -0.44852503940E+03  0.44852503940E+03  0.00000000000E+00 0. -1.
          2    1    1    2  501    0 -0.10526249026E+02  0.20972113855E+02  0.52807336116E+02  0.57786211381E+02  0.00000000000E+00 0. -1.
          1    1    1    2  502    0  0.18972001017E+02 -0.19242738952E+02 -0.36252118157E+03  0.36352692735E+03  0.00000000000E+00 0. -1.
         22    1    1    2    0    0  0.10336588444E+02 -0.19728005877E+02 -0.77885561026E+02  0.81007406408E+02  0.00000000000E+00 0. -1.
         22    1    1    2    0    0 -0.18782340435E+02  0.17998630973E+02  0.43890403320E+02  0.51020530502E+02  0.00000000000E+00 0.  1.
</event>
<event>
 6    1  0.1715574E-005  0.1140112E+03  0.7818608E-02  0.1256798E+00
          2   -1    0    0  502    0  0.00000000000E+00  0.00000000000E+00  0.29504045383E+03  0.29504045383E+03  0.00000000000E+00 0. -1.
          1   -1    0    0  501    0 -0.00000000000E+00 -0.00000000000E+00 -0.17182750987E+03  0.17182750987E+03  0.00000000000E+00 0.  1.
          2    1    1    2  501    0  0.68663862018E+02  0.65033011586E+02  0.22816396009E+03  0.24698747180E+03  0.00000000000E+00 0. -1.
          1    1    1    2  502    0 -0.49965814677E+02 -0.26671734903E+02 -0.50828599680E+02  0.76101975168E+02  0.00000000000E+00 0.  1.
         22    1    1    2    0    0  0.53928590458E+01  0.10158626552E+02  0.36461420824E+02  0.38232392426E+02  0.00000000000E+00 0. -1.
         22    1    1    2    0    0 -0.24090906387E+02 -0.48519903235E+02 -0.90583837275E+02  0.10554612431E+03  0.00000000000E+00 0.  1.
</event>
<event>
 6    1  0.1715574E-005  0.7129354E+02  0.7818608E-02  0.1399501E+00
          2   -1    0    0  502    0  0.00000000000E+00  0.00000000000E+00  0.82522891116E+02  0.82522891116E+02  0.00000000000E+00 0.  1.
          1   -1    0    0  501    0 -0.00000000000E+00 -0.00000000000E+00 -0.20772594780E+03  0.20772594780E+03  0.00000000000E+00 0.  1.
          2    1    1    2  501    0 -0.21062095363E+02  0.33187089385E+02 -0.63319059075E-01  0.39306472397E+02  0.00000000000E+00 0.  1.
          1    1    1    2  502    0 -0.56462920108E+02 -0.16633461426E+02 -0.65595392907E+02  0.88133358932E+02  0.00000000000E+00 0.  1.
         22    1    1    2    0    0 -0.33605761171E+02 -0.91533941612E+01  0.31961360824E+01  0.34976379092E+02  0.00000000000E+00 0.  1.
         22    1    1    2    0    0  0.11113077664E+03 -0.74002337983E+01 -0.62740480803E+02  0.12783262850E+03  0.00000000000E+00 0.  1.
</event>
<event>
 6    1  0.1715574E-005  0.1467535E+03  0.7818608E-02  0.1236988E+00
          2   -1    0    0  502    0  0.00000000000E+00  0.00000000000E+00  0.41013510528E+02  0.41013510528E+02  0.00000000000E+00 0. -1.
          1   -1    0    0  501    0 -0.00000000000E+00 -0.00000000000E+00 -0.30510106149E+03  0.30510106149E+03  0.00000000000E+00 0. -1.
          2    1    1    2  501    0  0.32425799620E+01  0.32762234832E+02 -0.57099491211E+02  0.65910774935E+02  0.00000000000E+00 0. -1.
          1    1    1    2  502    0  0.29054029691E+02  0.60221180902E+01  0.25177494277E+01  0.29778206960E+02  0.00000000000E+00 0. -1.
         22    1    1    2    0    0  0.14394530582E+02  0.28107107974E+02 -0.73377659338E+01  0.32419975913E+02  0.00000000000E+00 0. -1.
         22    1    1    2    0    0 -0.46691140234E+02 -0.66891460896E+02 -0.20216804324E+03  0.21800561421E+03  0.00000000000E+00 0. -1.
</event>
<event>
 6    1  0.1715574E-005  0.9903281E+02  0.7818608E-02  0.1284577E+00
          2   -1    0    0  502    0  0.00000000000E+00  0.00000000000E+00  0.77957850278E+03  0.77957850278E+03  0.00000000000E+00 0. -1.
          1   -1    0    0  501    0 -0.00000000000E+00 -0.00000000000E+00 -0.87259740416E+02  0.87259740416E+02  0.00000000000E+00 0. -1.
          2    1    1    2  501    0  0.12920003404E+02  0.81072600591E+02  0.67945036062E+03  0.68439205547E+03  0.00000000000E+00 0. -1.
          1    1    1    2  502    0 -0.12019242296E+01 -0.37524317361E+02 -0.21303151991E+02  0.43166460360E+02  0.00000000000E+00 0. -1.
         22    1    1    2    0    0  0.12212343865E+02  0.85827892932E+01  0.70049507345E+02  0.71622196937E+02  0.00000000000E+00 0.  1.
         22    1    1    2    0    0 -0.23930423039E+02 -0.52131072523E+02 -0.35877953601E+02  0.67657530430E+02  0.00000000000E+00 0. -1.
</event>
<event>
 6    1  0.1715574E-005  0.1446676E+03  0.7818608E-02  0.1209376E+00
          2   -1    0    0  502    0  0.00000000000E+00  0.00000000000E+00  0.25517096638E+02  0.25517096638E+02  0.00000000000E+00 0. -1.
          1   -1    0    0  501    0 -0.00000000000E+00 -0.00000000000E+00 -0.79082487218E+03  0.79082487218E+03  0.00000000000E+00 0. -1.
          2    1    1    2  501    0 -0.53695051684E+02  0.42005340227E+02 -0.20224090670E+03  0.21342209709E+03  0.00000000000E+00 0. -1.
          1    1    1    2  502    0  0.59367173853E+02 -0.64401409801E+02 -0.21648316064E+03  0.23353150057E+03  0.00000000000E+00 0. -1.
         22    1    1    2    0    0  0.52025650811E+02 -0.12225685270E+02 -0.21568709440E+03  0.22220949218E+03  0.00000000000E+00 0. -1.
         22    1    1    2    0    0 -0.57697772980E+02  0.34621754844E+02 -0.13089661380E+03  0.14717887898E+03  0.00000000000E+00 0. -1.
</event>
<event>
 6    1  0.1715574E-005  0.6488184E+02  0.7818608E-02  0.1397719E+00
          2   -1    0    0  502    0  0.00000000000E+00  0.00000000000E+00  0.42997581845E+02  0.42997581845E+02  0.00000000000E+00 0. -1.
          1   -1    0    0  501    0 -0.00000000000E+00 -0.00000000000E+00 -0.22599098430E+03  0.22599098430E+03  0.00000000000E+00 0.  1.
          2    1    1    2  501    0  0.21453748855E+02 -0.14069666483E+02  0.24836026060E+01  0.25775708270E+02  0.00000000000E+00 0. -1.
          1    1    1    2  502    0 -0.24959798470E+02 -0.84542641960E+01 -0.58845877519E+02  0.64477154277E+02  0.00000000000E+00 0.  1.
         22    1    1    2    0    0 -0.89087538589E+01  0.34891814118E+02 -0.14729988618E+03  0.15163792750E+03  0.00000000000E+00 0.  1.
         22    1    1    2    0    0  0.12414803473E+02 -0.12367883439E+02  0.20668758636E+02  0.27097776100E+02  0.00000000000E+00 0. -1.
</event>
<event>
 6    1  0.1715574E-005  0.8349376E+02  0.7818608E-02  0.1371595E+00
          2   -1    0    0  502    0  0.00000000000E+00  0.00000000000E+00  0.41263930517E+03  0.41263930517E+03  0.00000000000E+00 0. -1.
          1   -1    0    0  501    0 -0.00000000000E+00 -0.00000000000E+00 -0.30026643735E+03  0.30026643735E+03  0.00000000000E+00 0. -1.
          2    1    1    2  501    0  0.32292322299E+02  0.33071057758E+02  0.33215057495E+03  0.33535129846E+03  0.00000000000E+00 0. -1.
          1    1    1    2  502    0 -0.51654834859E+02 -0.49618379005E+02 -0.24005821657E+03  0.25051577364E+03  0.00000000000E+00 0. -1.
         22    1    1    2    0    0  0.31262365443E+02  0.13511300325E+02  0.68918451877E+02  0.76874207239E+02  0.00000000000E+00 0.  1.
         22    1    1    2    0    0 -0.11899852884E+02  0.30360209227E+01 -0.48637942437E+02  0.50164463181E+02  0.00000000000E+00 0.  1.
</event>
<event>
 6    1  0.1715574E-005  0.1771345E+03  0.7818608E-02  0.1176589E+00
          2   -1    0    0  502    0  0.00000000000E+00  0.00000000000E+00  0.34003773930E+03  0.34003773930E+03  0.00000000000E+00 0.  1.
          1   -1    0    0  501    0 -0.00000000000E+00 -0.00000000000E+00 -0.84253081894E+02  0.84253081894E+02  0.00000000000E+00 0.  1.
          2    1    1    2  501    0 -0.92587200665E+02 -0.57730291447E+02  0.14034916211E+03  0.17777250513E+03  0.00000000000E+00 0.  1.
          1    1    1    2  502    0  0.81412315788E+02  0.85151340563E+01  0.66263453058E+02  0.10531532596E+03  0.00000000000E+00 0.  1.
         22    1    1    2    0    0 -0.11681552500E+02 -0.38972828879E+02  0.21350786124E+02  0.45947754327E+02  0.00000000000E+00 0.  1.
         22    1    1    2    0    0  0.22856437377E+02  0.88187986269E+02  0.27821256121E+02  0.95255235782E+02  0.00000000000E+00 0.  1.
</event>
<event>
 6    1  0.1715574E-005  0.7991298E+02  0.7818608E-02  0.1331940E+00
          2   -1    0    0  502    0  0.00000000000E+00  0.00000000000E+00  0.22886127990E+03  0.22886127990E+03  0.00000000000E+00 0.  1.
          1   -1    0    0  501    0 -0.00000000000E+00 -0.00000000000E+00 -0.22192205893E+03  0.22192205893E+03  0.00000000000E+00 0. -1.
          2    1    1    2  501    0 -0.50505811263E+02 -0.47503254288E+01  0.17015050487E+03  0.17755167381E+03  0.00000000000E+00 0.  1.
          1    1    1    2  502    0  0.38317421070E+02  0.29845402178E+02 -0.12772942781E+03  0.13665203810E+03  0.00000000000E+00 0. -1.
         22    1    1    2    0    0 -0.17604017272E+02 -0.15376046656E+02  0.44727093431E+02  0.50466197813E+02  0.00000000000E+00 0.  1.
         22    1    1    2    0    0  0.29792407465E+02 -0.97190300924E+01 -0.80208949520E+02  0.86113429102E+02  0.00000000000E+00 0. -1.
</event>
<event>
 6    1  0.1715574E-005  0.2338519E+03  0.7818608E-02  0.1183727E+00
          2   -1    0    0  502    0  0.00000000000E+00  0.00000000000E+00  0.77551301592E+03  0.77551301592E+03  0.00000000000E+00 0. -1.
          1   -1    0    0  501    0 -0.00000000000E+00 -0.00000000000E+00 -0.20424482025E+03  0.20424482025E+03  0.00000000000E+00 0. -1.
          2    1    1    2  501    0  0.21495427973E+03 -0.66867525450E+02 -0.10192965425E+03  0.24711588931E+03  0.00000000000E+00 0. -1.
          1    1    1    2  502    0 -0.59617016852E+02  0.24327603454E+02  0.29881982723E+03  0.30567844237E+03  0.00000000000E+00 0. -1.
         22    1    1    2    0    0 -0.11441144027E+03  0.82550360567E+02  0.31136777666E+03  0.34183977539E+03  0.00000000000E+00 0. -1.
         22    1    1    2    0    0 -0.40925822605E+02 -0.40010438571E+02  0.63010246026E+02  0.85123729094E+02  0.00000000000E+00 0. -1.
</event>
<event>
 6    1  0.1715574E-005  0.2237466E+03  0.7818608E-02  0.1131145E+00
          2   -1    0    0  502    0  0.00000000000E+00  0.00000000000E+00  0.13439369539E+04  0.13439369539E+04  0.00000000000E+00 0. -1.
          1   -1    0    0  501    0 -0.00000000000E+00 -0.00000000000E+00 -0.37624466030E+02  0.37624466030E+02  0.00000000000E+00 0. -1.
          2    1    1    2  501    0 -0.42525324683E+02 -0.94390554834E+02  0.37384828361E+03  0.38791818627E+03  0.00000000000E+00 0. -1.
          1    1    1    2  502    0 -0.58744471969E+02  0.14184421010E+03  0.60429224195E+03  0.62349002126E+03  0.00000000000E+00 0. -1.
         22    1    1    2    0    0  0.60178771012E+02 -0.92415939670E+02  0.20818446141E+03  0.23559066271E+03  0.00000000000E+00 0. -1.
         22    1    1    2    0    0  0.41091025640E+02  0.44962284405E+02  0.11998750093E+03  0.13456254971E+03  0.00000000000E+00 0.  1.
</event>
<event>
 6    1  0.1715574E-005  0.2739628E+03  0.7818608E-02  0.1147091E+00
          2   -1    0    0  502    0  0.00000000000E+00  0.00000000000E+00  0.57720079878E+03  0.57720079878E+03  0.00000000000E+00 0. -1.
          1   -1    0    0  501    0 -0.00000000000E+00 -0.00000000000E+00 -0.82338651805E+02  0.82338651805E+02  0.00000000000E+00 0. -1.
          2    1    1    2  501    0 -0.28943654127E+02  0.30324725115E+02 -0.18292462966E+02  0.45737711671E+02  0.00000000000E+00 0. -1.
          1    1    1    2  502    0  0.15064419679E+03 -0.13150351058E+02  0.17300924337E+03  0.22977990350E+03  0.00000000000E+00 0. -1.
         22    1    1    2    0    0 -0.29447829699E+02 -0.22987781622E+02  0.66398385914E+01  0.37943381958E+02  0.00000000000E+00 0. -1.
         22    1    1    2    0    0 -0.92252712963E+02  0.58134075655E+01  0.33350552797E+03  0.34607845345E+03  0.00000000000E+00 0. -1.
</event>
<event>
 6    1  0.1715574E-005  0.1779026E+03  0.7818608E-02  0.1186376E+00
          2   -1    0    0  502    0  0.00000000000E+00  0.00000000000E+00  0.70375746199E+03  0.70375746199E+03  0.00000000000E+00 0. -1.
          1   -1    0    0  501    0 -0.00000000000E+00 -0.00000000000E+00 -0.49504588812E+02  0.49504588812E+02  0.00000000000E+00 0. -1.
          2    1    1    2  501    0  0.43602442445E+02 -0.66032674156E+02  0.31022501959E+03  0.32015785141E+03  0.00000000000E+00 0. -1.
          1    1    1    2  502    0 -0.85672502161E+02 -0.37305903553E+02  0.89217147852E+02  0.12919445629E+03  0.00000000000E+00 0. -1.
         22    1    1    2    0    0  0.39608210537E+01  0.83289949693E+02  0.55891564791E+02  0.10038312028E+03  0.00000000000E+00 0. -1.
         22    1    1    2    0    0  0.38109238662E+02  0.20048628017E+02  0.19891914094E+03  0.20352662281E+03  0.00000000000E+00 0. -1.
</event>
<event>
 6    1  0.1715574E-005  0.5002396E+02  0.7818608E-02  0.1499206E+00
          2   -1    0    0  502    0  0.00000000000E+00  0.00000000000E+00  0.21625035228E+03  0.21625035228E+03  0.00000000000E+00 0. -1.
          1   -1    0    0  501    0 -0.00000000000E+00 -0.00000000000E+00 -0.58364498020E+02  0.58364498020E+02  0.00000000000E+00 0. -1.
          2    1    1    2  501    0 -0.15462870307E+02  0.31555404752E+02  0.72360030624E+02  0.80441394562E+02  0.00000000000E+00 0. -1.
          1    1    1    2  502    0 -0.20965957424E+01 -0.31413365782E+02 -0.14637130949E+02  0.34719459470E+02  0.00000000000E+00 0. -1.
         22    1    1    2    0    0  0.25568183496E+01 -0.17746780315E+02 -0.25781397032E+02  0.31403279519E+02  0.00000000000E+00 0. -1.
         22    1    1    2    0    0  0.15002647699E+02  0.17604741345E+02  0.12594435162E+03  0.12805071675E+03  0.00000000000E+00 0. -1.
</event>
<event>
 6    1  0.1715574E-005  0.1093245E+03  0.7818608E-02  0.1325071E+00
          2   -1    0    0  502    0  0.00000000000E+00  0.00000000000E+00  0.31791196671E+03  0.31791196671E+03  0.00000000000E+00 0.  1.
          1   -1    0    0  501    0 -0.00000000000E+00 -0.00000000000E+00 -0.14252168187E+03  0.14252168187E+03  0.00000000000E+00 0. -1.
          2    1    1    2  501    0  0.36988893770E+02 -0.11125401355E+03  0.16041489934E+03  0.19869215818E+03  0.00000000000E+00 0.  1.
          1    1    1    2  502    0 -0.48574939602E+02  0.71480959376E+02 -0.61103422807E+02  0.10584271628E+03  0.00000000000E+00 0. -1.
         22    1    1    2    0    0  0.21013600461E+02  0.26259862928E+02  0.11169888113E+03  0.11665244039E+03  0.00000000000E+00 0.  1.
         22    1    1    2    0    0 -0.94275546297E+01  0.13513191243E+02 -0.35620072808E+02  0.39246333724E+02  0.00000000000E+00 0. -1.
</event>
<event>
 6    1  0.1715574E-005  0.1215040E+03  0.7818608E-02  0.1244906E+00
          2   -1    0    0  502    0  0.00000000000E+00  0.00000000000E+00  0.28474736053E+03  0.28474736053E+03  0.00000000000E+00 0. -1.
          1   -1    0    0  501    0 -0.00000000000E+00 -0.00000000000E+00 -0.12588292288E+03  0.12588292288E+03  0.00000000000E+00 0. -1.
          2    1    1    2  501    0 -0.44362079871E+02  0.47734605653E+02  0.84592101420E+02  0.10678206933E+03  0.00000000000E+00 0. -1.
          1    1    1    2  502    0  0.73843512352E+02 -0.62722587727E+02 -0.64965059262E+02  0.11665095907E+03  0.00000000000E+00 0. -1.
         22    1    1    2    0    0 -0.41404563846E+02  0.19886593653E+02  0.15793956527E+03  0.16448319303E+03  0.00000000000E+00 0. -1.
         22    1    1    2    0    0  0.11923131365E+02 -0.48986115793E+01 -0.18702169776E+02  0.22714061972E+02  0.00000000000E+00 0. -1.
</event>
<event>
 6    1  0.1715574E-005  0.4728748E+02  0.7818608E-02  0.1515150E+00
          2   -1    0    0  502    0  0.00000000000E+00  0.00000000000E+00  0.51289474522E+03  0.51289474522E+03  0.00000000000E+00 0. -1.
          1   -1    0    0  501    0 -0.00000000000E+00 -0.00000000000E+00 -0.11585305004E+03  0.11585305004E+03  0.00000000000E+00 0. -1.
          2    1    1    2  501    0  0.10065162945E+02 -0.29454789504E+02  0.41112421224E+03  0.41230087317E+03  0.00000000000E+00 0. -1.
          1    1    1    2  502    0 -0.13696153893E+02  0.25276652420E+02 -0.69560931291E+02  0.75267635483E+02  0.00000000000E+00 0. -1.
         22    1    1    2    0    0  0.22010688000E+02  0.11695552973E+01  0.94981747111E+02  0.97505746139E+02  0.00000000000E+00 0.  1.
         22    1    1    2    0    0 -0.18379697052E+02  0.30085817869E+01 -0.39503332884E+02  0.43673540468E+02  0.00000000000E+00 0. -1.
</event>
<event>
 6    1  0.1715574E-005  0.9814128E+02  0.7818608E-02  0.1359747E+00
          2   -1    0    0  502    0  0.00000000000E+00  0.00000000000E+00  0.50257161271E+02  0.50257161271E+02  0.00000000000E+00 0. -1.
          1   -1    0    0  501    0 -0.00000000000E+00 -0.00000000000E+00 -0.52309539611E+03  0.52309539611E+03  0.00000000000E+00 0.  1.
          2    1    1    2  501    0  0.38932487002E+02  0.94317416402E+02 -0.45812677577E+02  0.11184951948E+03  0.00000000000E+00 0. -1.
          1    1    1    2  502    0 -0.20955304916E+02 -0.11016544973E+02 -0.72422029457E+02  0.76193434218E+02  0.00000000000E+00 0.  1.
         22    1    1    2    0    0 -0.33679708559E+02 -0.63147833326E+02 -0.35248110073E+03  0.35967332121E+03  0.00000000000E+00 0.  1.
         22    1    1    2    0    0  0.15702526474E+02 -0.20153038103E+02 -0.21224270818E+01  0.25636282475E+02  0.00000000000E+00 0. -1.
</event>
<event>
 6    1  0.1715574E-005  0.1551452E+03  0.7818608E-02  0.1212374E+00
          2   -1    0    0  502    0  0.00000000000E+00  0.00000000000E+00  0.61738141578E+03  0.61738141578E+03  0.00000000000E+00 0.  1.
          1   -1    0    0  501    0 -0.00000000000E+00 -0.00000000000E+00 -0.27691709436E+02  0.27691709436E+02  0.00000000000E+00 0.  1.
          2    1    1    2  501    0 -0.50238421466E+02 -0.45202608295E+02  0.10354742779E+03  0.12364968496E+03  0.00000000000E+00 0.  1.
          1    1    1    2  502    0 -0.30444499607E+02  0.92461355771E+01  0.45412080665E+02  0.55449216855E+02  0.00000000000E+00 0.  1.
         22    1    1    2    0    0 -0.20687506209E+02 -0.25351883599E+02  0.10257328066E+03  0.10766600587E+03  0.00000000000E+00 0.  1.
         22    1    1    2    0    0  0.10137042728E+03  0.61308356317E+02  0.33815691723E+03  0.35830821753E+03  0.00000000000E+00 0.  1.
</event>
<event>
 6    1  0.1715574E-005  0.1062999E+03  0.7818608E-02  0.1290106E+00
          2   -1    0    0  502    0  0.00000000000E+00  0.00000000000E+00  0.11931149741E+03  0.11931149741E+03  0.00000000000E+00 0. -1.
          1   -1    0    0  501    0 -0.00000000000E+00 -0.00000000000E+00 -0.16216750897E+03  0.16216750897E+03  0.00000000000E+00 0.  1.
          2    1    1    2  501    0  0.63757074314E+01  0.22448382713E+02 -0.10772320317E+01  0.23361077897E+02  0.00000000000E+00 0. -1.
          1    1    1    2  502    0  0.55549235923E+02 -0.14616574020E+02 -0.96114105300E+02  0.11197000976E+03  0.00000000000E+00 0.  1.
         22    1    1    2    0    0  0.10270001579E+02  0.16467837286E+01 -0.31742589579E+02  0.33403245685E+02  0.00000000000E+00 0.  1.
         22    1    1    2    0    0 -0.72194944933E+02 -0.94785924211E+01  0.86077915354E+02  0.11274467304E+03  0.00000000000E+00 0. -1.
</event>
<event>
 6    1  0.1715574E-005  0.1418075E+03  0.7818608E-02  0.1212608E+00
          2   -1    0    0  502    0  0.00000000000E+00  0.00000000000E+00  0.19206363974E+02  0.19206363974E+02  0.00000000000E+00 0.  1.
          1   -1    0    0  501    0 -0.00000000000E+00 -0.00000000000E+00 -0.14126994606E+04  0.14126994606E+04  0.00000000000E+00 0.  1.
          2    1    1    2  501    0  0.36125996490E+02 -0.22635839486E+02 -0.58291770802E+03  0.58447457017E+03  0.00000000000E+00 0.  1.
          1    1    1    2  502    0 -0.10218334553E+03  0.72963000219E+01 -0.25600299011E+03  0.27573937521E+03  0.00000000000E+00 0.  1.
         22    1    1    2    0    0 -0.21758271277E+02  0.23626955445E+02 -0.49722937666E+02  0.59194813309E+02  0.00000000000E+00 0.  1.
         22    1    1    2    0    0  0.87815620322E+02 -0.82874159809E+01 -0.50484946081E+03  0.51249706586E+03  0.00000000000E+00 0.  1.
</event>
<event>
 6    1  0.1715574E-005  0.1020930E+03  0.7818608E-02  0.1341954E+00
          2   -1    0    0  502    0  0.00000000000E+00  0.00000000000E+00  0.79934540081E+03  0.79934540081E+03  0.00000000000E+00 0.  1.
          1   -1    0    0  501    0 -0.00000000000E+00 -0.00000000000E+00 -0.25159572011E+03  0.25159572011E+03  0.00000000000E+00 0.  1.
          2    1    1    2  501    0 -0.87721540402E+02 -0.15231888239E+02  0.62293672941E+03  0.62926723093E+03  0.00000000000E+00 0.  1.
          1    1    1    2  502    0  0.52062401956E+02  0.80149632695E+02 -0.20426411948E+03  0.22551782153E+03  0.00000000000E+00 0.  1.
         22    1    1    2    0    0 -0.26599847828E+02  0.10707266289E+02  0.83174883184E+02  0.87978739753E+02  0.00000000000E+00 0.  1.
         22    1    1    2    0    0  0.62258986274E+02 -0.75625010745E+02  0.45902187581E+02  0.10817732871E+03  0.00000000000E+00 0.  1.
</event>
<event>
 6    1  0.1715574E-005  0.5829403E+02  0.7818608E-02  0.1407201E+00
          2   -1    0    0  502    0  0.00000000000E+00  0.00000000000E+00  0.11679448936E+03  0.11679448936E+03  0.00000000000E+00 0.  1.
          1   -1    0    0  501    0 -0.00000000000E+00 -0.00000000000E+00 -0.17466403530E+03  0.17466403530E+03  0.00000000000E+00 0.  1.
          2    1    1    2  501    0 -0.18656800195E+02 -0.10586139202E+02  0.30790772234E+02  0.37526180081E+02  0.00000000000E+00 0.  1.
          1    1    1    2  502    0  0.43133254320E+02  0.47534912558E+01 -0.11177092339E+03  0.11989917691E+03  0.00000000000E+00 0.  1.
         22    1    1    2    0    0  0.11638931388E+02  0.28733390406E+01 -0.50544574899E+02  0.51946846418E+02  0.00000000000E+00 0.  1.
         22    1    1    2    0    0 -0.36115385513E+02  0.29593089055E+01  0.73655180115E+02  0.82086321258E+02  0.00000000000E+00 0.  1.
</event>
<event>
 6    1  0.1715574E-005  0.5178589E+02  0.7818608E-02  0.1460149E+00
          2   -1    0    0  502    0  0.00000000000E+00  0.00000000000E+00  0.31485134578E+03  0.31485134578E+03  0.00000000000E+00 0. -1.
          1   -1    0    0  501    0 -0.00000000000E+00 -0.00000000000E+00 -0.46698998739E+02  0.46698998739E+02  0.00000000000E+00 0. -1.
          2    1    1    2  501    0 -0.25877738818E+02 -0.31764570486E+02  0.11408843726E+03  0.12122217957E+03  0.00000000000E+00 0. -1.
          1    1    1    2  502    0 -0.18854471306E+02 -0.12635633378E+02 -0.10045828259E+02  0.24820736986E+02  0.00000000000E+00 0. -1.
         22    1    1    2    0    0 -0.89234400008E+01 -0.71205128216E+01 -0.16565593163E+02  0.20118358808E+02  0.00000000000E+00 0. -1.
         22    1    1    2    0    0  0.53655650125E+02  0.51520716685E+02  0.18067533121E+03  0.19538906915E+03  0.00000000000E+00 0. -1.
</event>
<event>
 6    1  0.1715574E-005  0.4370696E+02  0.7818608E-02  0.1553114E+00
          2   -1    0    0  502    0  0.00000000000E+00  0.00000000000E+00  0.84309846571E+02  0.84309846571E+02  0.00000000000E+00 0.  1.
          1   -1    0    0  501    0 -0.00000000000E+00 -0.00000000000E+00 -0.12325764155E+03  0.12325764155E+03  0.00000000000E+00 0. -1.
          2    1    1    2  501    0  0.19941545789E+02  0.10225288765E+02  0.20707189251E+02  0.30512447713E+02  0.00000000000E+00 0.  1.
          1    1    1    2  502    0 -0.33963312372E+02 -0.34004712403E+01 -0.37359719870E+02  0.50604530041E+02  0.00000000000E+00 0. -1.
         22    1    1    2    0    0  0.15234541096E+02  0.10093520012E+02  0.49454541217E+02  0.52723069293E+02  0.00000000000E+00 0. -1.
         22    1    1    2    0    0 -0.12127745124E+01 -0.16918337537E+02 -0.71749805575E+02  0.73727441073E+02  0.00000000000E+00 0.  1.
</event>
<event>
 6    1  0.1715574E-005  0.1083412E+03  0.7818608E-02  0.1295914E+00
          2   -1    0    0  502    0  0.00000000000E+00  0.00000000000E+00  0.10152002641E+04  0.10152002641E+04  0.00000000000E+00 0. -1.
          1   -1    0    0  501    0 -0.00000000000E+00 -0.00000000000E+00 -0.37174719233E+02  0.37174719233E+02  0.00000000000E+00 0. -1.
          2    1    1    2  501    0  0.25114725924E+02 -0.30669477584E+02  0.65032072277E+03  0.65152774981E+03  0.00000000000E+00 0. -1.
          1    1    1    2  502    0  0.17395261116E+02  0.30327627710E+02 -0.12804345932E+02  0.37233202744E+02  0.00000000000E+00 0. -1.
         22    1    1    2    0    0 -0.53482821967E+02 -0.18483627666E+02  0.33678787433E+03  0.34150860755E+03  0.00000000000E+00 0.  1.
         22    1    1    2    0    0  0.10972834927E+02  0.18825477540E+02  0.37212937503E+01  0.22105423274E+02  0.00000000000E+00 0.  1.
</event>
<event>
 6    1  0.1715574E-005  0.4916396E+02  0.7818608E-02  0.1450172E+00
          2   -1    0    0  502    0  0.00000000000E+00  0.00000000000E+00  0.24093140270E+03  0.24093140270E+03  0.00000000000E+00 0.  1.
          1   -1    0    0  501    0 -0.00000000000E+00 -0.00000000000E+00 -0.24755014824E+03  0.24755014824E+03  0.00000000000E+00 0. -1.
          2    1    1    2  501    0  0.35846198817E+02 -0.64715478603E+01  0.19461038758E+03  0.19798998423E+03  0.00000000000E+00 0.  1.
          1    1    1    2  502    0 -0.26594332790E+02  0.33594576178E+01 -0.15206624666E+03  0.15441077639E+03  0.00000000000E+00 0. -1.
         22    1    1    2    0    0  0.10593963017E+02 -0.54939740195E+01  0.41340340161E+02  0.43028357249E+02  0.00000000000E+00 0.  1.
         22    1    1    2    0    0 -0.19845829044E+02  0.86060642620E+01 -0.90503226621E+02  0.93052433076E+02  0.00000000000E+00 0. -1.
</event>
<event>
 6    1  0.1715574E-005  0.6230908E+02  0.7818608E-02  0.1390576E+00
          2   -1    0    0  502    0  0.00000000000E+00  0.00000000000E+00  0.10904217109E+03  0.10904217109E+03  0.00000000000E+00 0.  1.
          1   -1    0    0  501    0 -0.00000000000E+00 -0.00000000000E+00 -0.15592431282E+03  0.15592431282E+03  0.00000000000E+00 0. -1.
          2    1    1    2  501    0  0.19245383115E+02  0.21039522762E+02  0.30444853935E+02  0.41712533134E+02  0.00000000000E+00 0.  1.
          1    1    1    2  502    0 -0.80322290966E+01 -0.40790952728E+02 -0.91026742858E+02  0.10007140673E+03  0.00000000000E+00 0. -1.
         22    1    1    2    0    0 -0.18934973091E+02 -0.83389992484E+01 -0.49468073507E+02  0.53620540942E+02  0.00000000000E+00 0.  1.
         22    1    1    2    0    0  0.77218190726E+01  0.28090429214E+02  0.63167820708E+02  0.69562003107E+02  0.00000000000E+00 0.  1.
</event>
<event>
 6    1  0.1715574E-005  0.1313035E+03  0.7818608E-02  0.1247998E+00
          2   -1    0    0  502    0  0.00000000000E+00  0.00000000000E+00  0.13680094901E+03  0.13680094901E+03  0.00000000000E+00 0.  1.
          1   -1    0    0  501    0 -0.00000000000E+00 -0.00000000000E+00 -0.24072468022E+03  0.24072468022E+03  0.00000000000E+00 0.  1.
          2    1    1    2  501    0  0.86149192034E+02  0.16158153138E+02  0.35491926108E+02  0.94564507188E+02  0.00000000000E+00 0.  1.
          1    1    1    2  502    0 -0.65458639774E+02 -0.81530724279E+02 -0.64048108059E+02  0.12261424333E+03  0.00000000000E+00 0.  1.
         22    1    1    2    0    0 -0.39354794960E+02 -0.15499141484E+02 -0.63800014177E+02  0.76547142874E+02  0.00000000000E+00 0. -1.
         22    1    1    2    0    0  0.18664242701E+02  0.80871712625E+02 -0.11567535074E+02  0.83799735836E+02  0.00000000000E+00 0.  1.
</event>
<event>
 6    1  0.1715574E-005  0.6492717E+02  0.7818608E-02  0.1438472E+00
          2   -1    0    0  502    0  0.00000000000E+00  0.00000000000E+00  0.17739029833E+03  0.17739029833E+03  0.00000000000E+00 0.  1.
          1   -1    0    0  501    0 -0.00000000000E+00 -0.00000000000E+00 -0.23285555264E+03  0.23285555264E+03  0.00000000000E+00 0.  1.
          2    1    1    2  501    0  0.44573179818E+02  0.52443349999E+01  0.12788493650E+03  0.13553165088E+03  0.00000000000E+00 0.  1.
          1    1    1    2  502    0 -0.36177111521E+02 -0.21125454548E+02 -0.12624952586E+03  0.13301883704E+03  0.00000000000E+00 0.  1.
         22    1    1    2    0    0  0.14199455574E+02  0.20935781486E+02  0.36981556382E+02  0.44805881281E+02  0.00000000000E+00 0. -1.
         22    1    1    2    0    0 -0.22595523871E+02 -0.50546619371E+01 -0.94082221328E+02  0.96889481763E+02  0.00000000000E+00 0.  1.
</event>
<event>
 6    1  0.1715574E-005  0.4723065E+02  0.7818608E-02  0.1505298E+00
          2   -1    0    0  502    0  0.00000000000E+00  0.00000000000E+00  0.10506014031E+03  0.10506014031E+03  0.00000000000E+00 0.  1.
          1   -1    0    0  501    0 -0.00000000000E+00 -0.00000000000E+00 -0.74404231552E+03  0.74404231552E+03  0.00000000000E+00 0.  1.
          2    1    1    2  501    0 -0.27333692928E+02  0.41172987847E+02  0.24806556963E+02  0.55296572821E+02  0.00000000000E+00 0.  1.
          1    1    1    2  502    0  0.17849971165E+02 -0.65432290533E+02 -0.65867003229E+03  0.66215271467E+03  0.00000000000E+00 0.  1.
         22    1    1    2    0    0 -0.56173590281E+01  0.29170323191E+02  0.58753596401E+02  0.65836521533E+02  0.00000000000E+00 0.  1.
         22    1    1    2    0    0  0.15101080791E+02 -0.49110205057E+01 -0.63872296282E+02  0.65816646799E+02  0.00000000000E+00 0. -1.
</event>
<event>
 6    1  0.1715574E-005  0.1079783E+03  0.7818608E-02  0.1271261E+00
          2   -1    0    0  502    0  0.00000000000E+00  0.00000000000E+00  0.18394825963E+03  0.18394825963E+03  0.00000000000E+00 0. -1.
          1   -1    0    0  501    0 -0.00000000000E+00 -0.00000000000E+00 -0.65392753381E+02  0.65392753381E+02  0.00000000000E+00 0. -1.
          2    1    1    2  501    0 -0.10513960053E+02  0.51672364359E+02  0.35935899199E+02  0.63811953784E+02  0.00000000000E+00 0. -1.
          1    1    1    2  502    0  0.10025431693E+02 -0.26040108277E+02  0.35320512841E+02  0.45012610978E+02  0.00000000000E+00 0. -1.
         22    1    1    2    0    0  0.77633282232E+01  0.34483480715E+02  0.67903742577E+02  0.76552582996E+02  0.00000000000E+00 0. -1.
         22    1    1    2    0    0 -0.72747998631E+01 -0.60115736797E+02 -0.20604648368E+02  0.63963865253E+02  0.00000000000E+00 0. -1.
</event>
<event>
 6    1  0.1715574E-005  0.1721441E+03  0.7818608E-02  0.1178314E+00
          2   -1    0    0  502    0  0.00000000000E+00  0.00000000000E+00  0.50384788111E+03  0.50384788111E+03  0.00000000000E+00 0. -1.
          1   -1    0    0  501    0 -0.00000000000E+00 -0.00000000000E+00 -0.87626417684E+02  0.87626417684E+02  0.00000000000E+00 0.  1.
          2    1    1    2  501    0 -0.30820248838E+02  0.64393599586E+01  0.37761122523E+02  0.49165592331E+02  0.00000000000E+00 0. -1.
          1    1    1    2  502    0  0.13607939388E+03  0.54401227193E+02  0.27414049894E+02  0.14909267283E+03  0.00000000000E+00 0.  1.
         22    1    1    2    0    0 -0.11983319986E+03 -0.61480223260E+02  0.35362196868E+03  0.37840231285E+03  0.00000000000E+00 0. -1.
         22    1    1    2    0    0  0.14574054809E+02  0.63963610824E+00 -0.25756776692E+01  0.14813720781E+02  0.00000000000E+00 0. -1.
</event>
<event>
 6    1  0.1715574E-005  0.7429151E+02  0.7818608E-02  0.1350827E+00
          2   -1    0    0  502    0  0.00000000000E+00  0.00000000000E+00  0.25022514533E+02  0.25022514533E+02  0.00000000000E+00 0.  1.
          1   -1    0    0  501    0 -0.00000000000E+00 -0.00000000000E+00 -0.33668522227E+03  0.33668522227E+03  0.00000000000E+00 0. -1.
          2    1    1    2  501    0  0.34406883501E+01 -0.29745420415E+02 -0.24799548956E+02  0.38879891981E+02  0.00000000000E+00 0.  1.
          1    1    1    2  502    0 -0.69147098246E+01  0.20429019011E+02 -0.66680793254E+02  0.70081996395E+02  0.00000000000E+00 0. -1.
         22    1    1    2    0    0 -0.34654323212E+02  0.30516981069E+02 -0.19892938223E+03  0.20421828362E+03  0.00000000000E+00 0. -1.
         22    1    1    2    0    0  0.38128344686E+02 -0.21200579665E+02 -0.21252983290E+02  0.48527564800E+02  0.00000000000E+00 0.  1.
</event>
<event>
 6    1  0.1715574E-005  0.2765535E+03  0.7818608E-02  0.1114991E+00
          2   -1    0    0  502    0  0.00000000000E+00  0.00000000000E+00  0.58833299244E+03  0.58833299244E+03  0.00000000000E+00 0. -1.
          1   -1    0    0  501    0 -0.00000000000E+00 -0.00000000000E+00 -0.93383947932E+02  0.93383947932E+02  0.00000000000E+00 0. -1.
          2    1    1    2  501    0  0.12412263263E+03 -0.93617247511E+01  0.98153756593E+02  0.15851886246E+03  0.00000000000E+00 0. -1.
          1    1    1    2  502    0 -0.90742577091E+02 -0.88369002195E+02  0.43435539055E+02  0.13390273298E+03  0.00000000000E+00 0. -1.
         22    1    1    2    0    0 -0.28739471443E+02  0.12878950029E+03  0.28447276976E+03  0.31358802487E+03  0.00000000000E+00 0. -1.
         22    1    1    2    0    0 -0.46405840949E+01 -0.31058773348E+02  0.68886979092E+02  0.75707320063E+02  0.00000000000E+00 0.  1.
</event>
<event>
 6    1  0.2235940E-005  0.4439685E+02  0.7818608E-02  0.1525783E+00
          2   -1    0    0  502    0  0.00000000000E+00  0.00000000000E+00  0.10705925588E+03  0.10705925588E+03  0.00000000000E+00 0.  1.
          1   -1    0    0  501    0 -0.00000000000E+00 -0.00000000000E+00 -0.52088732937E+03  0.52088732937E+03  0.00000000000E+00 0.  1.
          2    1    1    2  501    0  0.15578337731E+01 -0.70514652639E+02 -0.24681791102E+02  0.74725724452E+02  0.00000000000E+00 0.  1.
          1    1    1    2  502    0  0.31069138547E+02  0.71799360699E+02 -0.41042625825E+03  0.41781593200E+03  0.00000000000E+00 0.  1.
         22    1    1    2    0    0 -0.98610036132E+01  0.82525661435E+01 -0.54349286169E+02  0.55849701407E+02  0.00000000000E+00 0. -1.
         22    1    1    2    0    0 -0.22765968707E+02 -0.95372742037E+01  0.75629262027E+02  0.79555227391E+02  0.00000000000E+00 0.  1.
</event>
<event>
 6    1  0.1715574E-005  0.3179324E+02  0.7818608E-02  0.1646493E+00
          2   -1    0    0  502    0  0.00000000000E+00  0.00000000000E+00  0.39082999917E+03  0.39082999917E+03  0.00000000000E+00 0.  1.
          1   -1    0    0  501    0 -0.00000000000E+00 -0.00000000000E+00 -0.10474708915E+03  0.10474708915E+03  0.00000000000E+00 0.  1.
          2    1    1    2  501    0 -0.28799297116E+01 -0.28434229703E+02  0.27686460040E+03  0.27833577989E+03  0.00000000000E+00 0.  1.
          1    1    1    2  502    0 -0.10512230446E+02  0.34081230534E+02 -0.65428368960E+02  0.74517841678E+02  0.00000000000E+00 0.  1.
         22    1    1    2    0    0 -0.11341193137E+02  0.31004849713E+00 -0.31546908595E+02  0.33525009079E+02  0.00000000000E+00 0.  1.
         22    1    1    2    0    0  0.24733353295E+02 -0.59570493280E+01  0.10619358717E+03  0.10919845768E+03  0.00000000000E+00 0. -1.
</event>
<event>
 6    1  0.1715574E-005  0.1694102E+03  0.7818608E-02  0.1181553E+00
          2   -1    0    0  502    0  0.00000000000E+00  0.00000000000E+00  0.41803493590E+03  0.41803493590E+03  0.00000000000E+00 0. -1.
          1   -1    0    0  501    0 -0.00000000000E+00 -0.00000000000E+00 -0.66309663565E+02  0.66309663565E+02  0.00000000000E+00 0. -1.
          2    1    1    2  501    0 -0.12247778833E+03  0.20248594294E+02  0.83250320385E+02  0.14947049893E+03  0.00000000000E+00 0. -1.
          1    1    1    2  502    0  0.21707971787E+02  0.20233153097E+02  0.68356917176E+02  0.74520363990E+02  0.00000000000E+00 0. -1.
         22    1    1    2    0    0  0.13098730750E+03 -0.34905893496E+02  0.15731839586E+03  0.20766601504E+03  0.00000000000E+00 0. -1.
         22    1    1    2    0    0 -0.30217490960E+02 -0.55758538952E+01  0.42799638912E+02  0.52687721507E+02  0.00000000000E+00 0.  1.
</event>
<event>
 6    1  0.1715574E-005  0.9157264E+02  0.7818608E-02  0.1299253E+00
          2   -1    0    0  502    0  0.00000000000E+00  0.00000000000E+00  0.25997431348E+03  0.25997431348E+03  0.00000000000E+00 0. -1.
          1   -1    0    0  501    0 -0.00000000000E+00 -0.00000000000E+00 -0.34493788846E+02  0.34493788846E+02  0.00000000000E+00 0. -1.
          2    1    1    2  501    0 -0.67377013428E+01  0.26514580042E+02  0.15819598140E+02  0.31601886961E+02  0.00000000000E+00 0. -1.
          1    1    1    2  502    0  0.13914513549E+02 -0.28215458536E+02  0.72760489207E+02  0.79270515183E+02  0.00000000000E+00 0. -1.
         22    1    1    2    0    0 -0.41736907637E+02  0.47825498900E+02  0.58757403433E+02  0.86496706656E+02  0.00000000000E+00 0. -1.
         22    1    1    2    0    0  0.34560095431E+02 -0.46124620407E+02  0.78143033850E+02  0.97098993523E+02  0.00000000000E+00 0. -1.
</event>
<event>
 6    1  0.1715574E-005  0.2008482E+03  0.7818608E-02  0.1257615E+00
          2   -1    0    0  502    0  0.00000000000E+00  0.00000000000E+00  0.59120976963E+03  0.59120976963E+03  0.00000000000E+00 0.  1.
          1   -1    0    0  501    0 -0.00000000000E+00 -0.00000000000E+00 -0.13828690684E+03  0.13828690684E+03  0.00000000000E+00 0.  1.
          2    1    1    2  501    0 -0.19372380625E+02 -0.17258361390E+03  0.34735997961E+03  0.38835466825E+03  0.00000000000E+00 0.  1.
          1    1    1    2  502    0  0.40139913999E+02  0.18191519984E+03  0.99207637340E+02  0.21106043669E+03  0.00000000000E+00 0.  1.
         22    1    1    2    0    0 -0.43508822774E+01  0.18651699519E+02 -0.56330696950E+02  0.59497592308E+02  0.00000000000E+00 0.  1.
         22    1    1    2    0    0 -0.16416651097E+02 -0.27983285460E+02  0.62685942789E+02  0.70583979214E+02  0.00000000000E+00 0.  1.
</event>
<event>
 6    1  0.1715574E-005  0.1559493E+03  0.7818608E-02  0.1197977E+00
          2   -1    0    0  502    0  0.00000000000E+00  0.00000000000E+00  0.66005329071E+02  0.66005329071E+02  0.00000000000E+00 0. -1.
          1   -1    0    0  501    0 -0.00000000000E+00 -0.00000000000E+00 -0.38512673760E+03  0.38512673760E+03  0.00000000000E+00 0.  1.
          2    1    1    2  501    0  0.26357579006E+02  0.71392860192E+02 -0.30356693762E+02  0.81934066869E+02  0.00000000000E+00 0. -1.
          1    1    1    2  502    0 -0.73177414530E+02 -0.62401131671E+02 -0.11664767800E+03  0.15118040883E+03  0.00000000000E+00 0.  1.
         22    1    1    2    0    0 -0.31791452264E+02 -0.87202194814E+01 -0.11815379964E+03  0.12266645440E+03  0.00000000000E+00 0.  1.
         22    1    1    2    0    0  0.78611287788E+02 -0.27150903984E+00 -0.53963237122E+02  0.95351136572E+02  0.00000000000E+00 0. -1.
</event>
<event>
 6    1  0.1715574E-005  0.5177867E+02  0.7818608E-02  0.1540337E+00
          2   -1    0    0  502    0  0.00000000000E+00  0.00000000000E+00  0.51533524582E+03  0.51533524582E+03  0.00000000000E+00 0.  1.
          1   -1    0    0  501    0 -0.00000000000E+00 -0.00000000000E+00 -0.12536457376E+03  0.12536457376E+03  0.00000000000E+00 0.  1.
          2    1    1    2  501    0  0.36796829811E+01  0.38459029292E+02  0.45619210206E+03  0.45782515328E+03  0.00000000000E+00 0.  1.
          1    1    1    2  502    0 -0.77573442034E+01 -0.29086045080E+02 -0.52273053968E+02  0.60321195103E+02  0.00000000000E+00 0.  1.
         22    1    1    2    0    0  0.66930157808E+01  0.99960489191E+01  0.52205074196E+02  0.53573195033E+02  0.00000000000E+00 0.  1.
         22    1    1    2    0    0 -0.26153545586E+01 -0.19369033131E+02 -0.66153450220E+02  0.68980276166E+02  0.00000000000E+00 0.  1.
</event>
<event>
 6    1  0.1715574E-005  0.6530417E+02  0.7818608E-02  0.1418208E+00
          2   -1    0    0  502    0  0.00000000000E+00  0.00000000000E+00  0.74148236828E+03  0.74148236828E+03  0.00000000000E+00 0. -1.
          1   -1    0    0  501    0 -0.00000000000E+00 -0.00000000000E+00 -0.20740258429E+02  0.20740258429E+02  0.00000000000E+00 0. -1.
          2    1    1    2  501    0 -0.22774342186E+02  0.15745184088E+02  0.20473457753E+03  0.20659823019E+03  0.00000000000E+00 0. -1.
          1    1    1    2  502    0  0.49261838467E+02 -0.23849134018E+02  0.28883897126E+03  0.29397867481E+03  0.00000000000E+00 0. -1.
         22    1    1    2    0    0 -0.43202056762E+01 -0.33550760124E+02  0.46104286559E+01  0.34140499914E+02  0.00000000000E+00 0. -1.
         22    1    1    2    0    0 -0.22167290605E+02  0.41654710054E+02  0.22255813241E+03  0.22750522180E+03  0.00000000000E+00 0. -1.
</event>
<event>
 6    1  0.1715574E-005  0.2409692E+03  0.7818608E-02  0.1119579E+00
          2   -1    0    0  502    0  0.00000000000E+00  0.00000000000E+00  0.25510860945E+03  0.25510860945E+03  0.00000000000E+00 0.  1.
          1   -1    0    0  501    0 -0.00000000000E+00 -0.00000000000E+00 -0.40376043867E+03  0.40376043867E+03  0.00000000000E+00 0.  1.
          2    1    1    2  501    0 -0.79918912564E+02  0.14363256741E+03  0.13915251660E+03  0.21536195087E+03  0.00000000000E+00 0.  1.
          1    1    1    2  502    0  0.92838878705E+02 -0.17522428780E+03 -0.20950878483E+03  0.28847277056E+03  0.00000000000E+00 0.  1.
         22    1    1    2    0    0  0.16215899411E+02 -0.26971038877E+02 -0.83680764160E+02  0.89402811042E+02  0.00000000000E+00 0. -1.
         22    1    1    2    0    0 -0.29135865552E+02  0.58562759267E+02  0.53852031747E+01  0.65631515659E+02  0.00000000000E+00 0.  1.
</event>
<event>
 6    1  0.1715574E-005  0.9951831E+02  0.7818608E-02  0.1314406E+00
          2   -1    0    0  502    0  0.00000000000E+00  0.00000000000E+00  0.94267302403E+02  0.94267302403E+02  0.00000000000E+00 0.  1.
          1   -1    0    0  501    0 -0.00000000000E+00 -0.00000000000E+00 -0.16572736723E+03  0.16572736723E+03  0.00000000000E+00 0.  1.
          2    1    1    2  501    0 -0.25532901467E+02 -0.12184448430E+02  0.36584618886E+02  0.46247423494E+02  0.00000000000E+00 0.  1.
          1    1    1    2  502    0  0.11680840632E+01 -0.22555522797E+02 -0.78482790263E+02  0.81668013301E+02  0.00000000000E+00 0.  1.
         22    1    1    2    0    0  0.18843330978E+02  0.63404814322E+02  0.24583289845E+02  0.70566137355E+02  0.00000000000E+00 0.  1.
         22    1    1    2    0    0  0.55214864263E+01 -0.28664843094E+02 -0.54145183295E+02  0.61513095484E+02  0.00000000000E+00 0. -1.
</event>
<event>
 6    1  0.1715574E-005  0.4928935E+02  0.7818608E-02  0.1450228E+00
          2   -1    0    0  502    0  0.00000000000E+00  0.00000000000E+00  0.54848893360E+02  0.54848893360E+02  0.00000000000E+00 0. -1.
          1   -1    0    0  501    0 -0.00000000000E+00 -0.00000000000E+00 -0.17488842014E+03  0.17488842014E+03  0.00000000000E+00 0. -1.
          2    1    1    2  501    0 -0.17628891929E+01  0.21214224643E+02  0.90179503600E+01  0.23118705289E+02  0.00000000000E+00 0. -1.
          1    1    1    2  502    0 -0.17638498982E+01 -0.22402243018E+02 -0.63162567829E+02  0.67040895232E+02  0.00000000000E+00 0. -1.
         22    1    1    2    0    0  0.75064875346E+01 -0.24501449640E+02 -0.96255578832E+02  0.99608256916E+02  0.00000000000E+00 0. -1.
         22    1    1    2    0    0 -0.39797484435E+01  0.25689468014E+02  0.30360669519E+02  0.39969456066E+02  0.00000000000E+00 0. -1.
</event>
<event>
 6    1  0.1715574E-005  0.1361628E+03  0.7818608E-02  0.1243911E+00
          2   -1    0    0  502    0  0.00000000000E+00  0.00000000000E+00  0.19375462111E+03  0.19375462111E+03  0.00000000000E+00 0. -1.
          1   -1    0    0  501    0 -0.00000000000E+00 -0.00000000000E+00 -0.67977089113E+02  0.67977089113E+02  0.00000000000E+00 0. -1.
          2    1    1    2  501    0 -0.20082262352E+02  0.49098397421E+02  0.66711146926E+02  0.85231021434E+02  0.00000000000E+00 0. -1.
          1    1    1    2  502    0  0.14503784222E+02 -0.25670274139E+02  0.28198977242E+02  0.40798346151E+02  0.00000000000E+00 0. -1.
         22    1    1    2    0    0 -0.44338091963E+02 -0.12796377601E+02 -0.30930439518E+02  0.55554529675E+02  0.00000000000E+00 0. -1.
         22    1    1    2    0    0  0.49916570093E+02 -0.10631745682E+02  0.61797847349E+02  0.80147812965E+02  0.00000000000E+00 0.  1.
</event>
<event>
 6    1  0.1715574E-005  0.4767465E+02  0.7818608E-02  0.1498120E+00
          2   -1    0    0  502    0  0.00000000000E+00  0.00000000000E+00  0.22665839010E+03  0.22665839010E+03  0.00000000000E+00 0. -1.
          1   -1    0    0  501    0 -0.00000000000E+00 -0.00000000000E+00 -0.15465703505E+03  0.15465703505E+03  0.00000000000E+00 0. -1.
          2    1    1    2  501    0  0.15486557800E+02  0.21488551256E+02  0.16868020334E+03  0.17074718828E+03  0.00000000000E+00 0. -1.
          1    1    1    2  502    0 -0.44993783295E+02 -0.74816330767E+01 -0.63941012211E+02  0.78542144172E+02  0.00000000000E+00 0. -1.
         22    1    1    2    0    0  0.14519966185E+02 -0.22909666822E+02 -0.78501269867E+02  0.83054991557E+02  0.00000000000E+00 0. -1.
         22    1    1    2    0    0  0.14987259310E+02  0.89027486428E+01  0.45763433788E+02  0.48971101142E+02  0.00000000000E+00 0.  1.
</event>
<event>
 6    1  0.1715574E-005  0.5625347E+02  0.7818608E-02  0.1472367E+00
          2   -1    0    0  502    0  0.00000000000E+00  0.00000000000E+00  0.26658305023E+03  0.26658305023E+03  0.00000000000E+00 0.  1.
          1   -1    0    0  501    0 -0.00000000000E+00 -0.00000000000E+00 -0.16055783388E+03  0.16055783388E+03  0.00000000000E+00 0. -1.
          2    1    1    2  501    0 -0.81207585456E+01 -0.35840984213E+02  0.17089596578E+03  0.17480261436E+03  0.00000000000E+00 0.  1.
          1    1    1    2  502    0  0.20616352307E+02  0.61923619154E+02 -0.97275506681E+02  0.11714133682E+03  0.00000000000E+00 0. -1.
         22    1    1    2    0    0  0.93000892651E+01 -0.16791274247E+02  0.79871368782E+02  0.82145444805E+02  0.00000000000E+00 0.  1.
         22    1    1    2    0    0 -0.21795683026E+02 -0.92913606939E+01 -0.47466611526E+02  0.53051488121E+02  0.00000000000E+00 0.  1.
</event>
<event>
 6    1  0.1715574E-005  0.2084633E+03  0.7818608E-02  0.1223551E+00
          2   -1    0    0  502    0  0.00000000000E+00  0.00000000000E+00  0.13165573565E+04  0.13165573565E+04  0.00000000000E+00 0. -1.
          1   -1    0    0  501    0 -0.00000000000E+00 -0.00000000000E+00 -0.17643414134E+03  0.17643414134E+03  0.00000000000E+00 0. -1.
          2    1    1    2  501    0  0.33147490107E+03 -0.42642379035E+02  0.11941523375E+03  0.35489995856E+03  0.00000000000E+00 0. -1.
          1    1    1    2  502    0 -0.25620264153E+03  0.15098968969E+03  0.80090398967E+03  0.85433300334E+03  0.00000000000E+00 0. -1.
         22    1    1    2    0    0 -0.98389738088E+02 -0.11630211824E+03  0.16994364546E+03  0.22822700520E+03  0.00000000000E+00 0. -1.
         22    1    1    2    0    0  0.23117478545E+02  0.79548075838E+01  0.49860346300E+02  0.55531530783E+02  0.00000000000E+00 0.  1.
</event>
<event>
 6    1  0.1715574E-005  0.7015935E+02  0.7818608E-02  0.1360094E+00
          2   -1    0    0  502    0  0.00000000000E+00  0.00000000000E+00  0.51935870298E+03  0.51935870298E+03  0.00000000000E+00 0.  1.
          1   -1    0    0  501    0 -0.00000000000E+00 -0.00000000000E+00 -0.43397386554E+02  0.43397386554E+02  0.00000000000E+00 0. -1.
          2    1    1    2  501    0  0.93599447702E+01  0.87951581971E+02  0.28974573530E+03  0.30294501227E+03  0.00000000000E+00 0.  1.
          1    1    1    2  502    0  0.24628152343E+02 -0.30600107546E+02  0.19589941932E+02  0.43893943711E+02  0.00000000000E+00 0. -1.
         22    1    1    2    0    0 -0.55506528851E+02 -0.41862262129E+02  0.17484412053E+03  0.18815921508E+03  0.00000000000E+00 0.  1.
         22    1    1    2    0    0  0.21518431738E+02 -0.15489212297E+02 -0.82184813395E+01  0.27757918466E+02  0.00000000000E+00 0. -1.
</event>
<event>
 6    1  0.1715574E-005  0.2622847E+03  0.7818608E-02  0.1107012E+00
          2   -1    0    0  502    0  0.00000000000E+00  0.00000000000E+00  0.97090013296E+03  0.97090013296E+03  0.00000000000E+00 0. -1.
          1   -1    0    0  501    0 -0.00000000000E+00 -0.00000000000E+00 -0.15272585931E+03  0.15272585931E+03  0.00000000000E+00 0. -1.
          2    1    1    2  501    0 -0.46884937400E+02  0.93619361186E+00 -0.85368048917E+01  0.47664985589E+02  0.00000000000E+00 0. -1.
          1    1    1    2  502    0  0.18105880494E+03 -0.14982415485E+03  0.80333099683E+03  0.83700075190E+03  0.00000000000E+00 0. -1.
         22    1    1    2    0    0 -0.14226776536E+03  0.16070507848E+03  0.37539076389E+01  0.21466329713E+03  0.00000000000E+00 0. -1.
         22    1    1    2    0    0  0.80938978260E+01 -0.11817117244E+02  0.19626174083E+02  0.24296957651E+02  0.00000000000E+00 0.  1.
</event>
<event>
 6    1  0.1715574E-005  0.5300699E+02  0.7818608E-02  0.1493096E+00
          2   -1    0    0  502    0  0.00000000000E+00  0.00000000000E+00  0.15022551450E+03  0.15022551450E+03  0.00000000000E+00 0. -1.
          1   -1    0    0  501    0 -0.00000000000E+00 -0.00000000000E+00 -0.10161419418E+03  0.10161419418E+03  0.00000000000E+00 0. -1.
          2    1    1    2  501    0 -0.22084885042E+02 -0.36692205011E+02  0.75409119345E+02  0.86721366089E+02  0.00000000000E+00 0. -1.
          1    1    1    2  502    0  0.14056828489E+02  0.34862388940E+02  0.51225237264E+01  0.37937064187E+02  0.00000000000E+00 0. -1.
         22    1    1    2    0    0  0.19321150667E+02  0.86107317361E+01 -0.77189045808E+02  0.80034994577E+02  0.00000000000E+00 0. -1.
         22    1    1    2    0    0 -0.11293094114E+02 -0.67809156646E+01  0.45268723057E+02  0.47146283832E+02  0.00000000000E+00 0. -1.
</event>
<event>
 6    1  0.1715574E-005  0.2525009E+03  0.7818608E-02  0.1113374E+00
          2   -1    0    0  502    0  0.00000000000E+00  0.00000000000E+00  0.20294581115E+03  0.20294581115E+03  0.00000000000E+00 0. -1.
          1   -1    0    0  501    0 -0.00000000000E+00 -0.00000000000E+00 -0.90896007574E+03  0.90896007574E+03  0.00000000000E+00 0. -1.
          2    1    1    2  501    0 -0.92978608651E+01  0.93995266103E+02 -0.47247720081E+03  0.48182597020E+03  0.00000000000E+00 0. -1.
          1    1    1    2  502    0  0.72089550921E+02 -0.21613372750E+03  0.10006098477E+03  0.24884310757E+03  0.00000000000E+00 0. -1.
         22    1    1    2    0    0 -0.93987783298E+01 -0.10653338557E+02  0.38263865749E+01  0.14712983746E+02  0.00000000000E+00 0. -1.
         22    1    1    2    0    0 -0.53392911726E+02  0.13279179995E+03 -0.33742443512E+03  0.36652382538E+03  0.00000000000E+00 0. -1.
</event>
<event>
 6    1  0.1715574E-005  0.4497613E+02  0.7818608E-02  0.1496203E+00
          2   -1    0    0  502    0  0.00000000000E+00  0.00000000000E+00  0.32089284896E+03  0.32089284896E+03  0.00000000000E+00 0.  1.
          1   -1    0    0  501    0 -0.00000000000E+00 -0.00000000000E+00 -0.12858595349E+03  0.12858595349E+03  0.00000000000E+00 0.  1.
          2    1    1    2  501    0  0.69665942013E+02  0.24686059638E+02  0.19689435788E+03  0.21030961267E+03  0.00000000000E+00 0.  1.
          1    1    1    2  502    0 -0.49340941845E+02 -0.25616135607E+02 -0.76964397666E+02  0.94943317056E+02  0.00000000000E+00 0.  1.
         22    1    1    2    0    0 -0.58262537496E+00 -0.22068525913E+02 -0.30118457307E+02  0.37342747071E+02  0.00000000000E+00 0.  1.
         22    1    1    2    0    0 -0.19742374793E+02  0.22998601881E+02  0.10249539256E+03  0.10688312564E+03  0.00000000000E+00 0. -1.
</event>
<event>
 6    1  0.1715574E-005  0.9242509E+02  0.7818608E-02  0.1297821E+00
          2   -1    0    0  502    0  0.00000000000E+00  0.00000000000E+00  0.31427396081E+02  0.31427396081E+02  0.00000000000E+00 0.  1.
          1   -1    0    0  501    0 -0.00000000000E+00 -0.00000000000E+00 -0.72220914987E+03  0.72220914987E+03  0.00000000000E+00 0. -1.
          2    1    1    2  501    0  0.53367267659E+02 -0.57666195638E+01 -0.19091474108E+02  0.56971953997E+02  0.00000000000E+00 0.  1.
          1    1    1    2  502    0 -0.31250991095E+02  0.54480222680E+00 -0.36620846459E+03  0.36753987646E+03  0.00000000000E+00 0. -1.
         22    1    1    2    0    0 -0.49350740728E+02 -0.20376673763E+02 -0.27709123216E+03  0.28218833318E+03  0.00000000000E+00 0. -1.
         22    1    1    2    0    0  0.27234464164E+02  0.25598491100E+02 -0.28390582929E+02  0.46936382306E+02  0.00000000000E+00 0.  1.
</event>
<event>
 6    1  0.1715574E-005  0.1454749E+03  0.7818608E-02  0.1260561E+00
          2   -1    0    0  502    0  0.00000000000E+00  0.00000000000E+00  0.11996979070E+04  0.11996979070E+04  0.00000000000E+00 0. -1.
          1   -1    0    0  501    0 -0.00000000000E+00 -0.00000000000E+00 -0.36665833010E+02  0.36665833010E+02  0.00000000000E+00 0. -1.
          2    1    1    2  501    0  0.12218366808E+03  0.33646648450E+02  0.13308244574E+03  0.18377127921E+03  0.00000000000E+00 0. -1.
          1    1    1    2  502    0 -0.70924780410E+02 -0.13734683648E+02  0.49603991072E+03  0.50127293867E+03  0.00000000000E+00 0. -1.
         22    1    1    2    0    0 -0.86306281105E+02  0.12244094890E+02  0.29010436400E+03  0.30291786681E+03  0.00000000000E+00 0. -1.
         22    1    1    2    0    0  0.35047393436E+02 -0.32156059692E+02  0.24380535348E+03  0.24840165528E+03  0.00000000000E+00 0. -1.
</event>
<event>
 6    1  0.1833374E-005  0.5007512E+02  0.7818608E-02  0.1501103E+00
          2   -1    0    0  502    0  0.00000000000E+00  0.00000000000E+00  0.33428756883E+03  0.33428756883E+03  0.00000000000E+00 0.  1.
          1   -1    0    0  501    0 -0.00000000000E+00 -0.00000000000E+00 -0.43200277052E+03  0.43200277052E+03  0.00000000000E+00 0.  1.
          2    1    1    2  501    0  0.17435941927E+02 -0.92108564371E+02  0.23506691782E+03  0.25307006056E+03  0.00000000000E+00 0.  1.
          1    1    1    2  502    0  0.18213011097E+02  0.94517590112E+02 -0.36642887249E+03  0.37886066991E+03  0.00000000000E+00 0.  1.
         22    1    1    2    0    0 -0.24777174650E+02 -0.60491154446E+01  0.81372579087E+02  0.85276003709E+02  0.00000000000E+00 0.  1.
         22    1    1    2    0    0 -0.10871778374E+02  0.36400897032E+01 -0.47725826110E+02  0.49083605164E+02  0.00000000000E+00 0.  1.
</event>
<event>
 6    1  0.1715574E-005  0.7225117E+02  0.7818608E-02  0.1357282E+00
          2   -1    0    0  502    0  0.00000000000E+00  0.00000000000E+00  0.12770635251E+03  0.12770635251E+03  0.00000000000E+00 0. -1.
          1   -1    0    0  501    0 -0.00000000000E+00 -0.00000000000E+00 -0.69846436687E+03  0.69846436687E+03  0.00000000000E+00 0.  1.
          2    1    1    2  501    0 -0.45494372765E+02  0.13095444822E+01  0.90562759384E+02  0.10135613572E+03  0.00000000000E+00 0. -1.
          1    1    1    2  502    0  0.41398811299E+02 -0.85176312977E+01 -0.56147267209E+03  0.56306125166E+03  0.00000000000E+00 0.  1.
         22    1    1    2    0    0  0.23601222852E+02  0.15381240866E+01 -0.12624729775E+03  0.12844362084E+03  0.00000000000E+00 0.  1.
         22    1    1    2    0    0 -0.19505661386E+02  0.56699627288E+01  0.26399196097E+02  0.33309711167E+02  0.00000000000E+00 0. -1.
</event>
<event>
 6    1  0.1715574E-005  0.8615960E+02  0.7818608E-02  0.1424151E+00
          2   -1    0    0  502    0  0.00000000000E+00  0.00000000000E+00  0.37414525464E+03  0.37414525464E+03  0.00000000000E+00 0. -1.
          1   -1    0    0  501    0 -0.00000000000E+00 -0.00000000000E+00 -0.15641863107E+03  0.15641863107E+03  0.00000000000E+00 0.  1.
          2    1    1    2  501    0  0.43150430419E+02 -0.21724912218E+02  0.17953595425E+03  0.18592226958E+03  0.00000000000E+00 0. -1.
          1    1    1    2  502    0 -0.69428773719E+02  0.38183240644E+02 -0.11713535158E+03  0.14141783861E+03  0.00000000000E+00 0.  1.
         22    1    1    2    0    0  0.31176888771E+01  0.13078321561E+02 -0.19903719230E+02  0.24019169801E+02  0.00000000000E+00 0. -1.
         22    1    1    2    0    0  0.23160654423E+02 -0.29536649986E+02  0.17522974012E+03  0.17920460772E+03  0.00000000000E+00 0. -1.
</event>
<event>
 6    1  0.1715574E-005  0.4431158E+02  0.7818608E-02  0.1479732E+00
          2   -1    0    0  502    0  0.00000000000E+00  0.00000000000E+00  0.52806746528E+02  0.52806746528E+02  0.00000000000E+00 0.  1.
          1   -1    0    0  501    0 -0.00000000000E+00 -0.00000000000E+00 -0.27654151454E+03  0.27654151454E+03  0.00000000000E+00 0.  1.
          2    1    1    2  501    0 -0.20335178997E+02  0.16383253118E+02  0.12048237528E+02  0.28759181405E+02  0.00000000000E+00 0.  1.
          1    1    1    2  502    0 -0.54306268540E+01 -0.50657451490E+02 -0.10634714087E+03  0.11792109002E+03  0.00000000000E+00 0.  1.
         22    1    1    2    0    0 -0.14272269518E+02  0.91658275259E+01  0.19832582056E+02  0.26096769578E+02  0.00000000000E+00 0.  1.
         22    1    1    2    0    0  0.40038075369E+02  0.25108370845E+02 -0.14926844672E+03  0.15657122006E+03  0.00000000000E+00 0.  1.
</event>
<event>
 6    1  0.1889390E-005  0.7578961E+02  0.7818608E-02  0.1438537E+00
          2   -1    0    0  502    0  0.00000000000E+00  0.00000000000E+00  0.58633859047E+03  0.58633859047E+03  0.00000000000E+00 0. -1.
          1   -1    0    0  501    0 -0.00000000000E+00 -0.00000000000E+00 -0.11791233437E+03  0.11791233437E+03  0.00000000000E+00 0.  1.
          2    1    1    2  501    0  0.11651160492E+03  0.55997509975E+01  0.38952996749E+03  0.40662010140E+03  0.00000000000E+00 0. -1.
          1    1    1    2  502    0 -0.63735583425E+02 -0.36130419474E+02  0.12796200657E+03  0.14745137141E+03  0.00000000000E+00 0.  1.
         22    1    1    2    0    0  0.52568381585E+01  0.11658128872E+02  0.40123026646E+02  0.42111798625E+02  0.00000000000E+00 0. -1.
         22    1    1    2    0    0 -0.58032859650E+02  0.18872539604E+02 -0.89188744601E+02  0.10806765341E+03  0.00000000000E+00 0.  1.
</event>
<event>
 6    1  0.1715574E-005  0.4942537E+02  0.7818608E-02  0.1512660E+00
          2   -1    0    0  502    0  0.00000000000E+00  0.00000000000E+00  0.10295178557E+03  0.10295178557E+03  0.00000000000E+00 0. -1.
          1   -1    0    0  501    0 -0.00000000000E+00 -0.00000000000E+00 -0.21544324883E+03  0.21544324883E+03  0.00000000000E+00 0.  1.
          2    1    1    2  501    0  0.21023756424E+02 -0.21190029455E+02  0.46238218040E+02  0.55036247056E+02  0.00000000000E+00 0. -1.
          1    1    1    2  502    0 -0.44079583907E+02  0.97699929844E+01 -0.11987563396E+03  0.12809617519E+03  0.00000000000E+00 0.  1.
         22    1    1    2    0    0  0.17443562958E+02 -0.77372721520E+01  0.45098378744E+02  0.48969450011E+02  0.00000000000E+00 0. -1.
         22    1    1    2    0    0  0.56122645251E+01  0.19157308622E+02 -0.83952426093E+02  0.86293162149E+02  0.00000000000E+00 0. -1.
</event>
<event>
 6    1  0.1715574E-005  0.7140654E+02  0.7818608E-02  0.1402631E+00
          2   -1    0    0  502    0  0.00000000000E+00  0.00000000000E+00  0.18039063387E+03  0.18039063387E+03  0.00000000000E+00 0.  1.
          1   -1    0    0  501    0 -0.00000000000E+00 -0.00000000000E+00 -0.21625508155E+03  0.21625508155E+03  0.00000000000E+00 0.  1.
          2    1    1    2  501    0  0.34669074901E+02 -0.45225948130E+02  0.10540900489E+03  0.11982649728E+03  0.00000000000E+00 0.  1.
          1    1    1    2  502    0 -0.49089330126E+02  0.24386411009E+02 -0.13540243454E+03  0.14607627683E+03  0.00000000000E+00 0.  1.
         22    1    1    2    0    0 -0.15302622210E+02  0.65230634510E+01 -0.62788826750E+02  0.64955041128E+02  0.00000000000E+00 0. -1.
         22    1    1    2    0    0  0.29722877435E+02  0.14316473670E+02  0.56917808713E+02  0.65787900179E+02  0.00000000000E+00 0.  1.
</event>
<event>
 6    1  0.1715574E-005  0.9990267E+02  0.7818608E-02  0.1298808E+00
          2   -1    0    0  502    0  0.00000000000E+00  0.00000000000E+00  0.38503013012E+03  0.38503013012E+03  0.00000000000E+00 0. -1.
          1   -1    0    0  501    0 -0.00000000000E+00 -0.00000000000E+00 -0.10346036924E+03  0.10346036924E+03  0.00000000000E+00 0. -1.
          2    1    1    2  501    0 -0.34475671911E+01 -0.21002630986E+02  0.72850320591E+02  0.75895753755E+02  0.00000000000E+00 0. -1.
          1    1    1    2  502    0 -0.58106209078E+02 -0.14934789022E+02 -0.74310170269E+02  0.95505920560E+02  0.00000000000E+00 0. -1.
         22    1    1    2    0    0  0.71577507193E+02  0.32387956914E+02  0.29248903537E+03  0.30285665768E+03  0.00000000000E+00 0. -1.
         22    1    1    2    0    0 -0.10023730924E+02  0.35494630942E+01 -0.94594248136E+01  0.14232167357E+02  0.00000000000E+00 0.  1.
</event>
<event>
 6    1  0.1715574E-005  0.1148347E+03  0.7818608E-02  0.1255459E+00
          2   -1    0    0  502    0  0.00000000000E+00  0.00000000000E+00  0.23625037672E+03  0.23625037672E+03  0.00000000000E+00 0.  1.
          1   -1    0    0  501    0 -0.00000000000E+00 -0.00000000000E+00 -0.10162720774E+03  0.10162720774E+03  0.00000000000E+00 0.  1.
          2    1    1    2  501    0  0.52050398052E+02 -0.56005189366E+02  0.14139816235E+03  0.16074596570E+03  0.00000000000E+00 0.  1.
          1    1    1    2  502    0 -0.46330454529E+02  0.23153768907E+02 -0.24349500835E+01  0.51851104264E+02  0.00000000000E+00 0.  1.
         22    1    1    2    0    0  0.27179477465E+02 -0.12570740849E+02  0.42649387098E+02  0.52112548783E+02  0.00000000000E+00 0.  1.
         22    1    1    2    0    0 -0.32899420988E+02  0.45422161308E+02 -0.46989430378E+02  0.73167965712E+02  0.00000000000E+00 0.  1.
</event>
<event>
 6    1  0.1715574E-005  0.1336264E+03  0.7818608E-02  0.1224408E+00
          2   -1    0    0  502    0  0.00000000000E+00  0.00000000000E+00  0.12605336842E+03  0.12605336842E+03  0.00000000000E+00 0. -1.
          1   -1    0    0  501    0 -0.00000000000E+00 -0.00000000000E+00 -0.17914371187E+03  0.17914371187E+03  0.00000000000E+00 0. -1.
          2    1    1    2  501    0  0.85799792208E+02  0.49891163727E+01  0.12531077379E+02  0.86853460065E+02  0.00000000000E+00 0. -1.
          1    1    1    2  502    0 -0.75243917673E+02  0.11745353184E+02 -0.33526372393E+02  0.83208281523E+02  0.00000000000E+00 0. -1.
         22    1    1    2    0    0 -0.43007901047E+02 -0.25529771874E+02 -0.68994011651E+02  0.85215153864E+02  0.00000000000E+00 0. -1.
         22    1    1    2    0    0  0.32452026512E+02  0.87953023170E+01  0.36898963211E+02  0.49920184832E+02  0.00000000000E+00 0. -1.
</event>
<event>
 6    1  0.1715574E-005  0.6297904E+02  0.7818608E-02  0.1416644E+00
          2   -1    0    0  502    0  0.00000000000E+00  0.00000000000E+00  0.48972238941E+02  0.48972238941E+02  0.00000000000E+00 0.  1.
          1   -1    0    0  501    0 -0.00000000000E+00 -0.00000000000E+00 -0.34918647432E+03  0.34918647432E+03  0.00000000000E+00 0. -1.
          2    1    1    2  501    0 -0.50676529274E+02  0.10349265957E+02  0.11220738850E+01  0.51734678649E+02  0.00000000000E+00 0.  1.
          1    1    1    2  502    0  0.18012991450E+02  0.12663574282E+02 -0.12895096393E+03  0.13081737298E+03  0.00000000000E+00 0. -1.
         22    1    1    2    0    0  0.39795872170E+02  0.14959717069E+02 -0.17178253987E+03  0.17696537961E+03  0.00000000000E+00 0. -1.
         22    1    1    2    0    0 -0.71323343465E+01 -0.37972557308E+02 -0.60280546201E+00  0.38641282020E+02  0.00000000000E+00 0.  1.
</event>
<event>
 6    1  0.1715574E-005  0.1465665E+03  0.7818608E-02  0.1206350E+00
          2   -1    0    0  502    0  0.00000000000E+00  0.00000000000E+00  0.18724827820E+03  0.18724827820E+03  0.00000000000E+00 0. -1.
          1   -1    0    0  501    0 -0.00000000000E+00 -0.00000000000E+00 -0.11516837293E+03  0.11516837293E+03  0.00000000000E+00 0. -1.
          2    1    1    2  501    0 -0.57806694042E+02 -0.73866540882E+02  0.28183417676E+02  0.97939699662E+02  0.00000000000E+00 0. -1.
          1    1    1    2  502    0  0.50341048091E+02  0.44583728714E+02  0.43807319773E+02  0.80255911026E+02  0.00000000000E+00 0. -1.
         22    1    1    2    0    0  0.95714841168E+01 -0.43170622674E+02 -0.20686290750E+02  0.48818424752E+02  0.00000000000E+00 0. -1.
         22    1    1    2    0    0 -0.21058381654E+01  0.72453434841E+02  0.20775458572E+02  0.75402615694E+02  0.00000000000E+00 0. -1.
</event>
<event>
 6    1  0.1715574E-005  0.1330470E+03  0.7818608E-02  0.1290969E+00
          2   -1    0    0  502    0  0.00000000000E+00  0.00000000000E+00  0.40300768863E+02  0.40300768863E+02  0.00000000000E+00 0.  1.
          1   -1    0    0  501    0 -0.00000000000E+00 -0.00000000000E+00 -0.61482508762E+03  0.61482508762E+03  0.00000000000E+00 0.  1.
          2    1    1    2  501    0 -0.10984430609E+03  0.20474202908E+02 -0.30186377896E+03  0.32187995528E+03  0.00000000000E+00 0.  1.
          1    1    1    2  502    0  0.45546933750E+02 -0.23399735107E+02 -0.64610480628E+02  0.82441403336E+02  0.00000000000E+00 0.  1.
         22    1    1    2    0    0 -0.20312060206E+02 -0.28156550417E+02 -0.15142755277E+02  0.37877092794E+02  0.00000000000E+00 0.  1.
         22    1    1    2    0    0  0.84609432543E+02  0.31082082615E+02 -0.19290730389E+03  0.21292740507E+03  0.00000000000E+00 0.  1.
</event>
<event>
 6    1  0.1715574E-005  0.8244364E+02  0.7818608E-02  0.1343641E+00
          2   -1    0    0  502    0  0.00000000000E+00  0.00000000000E+00  0.28994865943E+03  0.28994865943E+03  0.00000000000E+00 0.  1.
          1   -1    0    0  501    0 -0.00000000000E+00 -0.00000000000E+00 -0.11372712806E+03  0.11372712806E+03  0.00000000000E+00 0.  1.
          2    1    1    2  501    0 -0.30756173765E+02  0.72791771073E+01  0.23520390181E+03  0.23731793879E+03  0.00000000000E+00 0.  1.
          1    1    1    2  502    0  0.13205481775E+02  0.21582032457E+02 -0.96845682892E+01  0.27091691288E+02  0.00000000000E+00 0.  1.
         22    1    1    2    0    0 -0.14320634241E+02  0.90317552469E+01  0.36483291662E+02  0.40220439312E+02  0.00000000000E+00 0.  1.
         22    1    1    2    0    0  0.31871326231E+02 -0.37892964811E+02 -0.85781093813E+02  0.99045718099E+02  0.00000000000E+00 0.  1.
</event>
<event>
 6    1  0.1715574E-005  0.7998061E+02  0.7818608E-02  0.1340469E+00
          2   -1    0    0  502    0  0.00000000000E+00  0.00000000000E+00  0.83698226907E+02  0.83698226907E+02  0.00000000000E+00 0.  1.
          1   -1    0    0  501    0 -0.00000000000E+00 -0.00000000000E+00 -0.23543266994E+03  0.23543266994E+03  0.00000000000E+00 0. -1.
          2    1    1    2  501    0  0.29103551179E+02 -0.89482764279E+01  0.37079153175E+02  0.47978661324E+02  0.00000000000E+00 0.  1.
          1    1    1    2  502    0  0.45455876353E+01  0.30344400506E+02 -0.12547341382E+03  0.12917051747E+03  0.00000000000E+00 0. -1.
         22    1    1    2    0    0  0.98661496694E+01 -0.32741212705E+02  0.25333243388E+02  0.42557033958E+02  0.00000000000E+00 0.  1.
         22    1    1    2    0    0 -0.43515288484E+02  0.11345088628E+02 -0.88673425772E+02  0.99424684088E+02  0.00000000000E+00 0.  1.
</event>
<event>
 6    1  0.1715574E-005  0.1033144E+03  0.7818608E-02  0.1275634E+00
          2   -1    0    0  502    0  0.00000000000E+00  0.00000000000E+00  0.69522163525E+02  0.69522163525E+02  0.00000000000E+00 0. -1.
          1   -1    0    0  501    0 -0.00000000000E+00 -0.00000000000E+00 -0.20353050328E+03  0.20353050328E+03  0.00000000000E+00 0. -1.
          2    1    1    2  501    0 -0.42414775905E+02 -0.25086770758E+02 -0.23873566630E+02  0.54756793787E+02  0.00000000000E+00 0. -1.
          1    1    1    2  502    0 -0.92647882545E+00  0.38559465757E+02 -0.72924678777E+02  0.82496663795E+02  0.00000000000E+00 0. -1.
         22    1    1    2    0    0 -0.91104206176E+01 -0.39000775153E+02  0.27571861845E+02  0.48623736919E+02  0.00000000000E+00 0. -1.
         22    1    1    2    0    0  0.52451675348E+02  0.25528080154E+02 -0.64781956188E+02  0.87175472300E+02  0.00000000000E+00 0. -1.
</event>
<event>
 6    1  0.1715574E-005  0.4136311E+02  0.7818608E-02  0.1499897E+00
          2   -1    0    0  502    0  0.00000000000E+00  0.00000000000E+00  0.23031822319E+03  0.23031822319E+03  0.00000000000E+00 0. -1.
          1   -1    0    0  501    0 -0.00000000000E+00 -0.00000000000E+00 -0.13555762793E+03  0.13555762793E+03  0.00000000000E+00 0.  1.
          2    1    1    2  501    0 -0.14184152541E+02 -0.15962185799E+02  0.11713853277E+03  0.11906896077E+03  0.00000000000E+00 0. -1.
          1    1    1    2  502    0  0.14730919296E+02  0.23121983366E+02 -0.95748172155E+02  0.99595876266E+02  0.00000000000E+00 0.  1.
         22    1    1    2    0    0 -0.29723174977E+01 -0.19786388346E+02  0.10822571711E+03  0.11005971869E+03  0.00000000000E+00 0.  1.
         22    1    1    2    0    0  0.24255507435E+01  0.12626590778E+02 -0.34855482468E+02  0.37151295390E+02  0.00000000000E+00 0.  1.
</event>
<event>
 6    1  0.1715574E-005  0.7933308E+02  0.7818608E-02  0.1331068E+00
          2   -1    0    0  502    0  0.00000000000E+00  0.00000000000E+00  0.27448523157E+03  0.27448523157E+03  0.00000000000E+00 0. -1.
          1   -1    0    0  501    0 -0.00000000000E+00 -0.00000000000E+00 -0.11873414637E+03  0.11873414637E+03  0.00000000000E+00 0.  1.
          2    1    1    2  501    0 -0.37341942331E+02  0.23354759625E+02  0.11345533830E+03  0.12170447503E+03  0.00000000000E+00 0. -1.
          1    1    1    2  502    0  0.51442296431E+02 -0.42375146987E+02 -0.73596557122E+02  0.99289557178E+02  0.00000000000E+00 0.  1.
         22    1    1    2    0    0  0.10420525955E+02 -0.28868845018E+01 -0.25163145307E+02  0.27388051136E+02  0.00000000000E+00 0.  1.
         22    1    1    2    0    0 -0.24520880055E+02  0.21907271864E+02  0.14105544933E+03  0.14483729459E+03  0.00000000000E+00 0.  1.
</event>
<event>
 6    1  0.1715574E-005  0.1251206E+03  0.7818608E-02  0.1283949E+00
          2   -1    0    0  502    0  0.00000000000E+00  0.00000000000E+00  0.14327150163E+03  0.14327150163E+03  0.00000000000E+00 0.  1.
          1   -1    0    0  501    0 -0.00000000000E+00 -0.00000000000E+00 -0.20232726922E+03  0.20232726922E+03  0.00000000000E+00 0.  1.
          2    1    1    2  501    0 -0.28749472159E+02 -0.51552097805E+00  0.20783028649E+02  0.35478615970E+02  0.00000000000E+00 0.  1.
          1    1    1    2  502    0 -0.47456630194E+02 -0.10414840810E+03 -0.49995389933E+02  0.12489420193E+03  0.00000000000E+00 0.  1.
         22    1    1    2    0    0  0.93098773702E+02  0.10686917442E+03 -0.57329019601E+02  0.15288890933E+03  0.00000000000E+00 0.  1.
         22    1    1    2    0    0 -0.16892671349E+02 -0.22052453399E+01  0.27485613296E+02  0.32337043628E+02  0.00000000000E+00 0. -1.
</event>
<event>
 6    1  0.1715574E-005  0.9288919E+02  0.7818608E-02  0.1383981E+00
          2   -1    0    0  502    0  0.00000000000E+00  0.00000000000E+00  0.73540647823E+03  0.73540647823E+03  0.00000000000E+00 0.  1.
          1   -1    0    0  501    0 -0.00000000000E+00 -0.00000000000E+00 -0.39608460498E+03  0.39608460498E+03  0.00000000000E+00 0.  1.
          2    1    1    2  501    0 -0.32098393620E+02 -0.87413916215E+02  0.71281221722E+03  0.71886908171E+03  0.00000000000E+00 0.  1.
          1    1    1    2  502    0  0.25917624359E+02  0.34882521027E+01 -0.74188874407E+02  0.78663080545E+02  0.00000000000E+00 0.  1.
         22    1    1    2    0    0  0.17631416285E+02  0.67290171955E+02 -0.30511441984E+03  0.31294351452E+03  0.00000000000E+00 0.  1.
         22    1    1    2    0    0 -0.11450647023E+02  0.16635492157E+02  0.58129502802E+01  0.21015406433E+02  0.00000000000E+00 0.  1.
</event>
<event>
 6    1  0.1715574E-005  0.1077409E+03  0.7818608E-02  0.1266487E+00
          2   -1    0    0  502    0  0.00000000000E+00  0.00000000000E+00  0.24345256385E+03  0.24345256385E+03  0.00000000000E+00 0.  1.
          1   -1    0    0  501    0 -0.00000000000E+00 -0.00000000000E+00 -0.16637071659E+03  0.16637071659E+03  0.00000000000E+00 0.  1.
          2    1    1    2  501    0 -0.29661827836E+02 -0.69925497087E+02  0.14380185191E+03  0.16262955385E+03  0.00000000000E+00 0.  1.
          1    1    1    2  502    0  0.12574233790E+02  0.78427136561E+02 -0.85070170251E+02  0.11638668726E+03  0.00000000000E+00 0.  1.
         22    1    1    2    0    0  0.17501395407E+02  0.19209512574E+02 -0.50386770581E+02  0.56693305284E+02  0.00000000000E+00 0. -1.
         22    1    1    2    0    0 -0.41380136072E+00 -0.27711152048E+02  0.68736936175E+02  0.74113734045E+02  0.00000000000E+00 0. -1.
</event>
<event>
 6    1  0.1715574E-005  0.1881169E+03  0.7818608E-02  0.1190175E+00
          2   -1    0    0  502    0  0.00000000000E+00  0.00000000000E+00  0.35541988423E+03  0.35541988423E+03  0.00000000000E+00 0. -1.
          1   -1    0    0  501    0 -0.00000000000E+00 -0.00000000000E+00 -0.65308451864E+02  0.65308451864E+02  0.00000000000E+00 0. -1.
          2    1    1    2  501    0  0.22902649969E+02 -0.87614652171E+01 -0.22728702077E+02  0.33434840308E+02  0.00000000000E+00 0. -1.
          1    1    1    2  502    0 -0.38406751489E+02 -0.57548636592E+02  0.39950877701E+02  0.79893659089E+02  0.00000000000E+00 0. -1.
         22    1    1    2    0    0  0.10361259224E+02  0.14286361757E+02 -0.96163539730E+01  0.20098012059E+02  0.00000000000E+00 0. -1.
         22    1    1    2    0    0  0.51428422958E+01  0.52023740051E+02  0.28250561071E+03  0.28730182463E+03  0.00000000000E+00 0. -1.
</event>
<event>
 6    1  0.1715574E-005  0.4650355E+02  0.7818608E-02  0.1500857E+00
          2   -1    0    0  502    0  0.00000000000E+00  0.00000000000E+00  0.21585711392E+03  0.21585711392E+03  0.00000000000E+00 0.  1.
          1   -1    0    0  501    0 -0.00000000000E+00 -0.00000000000E+00 -0.17605601558E+03  0.17605601558E+03  0.00000000000E+00 0. -1.
          2    1    1    2  501    0  0.15461333691E+02 -0.27002898609E+02  0.11696896948E+03  0.12103697449E+03  0.00000000000E+00 0.  1.
          1    1    1    2  502    0 -0.61406714307E+01  0.66220835803E+02 -0.11908667710E+03  0.13639847361E+03  0.00000000000E+00 0. -1.
         22    1    1    2    0    0  0.27581454999E+01 -0.13796419646E+02  0.83273713219E+02  0.84453892006E+02  0.00000000000E+00 0. -1.
         22    1    1    2    0    0 -0.12078807760E+02 -0.25421517548E+02 -0.41354907258E+02  0.50023789397E+02  0.00000000000E+00 0.  1.
</event>
<event>
 6    1  0.1715574E-005  0.1621706E+03  0.7818608E-02  0.1253864E+00
          2   -1    0    0  502    0  0.00000000000E+00  0.00000000000E+00  0.17443261019E+03  0.17443261019E+03  0.00000000000E+00 0. -1.
          1   -1    0    0  501    0 -0.00000000000E+00 -0.00000000000E+00 -0.23195928525E+03  0.23195928525E+03  0.00000000000E+00 0.  1.
          2    1    1    2  501    0 -0.11396928170E+03 -0.68003592410E+02  0.17433761665E+02  0.13385597409E+03  0.00000000000E+00 0. -1.
          1    1    1    2  502    0  0.10076387513E+03 -0.47075267555E+01 -0.74283845051E+02  0.12527413530E+03  0.00000000000E+00 0.  1.
         22    1    1    2    0    0 -0.32918729254E+02  0.21262762581E+02  0.48572265475E+02  0.62410037507E+02  0.00000000000E+00 0.  1.
         22    1    1    2    0    0  0.46124135833E+02  0.51448356584E+02 -0.49248857143E+02  0.84851748547E+02  0.00000000000E+00 0. -1.
</event>
<event>
 6    1  0.1715574E-005  0.1112937E+03  0.7818608E-02  0.1271912E+00
          2   -1    0    0  502    0  0.00000000000E+00  0.00000000000E+00  0.23918252162E+03  0.23918252162E+03  0.00000000000E+00 0.  1.
          1   -1    0    0  501    0 -0.00000000000E+00 -0.00000000000E+00 -0.50211631931E+02  0.50211631931E+02  0.00000000000E+00 0.  1.
          2    1    1    2  501    0 -0.19407498451E+02 -0.55317193320E+01 -0.18872114341E+02  0.27629831969E+02  0.00000000000E+00 0.  1.
          1    1    1    2  502    0  0.26929164112E+02  0.22539393543E+02  0.65421026513E+02  0.74250352532E+02  0.00000000000E+00 0.  1.
         22    1    1    2    0    0 -0.28973867346E+02 -0.62115496036E+02  0.59768208908E+02  0.90939862727E+02  0.00000000000E+00 0.  1.
         22    1    1    2    0    0  0.21452201685E+02  0.45107821825E+02  0.82653768612E+02  0.96574106326E+02  0.00000000000E+00 0.  1.
</event>
<event>
 6    1  0.1715574E-005  0.1156655E+03  0.7818608E-02  0.1299941E+00
          2   -1    0    0  502    0  0.00000000000E+00  0.00000000000E+00  0.54515419248E+02  0.54515419248E+02  0.00000000000E+00 0.  1.
          1   -1    0    0  501    0 -0.00000000000E+00 -0.00000000000E+00 -0.19121128079E+03  0.19121128079E+03  0.00000000000E+00 0.  1.
          2    1    1    2  501    0 -0.23011592622E+02  0.75693245379E+01  0.79325392093E+00  0.24237518865E+02  0.00000000000E+00 0.  1.
          1    1    1    2  502    0  0.16727273234E+02  0.17878250267E+02  0.81629139124E+01  0.25808267397E+02  0.00000000000E+00 0.  1.
         22    1    1    2    0    0 -0.14116099161E+02  0.38417855146E+01  0.20808495784E+02  0.25436530193E+02  0.00000000000E+00 0.  1.
         22    1    1    2    0    0  0.20400418549E+02 -0.29289360320E+02 -0.16646052516E+03  0.17024438359E+03  0.00000000000E+00 0.  1.
</event>
<event>
 6    1  0.1715574E-005  0.6683177E+02  0.7818608E-02  0.1371304E+00
          2   -1    0    0  502    0  0.00000000000E+00  0.00000000000E+00  0.36495923013E+02  0.36495923013E+02  0.00000000000E+00 0. -1.
          1   -1    0    0  501    0 -0.00000000000E+00 -0.00000000000E+00 -0.35156628285E+03  0.35156628285E+03  0.00000000000E+00 0. -1.
          2    1    1    2  501    0 -0.26656053219E+02 -0.21521689285E+02 -0.63470200935E+01  0.34842688572E+02  0.00000000000E+00 0. -1.
          1    1    1    2  502    0  0.27337395584E+02  0.23905792001E+02 -0.14352069929E+03  0.14804395028E+03  0.00000000000E+00 0. -1.
         22    1    1    2    0    0 -0.19161597445E+02 -0.25025851963E+02  0.54944775675E+01  0.31994520888E+02  0.00000000000E+00 0. -1.
         22    1    1    2    0    0  0.18480255080E+02  0.22641749247E+02 -0.17069711801E+03  0.17318104612E+03  0.00000000000E+00 0. -1.
</event>
<event>
 6    1  0.1715574E-005  0.1259816E+03  0.7818608E-02  0.1233907E+00
          2   -1    0    0  502    0  0.00000000000E+00  0.00000000000E+00  0.39802125270E+02  0.39802125270E+02  0.00000000000E+00 0.  1.
          1   -1    0    0  501    0 -0.00000000000E+00 -0.00000000000E+00 -0.57800205975E+03  0.57800205975E+03  0.00000000000E+00 0.  1.
          2    1    1    2  501    0  0.40707989996E+02  0.75745814888E+02 -0.64246995643E+02  0.10734172242E+03  0.00000000000E+00 0.  1.
          1    1    1    2  502    0 -0.38014905842E+02 -0.28780447887E+02 -0.20352627110E+03  0.20903681560E+03  0.00000000000E+00 0.  1.
         22    1    1    2    0    0  0.32672822953E+02  0.21366509794E+02 -0.30729944979E+02  0.49682699392E+02  0.00000000000E+00 0. -1.
         22    1    1    2    0    0 -0.35365907107E+02 -0.68331876795E+02 -0.23969672276E+03  0.25174294761E+03  0.00000000000E+00 0.  1.
</event>
<event>
 6    1  0.1715574E-005  0.7212875E+02  0.7818608E-02  0.1354114E+00
          2   -1    0    0  502    0  0.00000000000E+00  0.00000000000E+00  0.65651127900E+03  0.65651127900E+03  0.00000000000E+00 0.  1.
          1   -1    0    0  501    0 -0.00000000000E+00 -0.00000000000E+00 -0.59280504303E+02  0.59280504303E+02  0.00000000000E+00 0.  1.
          2    1    1    2  501    0  0.11593265218E+03 -0.34861907481E+01  0.25218037871E+03  0.27757427253E+03  0.00000000000E+00 0.  1.
          1    1    1    2  502    0 -0.11812618035E+03  0.42376907603E+02  0.10832624992E+03  0.16578351307E+03  0.00000000000E+00 0.  1.
         22    1    1    2    0    0 -0.35154111372E+02 -0.21295490816E+02  0.10428976537E+02  0.42403691195E+02  0.00000000000E+00 0.  1.
         22    1    1    2    0    0  0.37347639541E+02 -0.17595226040E+02  0.22629516953E+03  0.23003030651E+03  0.00000000000E+00 0.  1.
</event>
<event>
 6    1  0.1715574E-005  0.5779707E+02  0.7818608E-02  0.1433293E+00
          2   -1    0    0  502    0  0.00000000000E+00  0.00000000000E+00  0.17099885149E+03  0.17099885149E+03  0.00000000000E+00 0. -1.
          1   -1    0    0  501    0 -0.00000000000E+00 -0.00000000000E+00 -0.15252603125E+03  0.15252603125E+03  0.00000000000E+00 0. -1.
          2    1    1    2  501    0 -0.16827553564E+02 -0.16534968875E+02  0.12374912813E+03  0.12597784911E+03  0.00000000000E+00 0. -1.
          1    1    1    2  502    0  0.20977890376E+02 -0.12904479544E+02 -0.49680759282E+02  0.55450656622E+02  0.00000000000E+00 0. -1.
         22    1    1    2    0    0  0.94720130045E+01  0.30900085518E+02 -0.95016419730E+02  0.10036261422E+03  0.00000000000E+00 0. -1.
         22    1    1    2    0    0 -0.13622349817E+02 -0.14606370993E+01  0.39420871127E+02  0.41733762779E+02  0.00000000000E+00 0. -1.
</event>
<event>
 6    1  0.1715574E-005  0.8142630E+02  0.7818608E-02  0.1326301E+00
          2   -1    0    0  502    0  0.00000000000E+00  0.00000000000E+00  0.55240011250E+02  0.55240011250E+02  0.00000000000E+00 0.  1.
          1   -1    0    0  501    0 -0.00000000000E+00 -0.00000000000E+00 -0.33794310247E+03  0.33794310247E+03  0.00000000000E+00 0.  1.
          2    1    1    2  501    0  0.90878976609E+01 -0.20373725061E+02 -0.56899514435E+01  0.23022903904E+02  0.00000000000E+00 0.  1.
          1    1    1    2  502    0 -0.32928728456E+02  0.53468181362E+02 -0.22048460196E+03  0.22925227868E+03  0.00000000000E+00 0.  1.
         22    1    1    2    0    0 -0.25908072835E+01  0.15971775870E+02 -0.79129603184E+02  0.80766973491E+02  0.00000000000E+00 0.  1.
         22    1    1    2    0    0  0.26431638079E+02 -0.49066232171E+02  0.22601065370E+02  0.60140957648E+02  0.00000000000E+00 0.  1.
</event>
<event>
 6    1  0.1715574E-005  0.1098556E+03  0.7818608E-02  0.1271142E+00
          2   -1    0    0  502    0  0.00000000000E+00  0.00000000000E+00  0.27412826549E+02  0.27412826549E+02  0.00000000000E+00 0.  1.
          1   -1    0    0  501    0 -0.00000000000E+00 -0.00000000000E+00 -0.37327131608E+03  0.37327131608E+03  0.00000000000E+00 0.  1.
          2    1    1    2  501    0  0.27477733364E+02 -0.11378345203E+02 -0.39389230577E+02  0.49355891805E+02  0.00000000000E+00 0.  1.
          1    1    1    2  502    0 -0.66708718578E+01  0.40328253569E+02 -0.58207287091E+02  0.71126344190E+02  0.00000000000E+00 0.  1.
         22    1    1    2    0    0  0.19225805178E+02  0.40339125397E+02 -0.12952268226E+03  0.13701460448E+03  0.00000000000E+00 0. -1.
         22    1    1    2    0    0 -0.40032666684E+02 -0.69289033762E+02 -0.11873928961E+03  0.14318730215E+03  0.00000000000E+00 0.  1.
</event>
<event>
 6    1  0.1715574E-005  0.1684952E+03  0.7818608E-02  0.1182363E+00
          2   -1    0    0  502    0  0.00000000000E+00  0.00000000000E+00  0.21166780100E+03  0.21166780100E+03  0.00000000000E+00 0.  1.
          1   -1    0    0  501    0 -0.00000000000E+00 -0.00000000000E+00 -0.12656087703E+03  0.12656087703E+03  0.00000000000E+00 0.  1.
          2    1    1    2  501    0 -0.23594381932E+02 -0.88845661316E+02  0.36392302573E+02  0.98866809800E+02  0.00000000000E+00 0.  1.
          1    1    1    2  502    0 -0.55354400098E+01  0.10728196743E+03  0.32266030662E+02  0.11216576290E+03  0.00000000000E+00 0.  1.
         22    1    1    2    0    0  0.40389865823E+02 -0.64757897756E+02  0.21411965905E+02  0.79267893039E+02  0.00000000000E+00 0.  1.
         22    1    1    2    0    0 -0.11260043881E+02  0.46321591638E+02 -0.49633751732E+01  0.47928212289E+02  0.00000000000E+00 0.  1.
</event>
<event>
 6    1  0.1715574E-005  0.6930962E+02  0.7818608E-02  0.1362696E+00
          2   -1    0    0  502    0  0.00000000000E+00  0.00000000000E+00  0.16790813452E+03  0.16790813452E+03  0.00000000000E+00 0. -1.
          1   -1    0    0  501    0 -0.00000000000E+00 -0.00000000000E+00 -0.11393228386E+03  0.11393228386E+03  0.00000000000E+00 0.  1.
          2    1    1    2  501    0 -0.20082730744E+02  0.97328010579E+01  0.51846857192E+02  0.56445904114E+02  0.00000000000E+00 0. -1.
          1    1    1    2  502    0  0.39914965196E+02 -0.30197865450E+02 -0.63381649412E+02  0.80761061202E+02  0.00000000000E+00 0.  1.
         22    1    1    2    0    0 -0.30347852127E+02  0.35771617396E+02  0.97186179404E+02  0.10791549568E+03  0.00000000000E+00 0. -1.
         22    1    1    2    0    0  0.10515617675E+02 -0.15306553004E+02 -0.31675536525E+02  0.36717957380E+02  0.00000000000E+00 0. -1.
</event>
<event>
 6    1  0.1715574E-005  0.5616897E+02  0.7818608E-02  0.1457151E+00
          2   -1    0    0  502    0  0.00000000000E+00  0.00000000000E+00  0.31400728978E+03  0.31400728978E+03  0.00000000000E+00 0.  1.
          1   -1    0    0  501    0 -0.00000000000E+00 -0.00000000000E+00 -0.12957266142E+03  0.12957266142E+03  0.00000000000E+00 0. -1.
          2    1    1    2  501    0  0.91445144283E+02  0.23798773987E+02  0.20240186138E+03  0.22337213243E+03  0.00000000000E+00 0.  1.
          1    1    1    2  502    0 -0.76136367954E+02 -0.89837959761E+01 -0.49525128044E+02  0.91269893301E+02  0.00000000000E+00 0. -1.
         22    1    1    2    0    0 -0.11508793492E+02 -0.32296650561E+02 -0.41437165920E+02  0.53782568594E+02  0.00000000000E+00 0. -1.
         22    1    1    2    0    0 -0.37999828366E+01  0.17481672549E+02  0.72995060940E+02  0.75155356870E+02  0.00000000000E+00 0.  1.
</event>
<event>
 6    1  0.1715574E-005  0.7904970E+02  0.7818608E-02  0.1375654E+00
          2   -1    0    0  502    0  0.00000000000E+00  0.00000000000E+00  0.42515361207E+03  0.42515361207E+03  0.00000000000E+00 0. -1.
          1   -1    0    0  501    0 -0.00000000000E+00 -0.00000000000E+00 -0.27665252724E+02  0.27665252724E+02  0.00000000000E+00 0.  1.
          2    1    1    2  501    0  0.19623837616E+02 -0.14364081918E+02  0.15785315261E+03  0.15971549593E+03  0.00000000000E+00 0. -1.
          1    1    1    2  502    0  0.15301795075E+02 -0.14322722014E+02 -0.87081427825E-01  0.20959314912E+02  0.00000000000E+00 0.  1.
         22    1    1    2    0    0 -0.31625732914E+02  0.43517423540E+02  0.24873016959E+03  0.25448113957E+03  0.00000000000E+00 0. -1.
         22    1    1    2    0    0 -0.32998997766E+01 -0.14830619607E+02 -0.90078814262E+01  0.17662914376E+02  0.00000000000E+00 0.  1.
</event>
<event>
 6    1  0.1715574E-005  0.8372794E+02  0.7818608E-02  0.1319307E+00
          2   -1    0    0  502    0  0.00000000000E+00  0.00000000000E+00  0.23729465962E+03  0.23729465962E+03  0.00000000000E+00 0.  1.
          1   -1    0    0  501    0 -0.00000000000E+00 -0.00000000000E+00 -0.52548109391E+02  0.52548109391E+02  0.00000000000E+00 0.  1.
          2    1    1    2  501    0  0.45310803981E+02 -0.12061913166E+02  0.85611847058E+02  0.97611203575E+02  0.00000000000E+00 0.  1.
          1    1    1    2  502    0 -0.30947031285E+02 -0.37672110904E+01  0.24808495756E+00  0.31176468224E+02  0.00000000000E+00 0.  1.
         22    1    1    2    0    0  0.34846079979E+02 -0.11232949626E-01  0.10344658598E+03  0.10915789283E+03  0.00000000000E+00 0.  1.
         22    1    1    2    0    0 -0.49209852675E+02  0.15840357207E+02 -0.45599677663E+01  0.51897204383E+02  0.00000000000E+00 0. -1.
</event>
<event>
 6    1  0.1715574E-005  0.9033100E+02  0.7818608E-02  0.1334482E+00
          2   -1    0    0  502    0  0.00000000000E+00  0.00000000000E+00  0.42032971193E+02  0.42032971193E+02  0.00000000000E+00 0. -1.
          1   -1    0    0  501    0 -0.00000000000E+00 -0.00000000000E+00 -0.51996025444E+03  0.51996025444E+03  0.00000000000E+00 0. -1.
          2    1    1    2  501    0  0.41523906837E+01  0.30897191810E+02  0.15533719909E+02  0.34830665575E+02  0.00000000000E+00 0. -1.
          1    1    1    2  502    0 -0.29871481337E+02  0.13860751357E+02 -0.19869738705E+03  0.20140773929E+03  0.00000000000E+00 0. -1.
         22    1    1    2    0    0  0.10419228128E+02 -0.56248041691E+02 -0.30040769003E+03  0.30580579252E+03  0.00000000000E+00 0. -1.
         22    1    1    2    0    0  0.15299862526E+02  0.11490098523E+02  0.56440739293E+01  0.19949028245E+02  0.00000000000E+00 0. -1.
</event>
<event>
 6    1  0.1715574E-005  0.1514602E+03  0.7818608E-02  0.1199045E+00
          2   -1    0    0  502    0  0.00000000000E+00  0.00000000000E+00  0.36894978762E+03  0.36894978762E+03  0.00000000000E+00 0.  1.
          1   -1    0    0  501    0 -0.00000000000E+00 -0.00000000000E+00 -0.27671291635E+03  0.27671291635E+03  0.00000000000E+00 0.  1.
          2    1    1    2  501    0 -0.11006285134E+03 -0.56183800658E+02  0.26009427573E+03  0.28795743256E+03  0.00000000000E+00 0.  1.
          1    1    1    2  502    0  0.11102032834E+03  0.52940245887E+02 -0.19754950528E+03  0.23271009857E+03  0.00000000000E+00 0.  1.
         22    1    1    2    0    0 -0.15181465899E+02 -0.21300916033E+02  0.70556618154E+02  0.75249201298E+02  0.00000000000E+00 0.  1.
         22    1    1    2    0    0  0.14223988893E+02  0.24544470804E+02 -0.40864517341E+02  0.49745971541E+02  0.00000000000E+00 0. -1.
</event>
<event>
 6    1  0.1715574E-005  0.1717257E+03  0.7818608E-02  0.1178467E+00
          2   -1    0    0  502    0  0.00000000000E+00  0.00000000000E+00  0.23589282036E+03  0.23589282036E+03  0.00000000000E+00 0. -1.
          1   -1    0    0  501    0 -0.00000000000E+00 -0.00000000000E+00 -0.12946331250E+03  0.12946331250E+03  0.00000000000E+00 0. -1.
          2    1    1    2  501    0  0.11798921435E+02  0.67486880630E+02  0.64930694407E+02  0.94391147257E+02  0.00000000000E+00 0. -1.
          1    1    1    2  502    0 -0.81905249340E+02 -0.90636696912E+02 -0.34142719911E+01  0.12220940205E+03  0.00000000000E+00 0. -1.
         22    1    1    2    0    0 -0.69931253876E+01 -0.39767989463E+02  0.21282575351E+01  0.40434221506E+02  0.00000000000E+00 0.  1.
         22    1    1    2    0    0  0.77099453293E+02  0.62917805745E+02  0.42784827909E+02  0.10832136205E+03  0.00000000000E+00 0. -1.
</event>
<event>
 6    1  0.1715574E-005  0.9506986E+02  0.7818608E-02  0.1292229E+00
          2   -1    0    0  502    0  0.00000000000E+00  0.00000000000E+00  0.18543843801E+02  0.18543843801E+02  0.00000000000E+00 0. -1.
          1   -1    0    0  501    0 -0.00000000000E+00 -0.00000000000E+00 -0.68202006833E+03  0.68202006833E+03  0.00000000000E+00 0. -1.
          2    1    1    2  501    0  0.33975314953E+01 -0.37828626188E+02 -0.70616177649E+02  0.80182246946E+02  0.00000000000E+00 0. -1.
          1    1    1    2  502    0 -0.75575619144E+01  0.45601840966E+02 -0.29262655860E+03  0.29625486905E+03  0.00000000000E+00 0. -1.
         22    1    1    2    0    0  0.21285250346E+02  0.43087717688E+02 -0.23398073196E+03  0.23886522608E+03  0.00000000000E+00 0. -1.
         22    1    1    2    0    0 -0.17125219927E+02 -0.50860932465E+02 -0.66252756325E+02  0.85261570062E+02  0.00000000000E+00 0. -1.
</event>
<event>
 6    1  0.1715574E-005  0.1141901E+03  0.7818608E-02  0.1253432E+00
          2   -1    0    0  502    0  0.00000000000E+00  0.00000000000E+00  0.86850295376E+02  0.86850295376E+02  0.00000000000E+00 0. -1.
          1   -1    0    0  501    0 -0.00000000000E+00 -0.00000000000E+00 -0.48873660685E+03  0.48873660685E+03  0.00000000000E+00 0. -1.
          2    1    1    2  501    0 -0.14482604064E+02 -0.94057887117E+02  0.23969492974E+02  0.98138517122E+02  0.00000000000E+00 0. -1.
          1    1    1    2  502    0  0.31311383454E+01  0.63183117520E+02 -0.26974844004E+03  0.27706701584E+03  0.00000000000E+00 0. -1.
         22    1    1    2    0    0 -0.97199843401E+01 -0.13796014628E+02  0.14820784819E+02  0.22460271099E+02  0.00000000000E+00 0.  1.
         22    1    1    2    0    0  0.21071450059E+02  0.44670784226E+02 -0.17092814923E+03  0.17792109816E+03  0.00000000000E+00 0. -1.
</event>
<event>
 6    1  0.1715574E-005  0.1091132E+03  0.7818608E-02  0.1359991E+00
          2   -1    0    0  502    0  0.00000000000E+00  0.00000000000E+00  0.30237918413E+03  0.30237918413E+03  0.00000000000E+00 0. -1.
          1   -1    0    0  501    0 -0.00000000000E+00 -0.00000000000E+00 -0.26559602613E+03  0.26559602613E+03  0.00000000000E+00 0. -1.
          2    1    1    2  501    0  0.18701785766E+02  0.81607340713E+02  0.20288099406E+03  0.21947713457E+03  0.00000000000E+00 0. -1.
          1    1    1    2  502    0 -0.21350936601E+00 -0.11770298797E+03 -0.17993666024E+03  0.21501451267E+03  0.00000000000E+00 0. -1.
         22    1    1    2    0    0 -0.18095247075E+01  0.18425453190E+02 -0.56294211497E+02  0.59260526095E+02  0.00000000000E+00 0. -1.
         22    1    1    2    0    0 -0.16678751692E+02  0.17670194064E+02  0.70133035674E+02  0.74223036917E+02  0.00000000000E+00 0. -1.
</event>
<event>
 6    1  0.1715574E-005  0.1176751E+03  0.7818608E-02  0.1249061E+00
          2   -1    0    0  502    0  0.00000000000E+00  0.00000000000E+00  0.10535895452E+04  0.10535895452E+04  0.00000000000E+00 0.  1.
          1   -1    0    0  501    0 -0.00000000000E+00 -0.00000000000E+00 -0.13585239244E+02  0.13585239244E+02  0.00000000000E+00 0.  1.
          2    1    1    2  501    0  0.18626827435E+02  0.62925521386E+02  0.17855608390E+03  0.19023368534E+03  0.00000000000E+00 0.  1.
          1    1    1    2  502    0 -0.27138663799E+02 -0.21872587537E+02  0.19547590883E+03  0.19855918032E+03  0.00000000000E+00 0.  1.
         22    1    1    2    0    0  0.17897372798E+02  0.41223945800E+02  0.18863110633E+03  0.19391086596E+03  0.00000000000E+00 0. -1.
         22    1    1    2    0    0 -0.93855364346E+01 -0.82276879650E+02  0.47734120694E+03  0.48447105286E+03  0.00000000000E+00 0.  1.
</event>
<event>
 6    1  0.1715574E-005  0.7593468E+02  0.7818608E-02  0.1341087E+00
          2   -1    0    0  502    0  0.00000000000E+00  0.00000000000E+00  0.41458072110E+03  0.41458072110E+03  0.00000000000E+00 0.  1.
          1   -1    0    0  501    0 -0.00000000000E+00 -0.00000000000E+00 -0.30285424362E+03  0.30285424362E+03  0.00000000000E+00 0.  1.
          2    1    1    2  501    0  0.47068071031E+02 -0.35000090068E+02  0.32889786603E+03  0.33408713818E+03  0.00000000000E+00 0.  1.
          1    1    1    2  502    0 -0.51076982250E+02  0.26207407608E+02 -0.24528671254E+03  0.25191517953E+03  0.00000000000E+00 0.  1.
         22    1    1    2    0    0 -0.12719532799E+02  0.11832985695E+02 -0.49248349910E+02  0.52222658243E+02  0.00000000000E+00 0.  1.
         22    1    1    2    0    0  0.16728444018E+02 -0.30403032346E+01  0.77363673894E+02  0.79209988773E+02  0.00000000000E+00 0.  1.
</event>
<event>
 6    1  0.2503481E-005  0.1041117E+03  0.7818608E-02  0.1272049E+00
          2   -1    0    0  502    0  0.00000000000E+00  0.00000000000E+00  0.40196664536E+03  0.40196664536E+03  0.00000000000E+00 0.  1.
          1   -1    0    0  501    0 -0.00000000000E+00 -0.00000000000E+00 -0.45103627031E+03  0.45103627031E+03  0.00000000000E+00 0.  1.
          2    1    1    2  501    0 -0.73484259692E+02 -0.42284143698E+02  0.33514470147E+03  0.34570197592E+03  0.00000000000E+00 0.  1.
          1    1    1    2  502    0  0.84143699551E+02  0.34601945246E+02 -0.36755613991E+03  0.37864887795E+03  0.00000000000E+00 0.  1.
         22    1    1    2    0    0  0.79258652202E+01  0.91369200059E+01 -0.70574675136E+02  0.71603682986E+02  0.00000000000E+00 0. -1.
         22    1    1    2    0    0 -0.18585305079E+02 -0.14547215540E+01  0.53916488620E+02  0.57048378810E+02  0.00000000000E+00 0.  1.
</event>
<event>
 6    1  0.1715574E-005  0.8693115E+02  0.7818608E-02  0.1337131E+00
          2   -1    0    0  502    0  0.00000000000E+00  0.00000000000E+00  0.54145500340E+03  0.54145500340E+03  0.00000000000E+00 0.  1.
          1   -1    0    0  501    0 -0.00000000000E+00 -0.00000000000E+00 -0.29917069032E+02  0.29917069032E+02  0.00000000000E+00 0.  1.
          2    1    1    2  501    0 -0.46132675570E+02  0.36989387715E+02  0.26111948728E+03  0.26773088204E+03  0.00000000000E+00 0.  1.
          1    1    1    2  502    0  0.35687246426E+02 -0.10510767507E+02  0.22359153646E+02  0.43404925329E+02  0.00000000000E+00 0.  1.
         22    1    1    2    0    0 -0.50144282644E+02 -0.20372202806E+02  0.16001677569E+03  0.16892259834E+03  0.00000000000E+00 0.  1.
         22    1    1    2    0    0  0.60589711788E+02 -0.61064174022E+01  0.68042517748E+02  0.91313666718E+02  0.00000000000E+00 0.  1.
</event>
<event>
 6    1  0.1715574E-005  0.6558767E+02  0.7818608E-02  0.1376655E+00
          2   -1    0    0  502    0  0.00000000000E+00  0.00000000000E+00  0.11972439229E+03  0.11972439229E+03  0.00000000000E+00 0.  1.
          1   -1    0    0  501    0 -0.00000000000E+00 -0.00000000000E+00 -0.16179090052E+03  0.16179090052E+03  0.00000000000E+00 0.  1.
          2    1    1    2  501    0  0.47750507994E+02  0.76818524625E+01  0.73353820653E+02  0.87862989223E+02  0.00000000000E+00 0.  1.
          1    1    1    2  502    0 -0.26948164597E+02 -0.91393468844E+00 -0.41771725808E+02  0.49718366111E+02  0.00000000000E+00 0.  1.
         22    1    1    2    0    0 -0.30496612312E+02 -0.19608563377E+02 -0.10369512183E+03  0.10985088716E+03  0.00000000000E+00 0.  1.
         22    1    1    2    0    0  0.96942689150E+01  0.12840645603E+02  0.30046518754E+02  0.34083050312E+02  0.00000000000E+00 0. -1.
</event>
<event>
 6    1  0.1715574E-005  0.1099943E+03  0.7818608E-02  0.1377479E+00
          2   -1    0    0  502    0  0.00000000000E+00  0.00000000000E+00  0.53581588146E+03  0.53581588146E+03  0.00000000000E+00 0. -1.
          1   -1    0    0  501    0 -0.00000000000E+00 -0.00000000000E+00 -0.25459546137E+03  0.25459546137E+03  0.00000000000E+00 0. -1.
          2    1    1    2  501    0  0.49714675607E+02 -0.11665243852E+03  0.42827470132E+03  0.44665261689E+03  0.00000000000E+00 0. -1.
          1    1    1    2  502    0 -0.11229031948E+03  0.50952963703E+02 -0.14756139925E+03  0.19230103200E+03  0.00000000000E+00 0. -1.
         22    1    1    2    0    0  0.71980331953E+02  0.59242148766E+02  0.46424547399E+02  0.10414431804E+03  0.00000000000E+00 0.  1.
         22    1    1    2    0    0 -0.94046880762E+01  0.64573260559E+01 -0.45917429383E+02  0.47313375896E+02  0.00000000000E+00 0.  1.
</event>
<event>
 6    1  0.1715574E-005  0.4012932E+02  0.7818608E-02  0.1549070E+00
          2   -1    0    0  502    0  0.00000000000E+00  0.00000000000E+00  0.60605627972E+02  0.60605627972E+02  0.00000000000E+00 0. -1.
          1   -1    0    0  501    0 -0.00000000000E+00 -0.00000000000E+00 -0.50085585752E+03  0.50085585752E+03  0.00000000000E+00 0. -1.
          2    1    1    2  501    0 -0.56261479511E+02  0.11102271206E+02 -0.10650199112E+03  0.12095986365E+03  0.00000000000E+00 0. -1.
          1    1    1    2  502    0  0.18138246910E+02 -0.49929325858E+02 -0.29591161195E+03  0.30064200583E+03  0.00000000000E+00 0. -1.
         22    1    1    2    0    0  0.79721366248E+01  0.19246231687E+02 -0.81028306746E+02  0.83663366479E+02  0.00000000000E+00 0. -1.
         22    1    1    2    0    0  0.30151095976E+02  0.19580822965E+02  0.43191680270E+02  0.56196249529E+02  0.00000000000E+00 0. -1.
</event>
<event>
 6    1  0.1715574E-005  0.7563202E+02  0.7818608E-02  0.1350942E+00
          2   -1    0    0  502    0  0.00000000000E+00  0.00000000000E+00  0.31868642812E+02  0.31868642812E+02  0.00000000000E+00 0. -1.
          1   -1    0    0  501    0 -0.00000000000E+00 -0.00000000000E+00 -0.31117589744E+03  0.31117589744E+03  0.00000000000E+00 0. -1.
          2    1    1    2  501    0  0.21688673939E+02  0.33814870875E+02 -0.23332499190E+02  0.46456964903E+02  0.00000000000E+00 0. -1.
          1    1    1    2  502    0 -0.14082391742E+02 -0.14569778552E+02 -0.79664992311E+02  0.82201600983E+02  0.00000000000E+00 0. -1.
         22    1    1    2    0    0 -0.24204089452E+02  0.22074370787E+02 -0.22600297286E+00  0.32759225711E+02  0.00000000000E+00 0. -1.
         22    1    1    2    0    0  0.16597807255E+02 -0.41319463110E+02 -0.17608376016E+03  0.18162674866E+03  0.00000000000E+00 0. -1.
</event>
<event>
 6    1  0.1715574E-005  0.1983358E+03  0.7818608E-02  0.1183943E+00
          2   -1    0    0  502    0  0.00000000000E+00  0.00000000000E+00  0.40967359906E+02  0.40967359906E+02  0.00000000000E+00 0. -1.
          1   -1    0    0  501    0 -0.00000000000E+00 -0.00000000000E+00 -0.55354000164E+03  0.55354000164E+03  0.00000000000E+00 0. -1.
          2    1    1    2  501    0  0.56905210269E+02  0.51241505181E+01 -0.53749819987E+02  0.78444266986E+02  0.00000000000E+00 0. -1.
          1    1    1    2  502    0 -0.20822581542E+02  0.50527326238E+02 -0.26849735969E+02  0.60889234849E+02  0.00000000000E+00 0. -1.
         22    1    1    2    0    0 -0.98432444716E+01  0.34168498625E+02 -0.46679221480E+02  0.58679855811E+02  0.00000000000E+00 0. -1.
         22    1    1    2    0    0 -0.26239384256E+02 -0.89819975381E+02 -0.38529386430E+03  0.39649400390E+03  0.00000000000E+00 0. -1.
</event>
<event>
 6    1  0.1715574E-005  0.1219425E+03  0.7818608E-02  0.1242992E+00
          2   -1    0    0  502    0  0.00000000000E+00  0.00000000000E+00  0.13050389475E+03  0.13050389475E+03  0.00000000000E+00 0. -1.
          1   -1    0    0  501    0 -0.00000000000E+00 -0.00000000000E+00 -0.50413524617E+03  0.50413524617E+03  0.00000000000E+00 0.  1.
          2    1    1    2  501    0 -0.97667746552E+02 -0.13254425305E+02  0.76992038343E+02  0.12506975044E+03  0.00000000000E+00 0. -1.
          1    1    1    2  502    0  0.78723096150E+02 -0.16179135502E+02 -0.30389384251E+03  0.31434146689E+03  0.00000000000E+00 0.  1.
         22    1    1    2    0    0  0.33498599497E+02  0.24559849335E+02 -0.16569954273E+03  0.17082646408E+03  0.00000000000E+00 0.  1.
         22    1    1    2    0    0 -0.14553949095E+02  0.48737114711E+01  0.18969995482E+02  0.24401459513E+02  0.00000000000E+00 0. -1.
</event>
<event>
 6    1  0.1715574E-005  0.1333111E+03  0.7818608E-02  0.1269332E+00
          2   -1    0    0  502    0  0.00000000000E+00  0.00000000000E+00  0.68145103122E+03  0.68145103122E+03  0.00000000000E+00 0.  1.
          1   -1    0    0  501    0 -0.00000000000E+00 -0.00000000000E+00 -0.67548645198E+02  0.67548645198E+02  0.00000000000E+00 0. -1.
          2    1    1    2  501    0 -0.74128458158E+02  0.81098925952E+02  0.44880935623E+03  0.46206266062E+03  0.00000000000E+00 0.  1.
          1    1    1    2  502    0  0.86795633640E+02 -0.58959482907E+02  0.68814595928E+02  0.12547968464E+03  0.00000000000E+00 0. -1.
         22    1    1    2    0    0 -0.12012971238E+02  0.29948622599E+02  0.10391377014E+03  0.10880856169E+03  0.00000000000E+00 0. -1.
         22    1    1    2    0    0 -0.65420424388E+00 -0.52088065644E+02 -0.76353362808E+01  0.52648769462E+02  0.00000000000E+00 0. -1.
</event>
<event>
 6    1  0.1715574E-005  0.1020246E+03  0.7818608E-02  0.1276927E+00
          2   -1    0    0  502    0  0.00000000000E+00  0.00000000000E+00  0.61318155618E+02  0.61318155618E+02  0.00000000000E+00 0.  1.
          1   -1    0    0  501    0 -0.00000000000E+00 -0.00000000000E+00 -0.45046548243E+03  0.45046548243E+03  0.00000000000E+00 0. -1.
          2    1    1    2  501    0  0.32711781949E+02  0.77958923754E+02 -0.17955952943E+01  0.84562867937E+02  0.00000000000E+00 0.  1.
          1    1    1    2  502    0 -0.19185005102E+02 -0.39906133354E+02 -0.11854104875E+03  0.12654068175E+03  0.00000000000E+00 0. -1.
         22    1    1    2    0    0  0.17625362499E+01  0.12051493723E+02  0.10755141289E+02  0.16248633762E+02  0.00000000000E+00 0. -1.
         22    1    1    2    0    0 -0.15289313097E+02 -0.50104284123E+02 -0.27956582406E+03  0.28443145460E+03  0.00000000000E+00 0. -1.
</event>
<event>
 6    1  0.1715574E-005  0.8983843E+02  0.7818608E-02  0.1325107E+00
          2   -1    0    0  502    0  0.00000000000E+00  0.00000000000E+00  0.15148932481E+02  0.15148932481E+02  0.00000000000E+00 0. -1.
          1   -1    0    0  501    0 -0.00000000000E+00 -0.00000000000E+00 -0.11451747538E+04  0.11451747538E+04  0.00000000000E+00 0. -1.
          2    1    1    2  501    0  0.49172103900E+02  0.57643449762E+02 -0.41222440926E+03  0.41912960608E+03  0.00000000000E+00 0. -1.
          1    1    1    2  502    0 -0.46055871909E+02 -0.11550136025E+02 -0.18385917692E+03  0.18989140559E+03  0.00000000000E+00 0. -1.
         22    1    1    2    0    0  0.56825582696E+02 -0.20962567563E+02 -0.14781285686E+03  0.15974109284E+03  0.00000000000E+00 0. -1.
         22    1    1    2    0    0 -0.59941814687E+02 -0.25130746174E+02 -0.38612937828E+03  0.39156158178E+03  0.00000000000E+00 0. -1.
</event>
<event>
 6    1  0.1715574E-005  0.2495212E+03  0.7818608E-02  0.1119446E+00
          2   -1    0    0  502    0  0.00000000000E+00  0.00000000000E+00  0.88132454598E+02  0.88132454598E+02  0.00000000000E+00 0. -1.
          1   -1    0    0  501    0 -0.00000000000E+00 -0.00000000000E+00 -0.76411828022E+03  0.76411828022E+03  0.00000000000E+00 0. -1.
          2    1    1    2  501    0 -0.89226843305E+01  0.70877821488E+02 -0.30658140388E+03  0.31479427739E+03  0.00000000000E+00 0. -1.
          1    1    1    2  502    0 -0.12210591875E+03 -0.13433690853E+03 -0.10491584505E+03  0.20967497450E+03  0.00000000000E+00 0. -1.
         22    1    1    2    0    0  0.85154322128E+01 -0.32589376490E+02 -0.24215635902E+02  0.41484660634E+02  0.00000000000E+00 0.  1.
         22    1    1    2    0    0  0.12251317086E+03  0.96048463533E+02 -0.24027294079E+03  0.28629682230E+03  0.00000000000E+00 0. -1.
</event>
<event>
 6    1  0.1715574E-005  0.7480777E+02  0.7818608E-02  0.1378655E+00
          2   -1    0    0  502    0  0.00000000000E+00  0.00000000000E+00  0.36606167215E+03  0.36606167215E+03  0.00000000000E+00 0. -1.
          1   -1    0    0  501    0 -0.00000000000E+00 -0.00000000000E+00 -0.38164782821E+02  0.38164782821E+02  0.00000000000E+00 0. -1.
          2    1    1    2  501    0  0.50890263967E+02 -0.73140523684E+01  0.99909371828E+02  0.11236190150E+03  0.00000000000E+00 0. -1.
          1    1    1    2  502    0 -0.36376501912E+02  0.28639421423E+02  0.22113672125E+02  0.51307707469E+02  0.00000000000E+00 0. -1.
         22    1    1    2    0    0 -0.41110950083E+02  0.11394083049E+02  0.15217774914E+02  0.45293664221E+02  0.00000000000E+00 0. -1.
         22    1    1    2    0    0  0.26597188028E+02 -0.32719452103E+02  0.19065607046E+03  0.19526318178E+03  0.00000000000E+00 0.  1.
</event>
<event>
 6    1  0.1715574E-005  0.7650290E+02  0.7818608E-02  0.1339854E+00
          2   -1    0    0  502    0  0.00000000000E+00  0.00000000000E+00  0.96101356307E+02  0.96101356307E+02  0.00000000000E+00 0. -1.
          1   -1    0    0  501    0 -0.00000000000E+00 -0.00000000000E+00 -0.19969571943E+03  0.19969571943E+03  0.00000000000E+00 0.  1.
          2    1    1    2  501    0 -0.18883708924E+02 -0.23749398072E+02  0.19574650016E+02  0.36108105665E+02  0.00000000000E+00 0. -1.
          1    1    1    2  502    0  0.42868261997E+02  0.28733259545E+02 -0.12129911287E+03  0.13182095006E+03  0.00000000000E+00 0.  1.
         22    1    1    2    0    0  0.10156606484E+02  0.22685426869E+02 -0.54143752834E+02  0.59576263885E+02  0.00000000000E+00 0. -1.
         22    1    1    2    0    0 -0.34141159558E+02 -0.27669288342E+02  0.52273852566E+02  0.68291756131E+02  0.00000000000E+00 0. -1.
</event>
<event>
 6    1  0.1715574E-005  0.3946742E+02  0.7818608E-02  0.1583751E+00
          2   -1    0    0  502    0  0.00000000000E+00  0.00000000000E+00  0.10714905197E+03  0.10714905197E+03  0.00000000000E+00 0. -1.
          1   -1    0    0  501    0 -0.00000000000E+00 -0.00000000000E+00 -0.14596790955E+03  0.14596790955E+03  0.00000000000E+00 0. -1.
          2    1    1    2  501    0  0.39302092491E+02  0.38139536264E+02  0.43227694258E+02  0.69770425335E+02  0.00000000000E+00 0. -1.
          1    1    1    2  502    0 -0.25565315690E+02 -0.25043075362E+02 -0.22910199608E+02  0.42492566832E+02  0.00000000000E+00 0. -1.
         22    1    1    2    0    0 -0.17968669924E+02 -0.24116084076E+02 -0.96810291434E+02  0.10137401609E+03  0.00000000000E+00 0. -1.
         22    1    1    2    0    0  0.42318931236E+01  0.11019623174E+02  0.37673939202E+02  0.39479953259E+02  0.00000000000E+00 0. -1.
</event>
<event>
 6    1  0.1715574E-005  0.4257738E+02  0.7818608E-02  0.1568651E+00
          2   -1    0    0  502    0  0.00000000000E+00  0.00000000000E+00  0.10532982028E+03  0.10532982028E+03  0.00000000000E+00 0.  1.
          1   -1    0    0  501    0 -0.00000000000E+00 -0.00000000000E+00 -0.15217462678E+03  0.15217462678E+03  0.00000000000E+00 0. -1.
          2    1    1    2  501    0 -0.26273626218E+01 -0.30264146448E+02  0.22006006075E+02  0.37511143651E+02  0.00000000000E+00 0.  1.
          1    1    1    2  502    0  0.12209537051E+02  0.25874527628E+02 -0.86386774276E+02  0.91001311775E+02  0.00000000000E+00 0. -1.
         22    1    1    2    0    0 -0.10551785757E+02 -0.10760856004E+02  0.71428925393E+02  0.73001558801E+02  0.00000000000E+00 0.  1.
         22    1    1    2    0    0  0.96961132770E+00  0.15150474824E+02 -0.53892963688E+02  0.55990432831E+02  0.00000000000E+00 0. -1.
</event>
<event>
 6    1  0.1715574E-005  0.1249297E+03  0.7818608E-02  0.1330162E+00
          2   -1    0    0  502    0  0.00000000000E+00  0.00000000000E+00  0.10240674925E+03  0.10240674925E+03  0.00000000000E+00 0. -1.
          1   -1    0    0  501    0 -0.00000000000E+00 -0.00000000000E+00 -0.52865871792E+03  0.52865871792E+03  0.00000000000E+00 0.  1.
          2    1    1    2  501    0  0.37824344076E+02  0.23155167704E+02  0.31391062397E+02  0.54334534088E+02  0.00000000000E+00 0. -1.
          1    1    1    2  502    0 -0.10919894244E+03 -0.56819496858E+02 -0.40248138794E+03  0.42088493902E+03  0.00000000000E+00 0.  1.
         22    1    1    2    0    0 -0.52386960893E+01  0.19922980646E+02 -0.73119026627E+02  0.75965526058E+02  0.00000000000E+00 0. -1.
         22    1    1    2    0    0  0.76613294454E+02  0.13741348508E+02  0.17957383505E+02  0.79880468002E+02  0.00000000000E+00 0. -1.
</event>
<event>
 6    1  0.1715574E-005  0.1066801E+03  0.7818608E-02  0.1321323E+00
          2   -1    0    0  502    0  0.00000000000E+00  0.00000000000E+00  0.48501368020E+02  0.48501368020E+02  0.00000000000E+00 0. -1.
          1   -1    0    0  501    0 -0.00000000000E+00 -0.00000000000E+00 -0.41151409416E+03  0.41151409416E+03  0.00000000000E+00 0.  1.
          2    1    1    2  501    0  0.73625441852E+02 -0.43119068492E+02 -0.12383656866E+03  0.15038435920E+03  0.00000000000E+00 0. -1.
          1    1    1    2  502    0 -0.67907636442E+02  0.16329859791E+02 -0.11173539812E+03  0.13176839758E+03  0.00000000000E+00 0.  1.
         22    1    1    2    0    0 -0.44177112404E+02  0.31008513355E+02 -0.12827081410E+03  0.13916374137E+03  0.00000000000E+00 0.  1.
         22    1    1    2    0    0  0.38459306995E+02 -0.42193046536E+01  0.83005473979E+00  0.38698964032E+02  0.00000000000E+00 0. -1.
</event>
<event>
 6    1  0.1715574E-005  0.5316263E+02  0.7818608E-02  0.1447523E+00
          2   -1    0    0  502    0  0.00000000000E+00  0.00000000000E+00  0.85168040564E+03  0.85168040564E+03  0.00000000000E+00 0.  1.
          1   -1    0    0  501    0 -0.00000000000E+00 -0.00000000000E+00 -0.50196676004E+02  0.50196676004E+02  0.00000000000E+00 0.  1.
          2    1    1    2  501    0  0.22055905449E+02 -0.35901139916E+01  0.26634560870E+03  0.26728137825E+03  0.00000000000E+00 0.  1.
          1    1    1    2  502    0 -0.59213118984E+02 -0.42032279624E+02  0.48663105629E+03  0.49201899448E+03  0.00000000000E+00 0.  1.
         22    1    1    2    0    0  0.22322343678E+02  0.47899095652E+02 -0.31267559322E+02  0.61402529732E+02  0.00000000000E+00 0.  1.
         22    1    1    2    0    0  0.14834869856E+02 -0.22767020362E+01  0.79774623971E+02  0.81174179180E+02  0.00000000000E+00 0.  1.
</event>
<event>
 6    1  0.1715574E-005  0.5606269E+02  0.7818608E-02  0.1416966E+00
          2   -1    0    0  502    0  0.00000000000E+00  0.00000000000E+00  0.10293868870E+03  0.10293868870E+03  0.00000000000E+00 0.  1.
          1   -1    0    0  501    0 -0.00000000000E+00 -0.00000000000E+00 -0.18070102492E+03  0.18070102492E+03  0.00000000000E+00 0. -1.
          2    1    1    2  501    0 -0.12082234871E+02  0.35798316144E+02  0.61900962771E+02  0.72520542126E+02  0.00000000000E+00 0.  1.
          1    1    1    2  502    0  0.13416528220E+02 -0.21563532138E+02 -0.46276559587E+02  0.52787395417E+02  0.00000000000E+00 0. -1.
         22    1    1    2    0    0  0.13955815058E+02 -0.20961986053E+02 -0.12234015470E+03  0.12490509631E+03  0.00000000000E+00 0. -1.
         22    1    1    2    0    0 -0.15290108407E+02  0.67272020475E+01  0.28953415295E+02  0.33426679759E+02  0.00000000000E+00 0.  1.
</event>
<event>
 6    1  0.1715574E-005  0.1565168E+03  0.7818608E-02  0.1202155E+00
          2   -1    0    0  502    0  0.00000000000E+00  0.00000000000E+00  0.18281821885E+03  0.18281821885E+03  0.00000000000E+00 0. -1.
          1   -1    0    0  501    0 -0.00000000000E+00 -0.00000000000E+00 -0.11062380506E+03  0.11062380506E+03  0.00000000000E+00 0. -1.
          2    1    1    2  501    0 -0.19491063164E+02  0.48373911423E+02 -0.24338852892E+02  0.57552728951E+02  0.00000000000E+00 0. -1.
          1    1    1    2  502    0  0.82637030909E+01 -0.76541241148E+02  0.11923529624E+02  0.77903921236E+02  0.00000000000E+00 0. -1.
         22    1    1    2    0    0  0.53406162988E+02  0.55500068758E+02  0.73598515894E+02  0.10653270587E+03  0.00000000000E+00 0. -1.
         22    1    1    2    0    0 -0.42178802915E+02 -0.27332739034E+02  0.11011221158E+02  0.51452667859E+02  0.00000000000E+00 0. -1.
</event>
<event>
 6    1  0.1715574E-005  0.2975530E+03  0.7818608E-02  0.1089890E+00
          2   -1    0    0  502    0  0.00000000000E+00  0.00000000000E+00  0.82579357801E+02  0.82579357801E+02  0.00000000000E+00 0. -1.
          1   -1    0    0  501    0 -0.00000000000E+00 -0.00000000000E+00 -0.10845649271E+04  0.10845649271E+04  0.00000000000E+00 0. -1.
          2    1    1    2  501    0 -0.27185104370E+02 -0.25443231729E+03 -0.29149420159E+03  0.38787073045E+03  0.00000000000E+00 0. -1.
          1    1    1    2  502    0  0.36896617855E+02  0.87436362685E+02 -0.12169221270E+03  0.15432262492E+03  0.00000000000E+00 0. -1.
         22    1    1    2    0    0 -0.10430517572E+01 -0.14706112885E+02 -0.89723366162E+01  0.17258636606E+02  0.00000000000E+00 0. -1.
         22    1    1    2    0    0 -0.86684617283E+01  0.18170206749E+03 -0.57982681838E+03  0.60769229292E+03  0.00000000000E+00 0. -1.
</event>
<event>
 6    1  0.1715574E-005  0.2917498E+02  0.7818608E-02  0.1628504E+00
          2   -1    0    0  502    0  0.00000000000E+00  0.00000000000E+00  0.12525389959E+03  0.12525389959E+03  0.00000000000E+00 0.  1.
          1   -1    0    0  501    0 -0.00000000000E+00 -0.00000000000E+00 -0.19895287091E+03  0.19895287091E+03  0.00000000000E+00 0. -1.
          2    1    1    2  501    0  0.33450264845E+02  0.10301817258E+02  0.80594100765E+02  0.87866129624E+02  0.00000000000E+00 0.  1.
          1    1    1    2  502    0 -0.32215678624E+02 -0.57559217894E+01 -0.83496757614E+02  0.89681041011E+02  0.00000000000E+00 0. -1.
         22    1    1    2    0    0  0.12798715800E+01  0.15817334834E+02  0.35244346135E+02  0.38652167947E+02  0.00000000000E+00 0.  1.
         22    1    1    2    0    0 -0.25144578011E+01 -0.20363230302E+02 -0.10604066061E+03  0.10800743191E+03  0.00000000000E+00 0. -1.
</event>
<event>
 6    1  0.2151326E-005  0.1403429E+03  0.7818608E-02  0.1248713E+00
          2   -1    0    0  502    0  0.00000000000E+00  0.00000000000E+00  0.22196954722E+03  0.22196954722E+03  0.00000000000E+00 0.  1.
          1   -1    0    0  501    0 -0.00000000000E+00 -0.00000000000E+00 -0.22901811580E+03  0.22901811580E+03  0.00000000000E+00 0. -1.
          2    1    1    2  501    0  0.80020735540E+02  0.12755646988E+03  0.10721861505E+03  0.18485075747E+03  0.00000000000E+00 0.  1.
          1    1    1    2  502    0 -0.55502744506E+02 -0.77040111689E+02 -0.17190536229E+02  0.96494808112E+02  0.00000000000E+00 0. -1.
         22    1    1    2    0    0  0.96071317460E+01  0.71462979060E+01  0.26494345331E+02  0.29074333848E+02  0.00000000000E+00 0. -1.
         22    1    1    2    0    0 -0.34125122780E+02 -0.57662656101E+02 -0.12357099274E+03  0.14056776359E+03  0.00000000000E+00 0. -1.
</event>
<event>
 6    1  0.1715574E-005  0.4701434E+02  0.7818608E-02  0.1465510E+00
          2   -1    0    0  502    0  0.00000000000E+00  0.00000000000E+00  0.17214282271E+03  0.17214282271E+03  0.00000000000E+00 0. -1.
          1   -1    0    0  501    0 -0.00000000000E+00 -0.00000000000E+00 -0.82976483984E+02  0.82976483984E+02  0.00000000000E+00 0.  1.
          2    1    1    2  501    0  0.10740514319E+02  0.24181752172E+02  0.85271670139E+02  0.89282548766E+02  0.00000000000E+00 0. -1.
          1    1    1    2  502    0 -0.17027452327E+02 -0.11071887179E+02 -0.30302883773E+02  0.36479933983E+02  0.00000000000E+00 0.  1.
         22    1    1    2    0    0  0.12485471643E+02  0.12843618317E+02  0.76924404153E+02  0.78982336557E+02  0.00000000000E+00 0. -1.
         22    1    1    2    0    0 -0.61985336347E+01 -0.25953483310E+02 -0.42726851795E+02  0.50374487386E+02  0.00000000000E+00 0. -1.
</event>
<event>
 6    1  0.1715574E-005  0.1080863E+03  0.7818608E-02  0.1294542E+00
          2   -1    0    0  502    0  0.00000000000E+00  0.00000000000E+00  0.13655407290E+04  0.13655407290E+04  0.00000000000E+00 0.  1.
          1   -1    0    0  501    0 -0.00000000000E+00 -0.00000000000E+00 -0.10298927487E+03  0.10298927487E+03  0.00000000000E+00 0.  1.
          2    1    1    2  501    0  0.20181073994E+03  0.12800624290E+03  0.93742935896E+03  0.96741251595E+03  0.00000000000E+00 0.  1.
          1    1    1    2  502    0 -0.17661038197E+03 -0.79237557149E+02  0.30290698468E+03  0.35947525485E+03  0.00000000000E+00 0.  1.
         22    1    1    2    0    0  0.19562155800E+02 -0.21771930902E+02  0.66804231041E+02  0.72934903851E+02  0.00000000000E+00 0. -1.
         22    1    1    2    0    0 -0.44762513769E+02 -0.26996754846E+02 -0.44589120576E+02  0.68707329193E+02  0.00000000000E+00 0.  1.
</event>
<event>
 6    1  0.1715574E-005  0.3002591E+03  0.7818608E-02  0.1085586E+00
          2   -1    0    0  502    0  0.00000000000E+00  0.00000000000E+00  0.13011649050E+03  0.13011649050E+03  0.00000000000E+00 0.  1.
          1   -1    0    0  501    0 -0.00000000000E+00 -0.00000000000E+00 -0.13764349867E+04  0.13764349867E+04  0.00000000000E+00 0. -1.
          2    1    1    2  501    0  0.10361747535E+03 -0.24791777493E+03 -0.69278977387E+02  0.27748762321E+03  0.00000000000E+00 0.  1.
          1    1    1    2  502    0 -0.46420461190E+02  0.17957800476E+03 -0.79730630398E+03  0.81859664144E+03  0.00000000000E+00 0. -1.
         22    1    1    2    0    0  0.37318013671E+01 -0.25766319972E+02 -0.17722078997E+02  0.31494470472E+02  0.00000000000E+00 0.  1.
         22    1    1    2    0    0 -0.60928815528E+02  0.94106090143E+02 -0.36201113581E+03  0.37897274204E+03  0.00000000000E+00 0. -1.
</event>
<event>
 6    1  0.1715574E-005  0.2206410E+03  0.7818608E-02  0.1135602E+00
          2   -1    0    0  502    0  0.00000000000E+00  0.00000000000E+00  0.22966360291E+02  0.22966360291E+02  0.00000000000E+00 0. -1.
          1   -1    0    0  501    0 -0.00000000000E+00 -0.00000000000E+00 -0.20202542321E+04  0.20202542321E+04  0.00000000000E+00 0. -1.
          2    1    1    2  501    0  0.16000310040E+03 -0.58622474818E+02 -0.87230783701E+03  0.88879612353E+03  0.00000000000E+00 0. -1.
          1    1    1    2  502    0 -0.12092124356E+03  0.11909670039E+02 -0.52903195461E+03  0.54280622360E+03  0.00000000000E+00 0. -1.
         22    1    1    2    0    0  0.20673279160E+02 -0.32383146844E+02 -0.16980995620E+03  0.17410190663E+03  0.00000000000E+00 0.  1.
         22    1    1    2    0    0 -0.59755135997E+02  0.79095951624E+02 -0.42613812398E+03  0.43751633861E+03  0.00000000000E+00 0. -1.
</event>
<event>
 6    1  0.1715574E-005  0.5260178E+02  0.7818608E-02  0.1438716E+00
          2   -1    0    0  502    0  0.00000000000E+00  0.00000000000E+00  0.36307755027E+03  0.36307755027E+03  0.00000000000E+00 0.  1.
          1   -1    0    0  501    0 -0.00000000000E+00 -0.00000000000E+00 -0.16170169491E+03  0.16170169491E+03  0.00000000000E+00 0.  1.
          2    1    1    2  501    0 -0.94660704913E+02 -0.17700598413E+02  0.27971532178E+03  0.29582870293E+03  0.00000000000E+00 0.  1.
          1    1    1    2  502    0  0.67284944554E+02  0.14150229245E+02 -0.68248823727E+02  0.96878246741E+02  0.00000000000E+00 0.  1.
         22    1    1    2    0    0  0.49156237447E+01  0.29798108457E+02 -0.62435146927E+02  0.69355880761E+02  0.00000000000E+00 0. -1.
         22    1    1    2    0    0  0.22460136614E+02 -0.26247739289E+02  0.52344504235E+02  0.62716414742E+02  0.00000000000E+00 0. -1.
</event>
<event>
 6    1  0.1715574E-005  0.1733819E+03  0.7818608E-02  0.1181180E+00
          2   -1    0    0  502    0  0.00000000000E+00  0.00000000000E+00  0.49208359362E+03  0.49208359362E+03  0.00000000000E+00 0.  1.
          1   -1    0    0  501    0 -0.00000000000E+00 -0.00000000000E+00 -0.60410777103E+02  0.60410777103E+02  0.00000000000E+00 0. -1.
          2    1    1    2  501    0 -0.18277786256E+02 -0.14033602563E+02  0.11476837725E+02  0.25743684187E+02  0.00000000000E+00 0.  1.
          1    1    1    2  502    0  0.10197462450E+03 -0.77104646738E+02  0.10632560610E+03  0.16628014044E+03  0.00000000000E+00 0. -1.
         22    1    1    2    0    0  0.10017822412E+02 -0.99519929524E+01 -0.34207711395E+01  0.14529301594E+02  0.00000000000E+00 0.  1.
         22    1    1    2    0    0 -0.93714660652E+02  0.10109024225E+03  0.31729114382E+03  0.34594124450E+03  0.00000000000E+00 0.  1.
</event>
<event>
 6    1  0.1715574E-005  0.3953147E+02  0.7818608E-02  0.1611950E+00
          2   -1    0    0  502    0  0.00000000000E+00  0.00000000000E+00  0.75968362740E+02  0.75968362740E+02  0.00000000000E+00 0.  1.
          1   -1    0    0  501    0 -0.00000000000E+00 -0.00000000000E+00 -0.31323051182E+03  0.31323051182E+03  0.00000000000E+00 0. -1.
          2    1    1    2  501    0  0.14627123050E+02  0.40111297674E+02 -0.53986579976E+01  0.43035037330E+02  0.00000000000E+00 0.  1.
          1    1    1    2  502    0 -0.84566849111E+01 -0.24953704042E+02 -0.21362856387E+03  0.21524722104E+03  0.00000000000E+00 0. -1.
         22    1    1    2    0    0  0.43784178052E+01 -0.11673746622E+02 -0.73497996308E+02  0.74547986988E+02  0.00000000000E+00 0. -1.
         22    1    1    2    0    0 -0.10548855944E+02 -0.34838470108E+01  0.55263069097E+02  0.56368629199E+02  0.00000000000E+00 0.  1.
</event>
<event>
 6    1  0.1715574E-005  0.1015258E+03  0.7818608E-02  0.1317917E+00
          2   -1    0    0  502    0  0.00000000000E+00  0.00000000000E+00  0.11390660463E+04  0.11390660463E+04  0.00000000000E+00 0.  1.
          1   -1    0    0  501    0 -0.00000000000E+00 -0.00000000000E+00 -0.17727085437E+02  0.17727085437E+02  0.00000000000E+00 0. -1.
          2    1    1    2  501    0  0.42705530185E+02 -0.55605909680E+02  0.65572362559E+03  0.65946133522E+03  0.00000000000E+00 0.  1.
          1    1    1    2  502    0 -0.26905480748E+02  0.11196616607E+02  0.31635379563E+02  0.43012397722E+02  0.00000000000E+00 0. -1.
         22    1    1    2    0    0 -0.63504819286E+02  0.44630162947E+02  0.18195158458E+03  0.19781580485E+03  0.00000000000E+00 0.  1.
         22    1    1    2    0    0  0.47704769848E+02 -0.22086987299E+00  0.25202837117E+03  0.25650359398E+03  0.00000000000E+00 0.  1.
</event>
<event>
 6    1  0.1715574E-005  0.1312925E+03  0.7818608E-02  0.1232471E+00
          2   -1    0    0  502    0  0.00000000000E+00  0.00000000000E+00  0.73977745104E+03  0.73977745104E+03  0.00000000000E+00 0. -1.
          1   -1    0    0  501    0 -0.00000000000E+00 -0.00000000000E+00 -0.24681674123E+02  0.24681674123E+02  0.00000000000E+00 0. -1.
          2    1    1    2  501    0 -0.17121512105E+02  0.23313387437E+02  0.10587235606E+02  0.30801781902E+02  0.00000000000E+00 0. -1.
          1    1    1    2  502    0  0.18950794472E+02 -0.58562910420E+02  0.33726612445E+03  0.34283696678E+03  0.00000000000E+00 0. -1.
         22    1    1    2    0    0 -0.13023575839E+02  0.82765689469E+02  0.20720895251E+03  0.22350687435E+03  0.00000000000E+00 0. -1.
         22    1    1    2    0    0  0.11194293472E+02 -0.47516166487E+02  0.16003346435E+03  0.16731350213E+03  0.00000000000E+00 0. -1.
</event>
<event>
 6    1  0.1715574E-005  0.2204542E+03  0.7818608E-02  0.1176818E+00
          2   -1    0    0  502    0  0.00000000000E+00  0.00000000000E+00  0.24610968545E+03  0.24610968545E+03  0.00000000000E+00 0. -1.
          1   -1    0    0  501    0 -0.00000000000E+00 -0.00000000000E+00 -0.28440397314E+03  0.28440397314E+03  0.00000000000E+00 0. -1.
          2    1    1    2  501    0  0.18030933469E+03  0.79138453236E+02 -0.42351135735E+02  0.20141491915E+03  0.00000000000E+00 0. -1.
          1    1    1    2  502    0 -0.17636314608E+03  0.75903686883E+01  0.26854513145E+01  0.17654683413E+03  0.00000000000E+00 0. -1.
         22    1    1    2    0    0 -0.63116210199E+02 -0.33201445020E+02 -0.97941270703E+01  0.71985532341E+02  0.00000000000E+00 0. -1.
         22    1    1    2    0    0  0.59170021586E+02 -0.53527376904E+02  0.11165523805E+02  0.80566372976E+02  0.00000000000E+00 0. -1.
</event>
<event>
 6    1  0.1715574E-005  0.1076354E+03  0.7818608E-02  0.1293046E+00
          2   -1    0    0  502    0  0.00000000000E+00  0.00000000000E+00  0.21893228505E+03  0.21893228505E+03  0.00000000000E+00 0. -1.
          1   -1    0    0  501    0 -0.00000000000E+00 -0.00000000000E+00 -0.15915951079E+03  0.15915951079E+03  0.00000000000E+00 0. -1.
          2    1    1    2  501    0 -0.67106536466E+02  0.74650876979E+01  0.50133910840E+02  0.84097703814E+02  0.00000000000E+00 0. -1.
          1    1    1    2  502    0  0.95513322116E+02 -0.45973378482E+02 -0.83073961406E+02  0.13467601603E+03  0.00000000000E+00 0. -1.
         22    1    1    2    0    0  0.51239750336E+01 -0.14918064936E+02 -0.22788800163E+02  0.27715215937E+02  0.00000000000E+00 0.  1.
         22    1    1    2    0    0 -0.33530760684E+02  0.53426355720E+02  0.11550162500E+03  0.13160286005E+03  0.00000000000E+00 0. -1.
</event>
<event>
 6    1  0.1715574E-005  0.6795877E+02  0.7818608E-02  0.1373379E+00
          2   -1    0    0  502    0  0.00000000000E+00  0.00000000000E+00  0.17316482602E+03  0.17316482602E+03  0.00000000000E+00 0.  1.
          1   -1    0    0  501    0 -0.00000000000E+00 -0.00000000000E+00 -0.11267027023E+03  0.11267027023E+03  0.00000000000E+00 0. -1.
          2    1    1    2  501    0  0.44770620799E+02 -0.42657808854E+01  0.10796639230E+03  0.11695874161E+03  0.00000000000E+00 0.  1.
          1    1    1    2  502    0 -0.21081265892E+02  0.13533784502E+02 -0.25020448217E+02  0.35406297795E+02  0.00000000000E+00 0. -1.
         22    1    1    2    0    0 -0.39119017312E+02 -0.13786164949E+02 -0.71055747197E+02  0.82275604338E+02  0.00000000000E+00 0. -1.
         22    1    1    2    0    0  0.15429662405E+02  0.45181613317E+01  0.48604358900E+02  0.51194452511E+02  0.00000000000E+00 0. -1.
</event>
<event>
 6    1  0.1715574E-005  0.1430536E+03  0.7818608E-02  0.1214217E+00
          2   -1    0    0  502    0  0.00000000000E+00  0.00000000000E+00  0.16366657364E+03  0.16366657364E+03  0.00000000000E+00 0. -1.
          1   -1    0    0  501    0 -0.00000000000E+00 -0.00000000000E+00 -0.34546799611E+03  0.34546799611E+03  0.00000000000E+00 0.  1.
          2    1    1    2  501    0  0.15661481083E+02  0.10774450824E+03  0.10058501630E+03  0.14822788721E+03  0.00000000000E+00 0. -1.
          1    1    1    2  502    0 -0.37303049362E+02 -0.43389240343E+02 -0.17245553841E+03  0.18170045789E+03  0.00000000000E+00 0.  1.
         22    1    1    2    0    0  0.12531306615E+02  0.15451974358E+02  0.18863773799E+02  0.27416037623E+02  0.00000000000E+00 0.  1.
         22    1    1    2    0    0  0.91102616639E+01 -0.79807242251E+02 -0.12879467416E+03  0.15179018702E+03  0.00000000000E+00 0.  1.
</event>
<event>
 6    1  0.1715574E-005  0.8032808E+02  0.7818608E-02  0.1333109E+00
          2   -1    0    0  502    0  0.00000000000E+00  0.00000000000E+00  0.49897050950E+03  0.49897050950E+03  0.00000000000E+00 0.  1.
          1   -1    0    0  501    0 -0.00000000000E+00 -0.00000000000E+00 -0.46903169066E+02  0.46903169066E+02  0.00000000000E+00 0.  1.
          2    1    1    2  501    0  0.42607700194E+02 -0.84846706361E+01  0.30148552259E+03  0.30459961602E+03  0.00000000000E+00 0.  1.
          1    1    1    2  502    0 -0.24614753101E+02  0.14340142257E+02 -0.15690418035E+02  0.32522530164E+02  0.00000000000E+00 0.  1.
         22    1    1    2    0    0  0.14753789858E+02 -0.32075080129E+02  0.16288218739E+03  0.16666460947E+03  0.00000000000E+00 0.  1.
         22    1    1    2    0    0 -0.32746736951E+02  0.26219608508E+02  0.33900484895E+01  0.42086922909E+02  0.00000000000E+00 0.  1.
</event>
<event>
 6    1  0.1715574E-005  0.9218992E+02  0.7818608E-02  0.1429087E+00
          2   -1    0    0  502    0  0.00000000000E+00  0.00000000000E+00  0.14140178952E+03  0.14140178952E+03  0.00000000000E+00 0.  1.
          1   -1    0    0  501    0 -0.00000000000E+00 -0.00000000000E+00 -0.18929430934E+03  0.18929430934E+03  0.00000000000E+00 0.  1.
          2    1    1    2  501    0 -0.17659339780E+02  0.73863683266E+02  0.80334651647E+02  0.11055022498E+03  0.00000000000E+00 0.  1.
          1    1    1    2  502    0 -0.15384527310E+02 -0.31345384302E+02 -0.58792018455E+02  0.68379223684E+02  0.00000000000E+00 0.  1.
         22    1    1    2    0    0  0.54901608906E+01  0.85728912826E+01  0.32722217274E+02  0.34269225770E+02  0.00000000000E+00 0.  1.
         22    1    1    2    0    0  0.27553706199E+02 -0.51091190246E+02 -0.10215737028E+03  0.11749742443E+03  0.00000000000E+00 0.  1.
</event>
<event>
 6    1  0.1715574E-005  0.4674764E+02  0.7818608E-02  0.1558291E+00
          2   -1    0    0  502    0  0.00000000000E+00  0.00000000000E+00  0.15089642620E+03  0.15089642620E+03  0.00000000000E+00 0. -1.
          1   -1    0    0  501    0 -0.00000000000E+00 -0.00000000000E+00 -0.14323215500E+03  0.14323215500E+03  0.00000000000E+00 0. -1.
          2    1    1    2  501    0  0.20288810118E+02 -0.20907917080E+02  0.67661636160E+02  0.73667318538E+02  0.00000000000E+00 0. -1.
          1    1    1    2  502    0 -0.28220329019E+02  0.43130396538E+02 -0.79958452421E+02  0.95131341780E+02  0.00000000000E+00 0. -1.
         22    1    1    2    0    0  0.11506436058E+02 -0.97474633985E+01  0.71042745238E+02  0.72625634348E+02  0.00000000000E+00 0. -1.
         22    1    1    2    0    0 -0.35749171575E+01 -0.12475016059E+02 -0.51081657776E+02  0.52704286538E+02  0.00000000000E+00 0. -1.
</event>
<event>
 6    1  0.1715574E-005  0.1594015E+03  0.7818608E-02  0.1201972E+00
          2   -1    0    0  502    0  0.00000000000E+00  0.00000000000E+00  0.89294816703E+02  0.89294816703E+02  0.00000000000E+00 0. -1.
          1   -1    0    0  501    0 -0.00000000000E+00 -0.00000000000E+00 -0.55172512025E+03  0.55172512025E+03  0.00000000000E+00 0.  1.
          2    1    1    2  501    0  0.60974600062E+02  0.46827419674E+01 -0.44233693234E+02  0.75474827208E+02  0.00000000000E+00 0. -1.
          1    1    1    2  502    0 -0.10263106200E+03  0.33365750685E+02 -0.41563493081E+03  0.42941681839E+03  0.00000000000E+00 0.  1.
         22    1    1    2    0    0 -0.63594628322E+01  0.11428910264E+02 -0.50492289166E+02  0.52158738698E+02  0.00000000000E+00 0. -1.
         22    1    1    2    0    0  0.48015924775E+02 -0.49477402916E+02  0.47930609660E+02  0.83969552659E+02  0.00000000000E+00 0. -1.
</event>
<event>
 6    1  0.1715574E-005  0.9488160E+02  0.7818608E-02  0.1298161E+00
          2   -1    0    0  502    0  0.00000000000E+00  0.00000000000E+00  0.35230536202E+02  0.35230536202E+02  0.00000000000E+00 0.  1.
          1   -1    0    0  501    0 -0.00000000000E+00 -0.00000000000E+00 -0.39444738648E+03  0.39444738648E+03  0.00000000000E+00 0. -1.
          2    1    1    2  501    0 -0.10877507860E+02  0.21588507463E+02 -0.32832393862E+02  0.40771925616E+02  0.00000000000E+00 0.  1.
          1    1    1    2  502    0 -0.13730974847E+02 -0.42616999167E+02 -0.20715205661E+03  0.21193565733E+03  0.00000000000E+00 0. -1.
         22    1    1    2    0    0 -0.36552616720E+02  0.46693020821E+01 -0.10609262208E+03  0.11231002017E+03  0.00000000000E+00 0. -1.
         22    1    1    2    0    0  0.61161099427E+02  0.16359189622E+02 -0.13139777727E+02  0.64660319571E+02  0.00000000000E+00 0.  1.
</event>
<event>
 6    1  0.1715574E-005  0.7091681E+02  0.7818608E-02  0.1382858E+00
          2   -1    0    0  502    0  0.00000000000E+00  0.00000000000E+00  0.98233479774E+03  0.98233479774E+03  0.00000000000E+00 0.  1.
          1   -1    0    0  501    0 -0.00000000000E+00 -0.00000000000E+00 -0.99284149377E+02  0.99284149377E+02  0.00000000000E+00 0. -1.
          2    1    1    2  501    0  0.52736994504E+02  0.41540725484E+01  0.78316750659E+03  0.78495209426E+03  0.00000000000E+00 0.  1.
          1    1    1    2  502    0 -0.78423641704E+02 -0.50501174369E+02 -0.39813458733E+02  0.10141867524E+03  0.00000000000E+00 0. -1.
         22    1    1    2    0    0 -0.10604754005E+02  0.58546972147E+02  0.10399757668E+02  0.60401686356E+02  0.00000000000E+00 0.  1.
         22    1    1    2    0    0  0.36291401205E+02 -0.12199870327E+02  0.12929684283E+03  0.13484649126E+03  0.00000000000E+00 0.  1.
</event>
<event>
 6    1  0.1715574E-005  0.8035824E+02  0.7818608E-02  0.1330328E+00
          2   -1    0    0  502    0  0.00000000000E+00  0.00000000000E+00  0.95977881999E+02  0.95977881999E+02  0.00000000000E+00 0.  1.
          1   -1    0    0  501    0 -0.00000000000E+00 -0.00000000000E+00 -0.81776125346E+02  0.81776125346E+02  0.00000000000E+00 0.  1.
          2    1    1    2  501    0  0.22212385683E+02  0.28606498949E+01  0.16026878995E+02  0.27539684927E+02  0.00000000000E+00 0.  1.
          1    1    1    2  502    0 -0.14054913107E+02 -0.22344612816E+02 -0.89937210365E+01  0.27887440227E+02  0.00000000000E+00 0.  1.
         22    1    1    2    0    0  0.44176862669E+02  0.32222689008E+02  0.31630997024E+02  0.63169746358E+02  0.00000000000E+00 0.  1.
         22    1    1    2    0    0 -0.52334335246E+02 -0.12738726088E+02 -0.24462398330E+02  0.59157135833E+02  0.00000000000E+00 0.  1.
</event>
<event>
 6    1  0.1715574E-005  0.4707132E+02  0.7818608E-02  0.1463055E+00
          2   -1    0    0  502    0  0.00000000000E+00  0.00000000000E+00  0.31979682886E+03  0.31979682886E+03  0.00000000000E+00 0. -1.
          1   -1    0    0  501    0 -0.00000000000E+00 -0.00000000000E+00 -0.81088351102E+02  0.81088351102E+02  0.00000000000E+00 0.  1.
          2    1    1    2  501    0  0.52806337295E+01 -0.29121149511E+02  0.22216368164E+03  0.22412636587E+03  0.00000000000E+00 0. -1.
          1    1    1    2  502    0 -0.63696410333E+01  0.23841292859E+02 -0.30368579731E+02  0.39130936699E+02  0.00000000000E+00 0.  1.
         22    1    1    2    0    0  0.35887340239E+01  0.21230577040E+02 -0.42033551317E+02  0.47227490402E+02  0.00000000000E+00 0. -1.
         22    1    1    2    0    0 -0.24997267201E+01 -0.15950720388E+02  0.88946927170E+02  0.90400386988E+02  0.00000000000E+00 0. -1.
</event>
<event>
 6    1  0.1715574E-005  0.8117589E+02  0.7818608E-02  0.1326064E+00
          2   -1    0    0  502    0  0.00000000000E+00  0.00000000000E+00  0.28686720691E+03  0.28686720691E+03  0.00000000000E+00 0. -1.
          1   -1    0    0  501    0 -0.00000000000E+00 -0.00000000000E+00 -0.53133334349E+02  0.53133334349E+02  0.00000000000E+00 0. -1.
          2    1    1    2  501    0  0.21146034999E+02  0.80786828368E+01  0.54672370995E+02  0.59173372921E+02  0.00000000000E+00 0. -1.
          1    1    1    2  502    0 -0.56345519079E+02  0.27552801332E+01 -0.98364270097E+00  0.56421420062E+02  0.00000000000E+00 0. -1.
         22    1    1    2    0    0  0.57264449312E+02 -0.32063720390E+01  0.19041130369E+03  0.19886166687E+03  0.00000000000E+00 0.  1.
         22    1    1    2    0    0 -0.22064965232E+02 -0.76275909310E+01 -0.10366159419E+02  0.25544081412E+02  0.00000000000E+00 0. -1.
</event>
<event>
 6    1  0.1715574E-005  0.7736761E+02  0.7818608E-02  0.1336999E+00
          2   -1    0    0  502    0  0.00000000000E+00  0.00000000000E+00  0.34296529000E+03  0.34296529000E+03  0.00000000000E+00 0. -1.
          1   -1    0    0  501    0 -0.00000000000E+00 -0.00000000000E+00 -0.13557054129E+03  0.13557054129E+03  0.00000000000E+00 0. -1.
          2    1    1    2  501    0  0.53578899691E+02  0.32381307056E+02  0.27723157252E+03  0.28421223115E+03  0.00000000000E+00 0. -1.
          1    1    1    2  502    0 -0.28162818451E+02 -0.12106974270E+02 -0.56141696159E+02  0.63965719074E+02  0.00000000000E+00 0. -1.
         22    1    1    2    0    0 -0.33428710263E+02 -0.31853325223E+02 -0.63549284437E+02  0.78553322973E+02  0.00000000000E+00 0. -1.
         22    1    1    2    0    0  0.80126290227E+01  0.11578992436E+02  0.49854156786E+02  0.51804558086E+02  0.00000000000E+00 0. -1.
</event>
<event>
 6    1  0.1715574E-005  0.5759530E+02  0.7818608E-02  0.1431583E+00
          2   -1    0    0  502    0  0.00000000000E+00  0.00000000000E+00  0.82000900036E+02  0.82000900036E+02  0.00000000000E+00 0.  1.
          1   -1    0    0  501    0 -0.00000000000E+00 -0.00000000000E+00 -0.20450443072E+03  0.20450443072E+03  0.00000000000E+00 0.  1.
          2    1    1    2  501    0  0.20796684543E+02  0.11252892688E+02  0.31454467674E+02  0.39351152695E+02  0.00000000000E+00 0.  1.
          1    1    1    2  502    0  0.51553577456E+00 -0.23079703575E+02 -0.10589000772E+03  0.10837726804E+03  0.00000000000E+00 0.  1.
         22    1    1    2    0    0 -0.32677545219E+02  0.27930098719E+01 -0.89263577710E+02  0.95097892570E+02  0.00000000000E+00 0. -1.
         22    1    1    2    0    0  0.11365324902E+02  0.90338010156E+01  0.41195587071E+02  0.43679017446E+02  0.00000000000E+00 0.  1.
</event>
<event>
 6    1  0.1715574E-005  0.9942562E+02  0.7818608E-02  0.1285537E+00
          2   -1    0    0  502    0  0.00000000000E+00  0.00000000000E+00  0.66342684454E+03  0.66342684454E+03  0.00000000000E+00 0.  1.
          1   -1    0    0  501    0 -0.00000000000E+00 -0.00000000000E+00 -0.25137951589E+02  0.25137951589E+02  0.00000000000E+00 0. -1.
          2    1    1    2  501    0 -0.36970241200E+02 -0.48511423790E+02  0.36554231468E+03  0.37059592657E+03  0.00000000000E+00 0.  1.
          1    1    1    2  502    0  0.14548300226E+02  0.37301748198E+02  0.58346467497E+02  0.70762869695E+02  0.00000000000E+00 0. -1.
         22    1    1    2    0    0 -0.30323055804E+02 -0.69577863645E+01  0.17776307260E+03  0.18046497856E+03  0.00000000000E+00 0.  1.
         22    1    1    2    0    0  0.52744996779E+02  0.18167461956E+02  0.36637038183E+02  0.66741021313E+02  0.00000000000E+00 0. -1.
</event>
<event>
 6    1  0.1715574E-005  0.1297080E+03  0.7818608E-02  0.1258348E+00
          2   -1    0    0  502    0  0.00000000000E+00  0.00000000000E+00  0.16861009576E+03  0.16861009576E+03  0.00000000000E+00 0.  1.
          1   -1    0    0  501    0 -0.00000000000E+00 -0.00000000000E+00 -0.14997159136E+03  0.14997159136E+03  0.00000000000E+00 0. -1.
          2    1    1    2  501    0 -0.12996367127E+02  0.22549441669E+02 -0.13031882557E+02  0.29106920845E+02  0.00000000000E+00 0.  1.
          1    1    1    2  502    0 -0.16932442659E+02 -0.51937827027E+02 -0.92095090487E+02  0.10707824794E+03  0.00000000000E+00 0. -1.
         22    1    1    2    0    0  0.40392869979E+02  0.40570665986E+02  0.14518520927E+03  0.15606507577E+03  0.00000000000E+00 0.  1.
         22    1    1    2    0    0 -0.10464060192E+02 -0.11182280629E+02 -0.21419731833E+02  0.26331442565E+02  0.00000000000E+00 0.  1.
</event>
<event>
 6    1  0.1715574E-005  0.8968786E+02  0.7818608E-02  0.1328992E+00
          2   -1    0    0  502    0  0.00000000000E+00  0.00000000000E+00  0.12248169639E+03  0.12248169639E+03  0.00000000000E+00 0.  1.
          1   -1    0    0  501    0 -0.00000000000E+00 -0.00000000000E+00 -0.12410886134E+03  0.12410886134E+03  0.00000000000E+00 0.  1.
          2    1    1    2  501    0  0.19770894115E+02  0.65770092731E+02  0.11774968446E+02  0.69679575443E+02  0.00000000000E+00 0.  1.
          1    1    1    2  502    0  0.19129002214E+02 -0.43404871672E+02 -0.59816695119E+01  0.47808806519E+02  0.00000000000E+00 0.  1.
         22    1    1    2    0    0 -0.41160029242E+02  0.39192244303E+02  0.21865805165E+02  0.60895758935E+02  0.00000000000E+00 0. -1.
         22    1    1    2    0    0  0.22601329133E+01 -0.61557465362E+02 -0.29286269053E+02  0.68206416836E+02  0.00000000000E+00 0.  1.
</event>
<event>
 6    1  0.1715574E-005  0.6984985E+02  0.7818608E-02  0.1399139E+00
          2   -1    0    0  502    0  0.00000000000E+00  0.00000000000E+00  0.65793113750E+03  0.65793113750E+03  0.00000000000E+00 0. -1.
          1   -1    0    0  501    0 -0.00000000000E+00 -0.00000000000E+00 -0.15085543515E+03  0.15085543515E+03  0.00000000000E+00 0. -1.
          2    1    1    2  501    0  0.21654202525E+02  0.62381831996E+02  0.55588144108E+03  0.55978975873E+03  0.00000000000E+00 0. -1.
          1    1    1    2  502    0  0.75263124525E+01 -0.55692968141E+02 -0.99020086830E+02  0.11385661893E+03  0.00000000000E+00 0. -1.
         22    1    1    2    0    0 -0.37118247046E+02  0.30985462202E+01  0.87866480272E+02  0.95435232529E+02  0.00000000000E+00 0. -1.
         22    1    1    2    0    0  0.79377320687E+01 -0.97874100755E+01 -0.37652132167E+02  0.39704962449E+02  0.00000000000E+00 0.  1.
</event>
<event>
 6    1  0.1715574E-005  0.2129856E+03  0.7818608E-02  0.1164416E+00
          2   -1    0    0  502    0  0.00000000000E+00  0.00000000000E+00  0.34510164771E+03  0.34510164771E+03  0.00000000000E+00 0. -1.
          1   -1    0    0  501    0 -0.00000000000E+00 -0.00000000000E+00 -0.79877564787E+02  0.79877564787E+02  0.00000000000E+00 0. -1.
          2    1    1    2  501    0 -0.35900157359E+02 -0.63826200788E+02  0.65304585291E+01  0.73520419572E+02  0.00000000000E+00 0. -1.
          1    1    1    2  502    0 -0.55752412489E+02  0.64990226331E+02  0.10046747798E+03  0.13200672388E+03  0.00000000000E+00 0. -1.
         22    1    1    2    0    0 -0.27939590140E+02 -0.71352920198E+01  0.14173822031E+02  0.32131453754E+02  0.00000000000E+00 0.  1.
         22    1    1    2    0    0  0.11959215999E+03  0.59712664766E+01  0.14405232438E+03  0.18732061529E+03  0.00000000000E+00 0. -1.
</event>
<event>
 6    1  0.1715574E-005  0.4411007E+02  0.7818608E-02  0.1563757E+00
          2   -1    0    0  502    0  0.00000000000E+00  0.00000000000E+00  0.36696287222E+03  0.36696287222E+03  0.00000000000E+00 0.  1.
          1   -1    0    0  501    0 -0.00000000000E+00 -0.00000000000E+00 -0.83654837973E+02  0.83654837973E+02  0.00000000000E+00 0.  1.
          2    1    1    2  501    0 -0.61759545398E+02 -0.29829625954E+02  0.25543268424E+03  0.26448044202E+03  0.00000000000E+00 0.  1.
          1    1    1    2  502    0  0.40039371870E+02  0.16096644028E+02  0.35892144566E+02  0.56129308656E+02  0.00000000000E+00 0.  1.
         22    1    1    2    0    0  0.20646884910E+02  0.23993684375E+02 -0.64894017893E+02  0.72202661341E+02  0.00000000000E+00 0.  1.
         22    1    1    2    0    0  0.10732886189E+01 -0.10260702448E+02  0.56877223333E+02  0.57805298177E+02  0.00000000000E+00 0.  1.
</event>
<event>
 6    1  0.1715574E-005  0.1338008E+03  0.7818608E-02  0.1341666E+00
          2   -1    0    0  502    0  0.00000000000E+00  0.00000000000E+00  0.21304848562E+03  0.21304848562E+03  0.00000000000E+00 0.  1.
          1   -1    0    0  501    0 -0.00000000000E+00 -0.00000000000E+00 -0.18348159233E+03  0.18348159233E+03  0.00000000000E+00 0. -1.
          2    1    1    2  501    0 -0.26929246022E+02 -0.23183997763E+02  0.54627205611E+02  0.65167581177E+02  0.00000000000E+00 0.  1.
          1    1    1    2  502    0  0.74515244623E+02  0.10059538711E+03 -0.10146219121E+03  0.16114133496E+03  0.00000000000E+00 0. -1.
         22    1    1    2    0    0 -0.69708597672E+01  0.11818604861E+02 -0.25411418965E+02  0.28879274932E+02  0.00000000000E+00 0.  1.
         22    1    1    2    0    0 -0.40615138834E+02 -0.89229994208E+02  0.10181329785E+03  0.14134188689E+03  0.00000000000E+00 0.  1.
</event>
<event>
 6    1  0.1715574E-005  0.7035881E+02  0.7818608E-02  0.1370227E+00
          2   -1    0    0  502    0  0.00000000000E+00  0.00000000000E+00  0.11127185855E+03  0.11127185855E+03  0.00000000000E+00 0.  1.
          1   -1    0    0  501    0 -0.00000000000E+00 -0.00000000000E+00 -0.13822896928E+03  0.13822896928E+03  0.00000000000E+00 0. -1.
          2    1    1    2  501    0  0.28414046246E+02 -0.50608258787E+01  0.20666120108E+02  0.35497302756E+02  0.00000000000E+00 0.  1.
          1    1    1    2  502    0 -0.37013655156E+02 -0.18165485217E+02 -0.69851131055E+02  0.81112120123E+02  0.00000000000E+00 0. -1.
         22    1    1    2    0    0 -0.13401151699E+02 -0.62378770175E+01 -0.49839185762E+02  0.51985059527E+02  0.00000000000E+00 0. -1.
         22    1    1    2    0    0  0.22000760609E+02  0.29464188113E+02  0.72067085983E+02  0.80906345429E+02  0.00000000000E+00 0.  1.
</event>
<event>
 6    1  0.1715574E-005  0.4259949E+02  0.7818608E-02  0.1491410E+00
          2   -1    0    0  502    0  0.00000000000E+00  0.00000000000E+00  0.11274727135E+03  0.11274727135E+03  0.00000000000E+00 0.  1.
          1   -1    0    0  501    0 -0.00000000000E+00 -0.00000000000E+00 -0.18745903095E+03  0.18745903095E+03  0.00000000000E+00 0.  1.
          2    1    1    2  501    0 -0.25266573981E+02 -0.15434845038E+02  0.65811539241E+02  0.72165039315E+02  0.00000000000E+00 0.  1.
          1    1    1    2  502    0  0.19521634413E+02  0.10571196379E+02 -0.95360143291E+02  0.97910169704E+02  0.00000000000E+00 0.  1.
         22    1    1    2    0    0  0.10957996252E+02  0.16149907611E+02 -0.85615349352E+02  0.87811646394E+02  0.00000000000E+00 0.  1.
         22    1    1    2    0    0 -0.52130566837E+01 -0.11286258953E+02  0.40452193799E+02  0.42319446881E+02  0.00000000000E+00 0. -1.
</event>
<event>
 6    1  0.1790853E-005  0.1880481E+03  0.7818608E-02  0.1161970E+00
          2   -1    0    0  502    0  0.00000000000E+00  0.00000000000E+00  0.13533700849E+03  0.13533700849E+03  0.00000000000E+00 0. -1.
          1   -1    0    0  501    0 -0.00000000000E+00 -0.00000000000E+00 -0.62763488877E+03  0.62763488877E+03  0.00000000000E+00 0. -1.
          2    1    1    2  501    0 -0.14337415746E+03  0.46950767538E+02  0.33586447794E+02  0.15455928660E+03  0.00000000000E+00 0. -1.
          1    1    1    2  502    0  0.14852999706E+03 -0.38000559906E+02 -0.41209719416E+03  0.43969227878E+03  0.00000000000E+00 0. -1.
         22    1    1    2    0    0 -0.18918062461E+02  0.20745037501E+02  0.17720968382E+02  0.33200638376E+02  0.00000000000E+00 0. -1.
         22    1    1    2    0    0  0.13762222858E+02 -0.29695245133E+02 -0.13150810229E+03  0.13551969351E+03  0.00000000000E+00 0. -1.
</event>
<event>
 6    1  0.1715574E-005  0.1790174E+03  0.7818608E-02  0.1189964E+00
          2   -1    0    0  502    0  0.00000000000E+00  0.00000000000E+00  0.10758317464E+03  0.10758317464E+03  0.00000000000E+00 0.  1.
          1   -1    0    0  501    0 -0.00000000000E+00 -0.00000000000E+00 -0.21695619864E+03  0.21695619864E+03  0.00000000000E+00 0.  1.
          2    1    1    2  501    0 -0.42477388650E+02 -0.69824746014E+02 -0.82971271438E+00  0.81734399891E+02  0.00000000000E+00 0.  1.
          1    1    1    2  502    0  0.64666104476E+02  0.16783316026E+02 -0.69481714645E+02  0.96390318159E+02  0.00000000000E+00 0.  1.
         22    1    1    2    0    0 -0.55370679453E+02  0.79373448321E+02 -0.15713539388E+02  0.98045763608E+02  0.00000000000E+00 0.  1.
         22    1    1    2    0    0  0.33181963627E+02 -0.26332018333E+02 -0.23348057256E+02  0.48368891627E+02  0.00000000000E+00 0.  1.
</event>
<event>
 6    1  0.1715574E-005  0.5693918E+02  0.7818608E-02  0.1412047E+00
          2   -1    0    0  502    0  0.00000000000E+00  0.00000000000E+00  0.56485410791E+02  0.56485410791E+02  0.00000000000E+00 0.  1.
          1   -1    0    0  501    0 -0.00000000000E+00 -0.00000000000E+00 -0.14081817785E+03  0.14081817785E+03  0.00000000000E+00 0.  1.
          2    1    1    2  501    0 -0.11261681987E+02 -0.17511070676E+02  0.58737864378E+01  0.21632485861E+02  0.00000000000E+00 0.  1.
          1    1    1    2  502    0 -0.26326216362E+01  0.22626961505E+02 -0.36410147039E+02  0.42948910243E+02  0.00000000000E+00 0.  1.
         22    1    1    2    0    0  0.16757840286E+02  0.28566235573E+02 -0.82167238834E+02  0.88590688921E+02  0.00000000000E+00 0.  1.
         22    1    1    2    0    0 -0.28635366635E+01 -0.33682126402E+02  0.28370832381E+02  0.44131503613E+02  0.00000000000E+00 0.  1.
</event>
<event>
 6    1  0.1715574E-005  0.5360946E+02  0.7818608E-02  0.1504983E+00
          2   -1    0    0  502    0  0.00000000000E+00  0.00000000000E+00  0.55256648122E+03  0.55256648122E+03  0.00000000000E+00 0. -1.
          1   -1    0    0  501    0 -0.00000000000E+00 -0.00000000000E+00 -0.29077771371E+03  0.29077771371E+03  0.00000000000E+00 0. -1.
          2    1    1    2  501    0 -0.57608004990E+01 -0.42407145846E+02 -0.16939400753E+03  0.17471657800E+03  0.00000000000E+00 0. -1.
          1    1    1    2  502    0  0.53449144527E+02  0.20380751609E+02  0.51096148586E+03  0.51415350443E+03  0.00000000000E+00 0. -1.
         22    1    1    2    0    0 -0.39146674727E+02  0.37142394265E+02 -0.10834807532E+03  0.12104265785E+03  0.00000000000E+00 0. -1.
         22    1    1    2    0    0 -0.85416693013E+01 -0.15116000027E+02  0.28569364504E+02  0.33431454642E+02  0.00000000000E+00 0.  1.
</event>
<event>
 6    1  0.1715574E-005  0.9429764E+02  0.7818608E-02  0.1298703E+00
          2   -1    0    0  502    0  0.00000000000E+00  0.00000000000E+00  0.61717357919E+03  0.61717357919E+03  0.00000000000E+00 0. -1.
          1   -1    0    0  501    0 -0.00000000000E+00 -0.00000000000E+00 -0.15473550558E+02  0.15473550558E+02  0.00000000000E+00 0.  1.
          2    1    1    2  501    0 -0.97463172278E+01  0.28035494674E+02  0.90471226414E+02  0.95215662944E+02  0.00000000000E+00 0. -1.
          1    1    1    2  502    0 -0.43338212844E+01 -0.41685399845E+02  0.97142317969E+02  0.10579737477E+03  0.00000000000E+00 0.  1.
         22    1    1    2    0    0  0.42722177353E+02  0.43094954544E+02  0.35197637262E+03  0.35716904461E+03  0.00000000000E+00 0. -1.
         22    1    1    2    0    0 -0.28642038841E+02 -0.29445049373E+02  0.62110111632E+02  0.74465047428E+02  0.00000000000E+00 0.  1.
</event>
<event>
 6    1  0.1715574E-005  0.6523904E+03  0.7818608E-02  0.1099997E+00
          2   -1    0    0  502    0  0.00000000000E+00  0.00000000000E+00  0.79792804966E+03  0.79792804966E+03  0.00000000000E+00 0. -1.
          1   -1    0    0  501    0 -0.00000000000E+00 -0.00000000000E+00 -0.58174045575E+03  0.58174045575E+03  0.00000000000E+00 0. -1.
          2    1    1    2  501    0  0.46864463263E+02  0.29409420168E+03 -0.22425430916E+02  0.29864791533E+03  0.00000000000E+00 0. -1.
          1    1    1    2  502    0  0.71034598929E+02 -0.63268649555E+03  0.28464592595E+03  0.69739617081E+03  0.00000000000E+00 0. -1.
         22    1    1    2    0    0 -0.98291630366E+02  0.34124946826E+03 -0.26965030680E+02  0.35614541562E+03  0.00000000000E+00 0.  1.
         22    1    1    2    0    0 -0.19607431826E+02 -0.26571743898E+01 -0.19067870438E+02  0.27479003650E+02  0.00000000000E+00 0.  1.
</event>
<event>
 6    1  0.1715574E-005  0.1157804E+03  0.7818608E-02  0.1254289E+00
          2   -1    0    0  502    0  0.00000000000E+00  0.00000000000E+00  0.56716872042E+03  0.56716872042E+03  0.00000000000E+00 0.  1.
          1   -1    0    0  501    0 -0.00000000000E+00 -0.00000000000E+00 -0.32705332273E+02  0.32705332273E+02  0.00000000000E+00 0.  1.
          2    1    1    2  501    0 -0.20992118055E+02  0.18817206988E+02  0.10758596369E+03  0.11121823538E+03  0.00000000000E+00 0.  1.
          1    1    1    2  502    0  0.78560824769E+02 -0.21284412005E+02  0.76466018528E+02  0.11167757775E+03  0.00000000000E+00 0.  1.
         22    1    1    2    0    0  0.15913797810E+02  0.30157860292E+02  0.25146694238E+02  0.42368640870E+02  0.00000000000E+00 0.  1.
         22    1    1    2    0    0 -0.73482504524E+02 -0.27690655275E+02  0.32526471169E+03  0.33460959869E+03  0.00000000000E+00 0.  1.
</event>
<event>
 6    1  0.1715574E-005  0.1918187E+03  0.7818608E-02  0.1191344E+00
          2   -1    0    0  502    0  0.00000000000E+00  0.00000000000E+00  0.17684036401E+03  0.17684036401E+03  0.00000000000E+00 0. -1.
          1   -1    0    0  501    0 -0.00000000000E+00 -0.00000000000E+00 -0.66333790929E+03  0.66333790929E+03  0.00000000000E+00 0. -1.
          2    1    1    2  501    0  0.38895161666E+01  0.15249683071E+03  0.34453440675E+01  0.15258532731E+03  0.00000000000E+00 0. -1.
          1    1    1    2  502    0 -0.75355523662E+02 -0.16262675882E+03 -0.50792642777E+03  0.53862340615E+03  0.00000000000E+00 0. -1.
         22    1    1    2    0    0 -0.11150820821E+02 -0.18934107630E+02 -0.38801452671E+02  0.44591411349E+02  0.00000000000E+00 0. -1.
         22    1    1    2    0    0  0.82616828316E+02  0.29064035732E+02  0.56784991097E+02  0.10437812849E+03  0.00000000000E+00 0.  1.
</event>
<event>
 6    1  0.1715574E-005  0.4878674E+02  0.7818608E-02  0.1456553E+00
          2   -1    0    0  502    0  0.00000000000E+00  0.00000000000E+00  0.30042447604E+03  0.30042447604E+03  0.00000000000E+00 0.  1.
          1   -1    0    0  501    0 -0.00000000000E+00 -0.00000000000E+00 -0.11719206158E+03  0.11719206158E+03  0.00000000000E+00 0.  1.
          2    1    1    2  501    0  0.27999187562E+01  0.31477695977E+02  0.24144056846E+03  0.24349996507E+03  0.00000000000E+00 0.  1.
          1    1    1    2  502    0 -0.90372433338E+00 -0.27932512914E+02 -0.42515620946E+02  0.50878482876E+02  0.00000000000E+00 0.  1.
         22    1    1    2    0    0 -0.46503742362E+01 -0.15685625262E+02 -0.67757924550E+02  0.69705101389E+02  0.00000000000E+00 0.  1.
         22    1    1    2    0    0  0.27541798134E+01  0.12140442200E+02  0.52065391494E+02  0.53532988284E+02  0.00000000000E+00 0. -1.
</event>
<event>
 6    1  0.1715574E-005  0.1433122E+03  0.7818608E-02  0.1254666E+00
          2   -1    0    0  502    0  0.00000000000E+00  0.00000000000E+00  0.22779964900E+03  0.22779964900E+03  0.00000000000E+00 0.  1.
          1   -1    0    0  501    0 -0.00000000000E+00 -0.00000000000E+00 -0.24941573165E+03  0.24941573165E+03  0.00000000000E+00 0. -1.
          2    1    1    2  501    0 -0.63855183469E+01 -0.55080143049E+02  0.18605658293E+03  0.19414337242E+03  0.00000000000E+00 0.  1.
          1    1    1    2  502    0  0.10352256159E+02  0.19106013276E+02 -0.12722441581E+03  0.12906688549E+03  0.00000000000E+00 0. -1.
         22    1    1    2    0    0  0.31525166485E+02 -0.38516087924E+00 -0.95858033338E+02  0.10090959829E+03  0.00000000000E+00 0. -1.
         22    1    1    2    0    0 -0.35491904297E+02  0.36359290652E+02  0.15409783568E+02  0.53095524453E+02  0.00000000000E+00 0. -1.
</event>
<event>
 6    1  0.1715574E-005  0.8841127E+02  0.7818608E-02  0.1371903E+00
          2   -1    0    0  502    0  0.00000000000E+00  0.00000000000E+00  0.12460520114E+03  0.12460520114E+03  0.00000000000E+00 0. -1.
          1   -1    0    0  501    0 -0.00000000000E+00 -0.00000000000E+00 -0.15260119351E+03  0.15260119351E+03  0.00000000000E+00 0.  1.
          2    1    1    2  501    0 -0.57437375330E+02 -0.38984903659E+02  0.32765556806E+02  0.76762337842E+02  0.00000000000E+00 0. -1.
          1    1    1    2  502    0  0.46949614984E+02  0.24532324428E+02 -0.47073113915E+02  0.70865925117E+02  0.00000000000E+00 0.  1.
         22    1    1    2    0    0 -0.27175166407E+02  0.87183260138E+01  0.48718188530E+02  0.56462029466E+02  0.00000000000E+00 0. -1.
         22    1    1    2    0    0  0.37662926753E+02  0.57342532176E+01 -0.62406623787E+02  0.73116102221E+02  0.00000000000E+00 0. -1.
</event>
<event>
 6    1  0.1715574E-005  0.8732205E+02  0.7818608E-02  0.1328173E+00
          2   -1    0    0  502    0  0.00000000000E+00  0.00000000000E+00  0.54006088425E+02  0.54006088425E+02  0.00000000000E+00 0. -1.
          1   -1    0    0  501    0 -0.00000000000E+00 -0.00000000000E+00 -0.27615868081E+03  0.27615868081E+03  0.00000000000E+00 0. -1.
          2    1    1    2  501    0  0.41307662042E+01  0.23384494330E+02  0.11892675469E+01  0.23776294114E+02  0.00000000000E+00 0. -1.
          1    1    1    2  502    0 -0.33997214930E+02  0.15814010924E+02 -0.14597885575E+03  0.15071735100E+03  0.00000000000E+00 0. -1.
         22    1    1    2    0    0  0.54057669652E+02 -0.33243200874E+02  0.10517935422E+02  0.64327047329E+02  0.00000000000E+00 0. -1.
         22    1    1    2    0    0 -0.24191220926E+02 -0.59553043807E+01 -0.87880939598E+02  0.91344076791E+02  0.00000000000E+00 0. -1.
</event>
<event>
 6    1  0.1715574E-005  0.1023792E+03  0.7818608E-02  0.1294319E+00
          2   -1    0    0  502    0  0.00000000000E+00  0.00000000000E+00  0.37478339716E+03  0.37478339716E+03  0.00000000000E+00 0. -1.
          1   -1    0    0  501    0 -0.00000000000E+00 -0.00000000000E+00 -0.68229339754E+02  0.68229339754E+02  0.00000000000E+00 0.  1.
          2    1    1    2  501    0 -0.93190780681E+02 -0.10765370396E+02  0.14225644455E+03  0.17040337679E+03  0.00000000000E+00 0. -1.
          1    1    1    2  502    0  0.75888923911E+02 -0.27695070621E+02  0.85055280750E+02  0.11730535577E+03  0.00000000000E+00 0.  1.
         22    1    1    2    0    0  0.48538839567E+02  0.52611591974E+02  0.29317406086E+01  0.71642122104E+02  0.00000000000E+00 0.  1.
         22    1    1    2    0    0 -0.31236982797E+02 -0.14151150957E+02  0.76310591493E+02  0.83661882251E+02  0.00000000000E+00 0. -1.
</event>
<event>
 6    1  0.1715574E-005  0.1255105E+03  0.7818608E-02  0.1238823E+00
          2   -1    0    0  502    0  0.00000000000E+00  0.00000000000E+00  0.35837560313E+03  0.35837560313E+03  0.00000000000E+00 0. -1.
          1   -1    0    0  501    0 -0.00000000000E+00 -0.00000000000E+00 -0.11739222391E+03  0.11739222391E+03  0.00000000000E+00 0. -1.
          2    1    1    2  501    0 -0.38921446754E+02 -0.41158624856E+02  0.96722143955E+02  0.11208962730E+03  0.00000000000E+00 0. -1.
          1    1    1    2  502    0  0.78842983389E+02  0.42306148037E+02 -0.69225741957E+02  0.11312926032E+03  0.00000000000E+00 0. -1.
         22    1    1    2    0    0  0.22249383280E+02 -0.45263246524E+01 -0.50970595497E+01  0.23270210297E+02  0.00000000000E+00 0.  1.
         22    1    1    2    0    0 -0.62170919915E+02  0.33788014718E+01  0.21858403677E+03  0.22727872912E+03  0.00000000000E+00 0. -1.
</event>
<event>
 6    1  0.1715574E-005  0.1828459E+03  0.7818608E-02  0.1166081E+00
          2   -1    0    0  502    0  0.00000000000E+00  0.00000000000E+00  0.53106572827E+02  0.53106572827E+02  0.00000000000E+00 0.  1.
          1   -1    0    0  501    0 -0.00000000000E+00 -0.00000000000E+00 -0.80608208469E+03  0.80608208469E+03  0.00000000000E+00 0.  1.
          2    1    1    2  501    0 -0.86089329047E+02 -0.83929506232E+02 -0.13890674228E+03  0.18371341171E+03  0.00000000000E+00 0.  1.
          1    1    1    2  502    0  0.11184019584E+03  0.89891282465E+02 -0.42726793785E+03  0.45071783056E+03  0.00000000000E+00 0.  1.
         22    1    1    2    0    0 -0.54467327284E+02 -0.20916055501E+02 -0.31874737221E+02  0.66484359004E+02  0.00000000000E+00 0. -1.
         22    1    1    2    0    0  0.28716460494E+02  0.14954279269E+02 -0.15492609451E+03  0.15827305624E+03  0.00000000000E+00 0.  1.
</event>
<event>
 6    1  0.1715574E-005  0.7731667E+02  0.7818608E-02  0.1397997E+00
          2   -1    0    0  502    0  0.00000000000E+00  0.00000000000E+00  0.92203182640E+03  0.92203182640E+03  0.00000000000E+00 0.  1.
          1   -1    0    0  501    0 -0.00000000000E+00 -0.00000000000E+00 -0.36562060353E+02  0.36562060353E+02  0.00000000000E+00 0.  1.
          2    1    1    2  501    0 -0.38224875303E+02  0.25171864279E+02  0.72935729239E+03  0.73079191553E+03  0.00000000000E+00 0.  1.
          1    1    1    2  502    0  0.31359937483E+02 -0.21752539530E+02  0.19949600247E+02  0.43065127481E+02  0.00000000000E+00 0.  1.
         22    1    1    2    0    0 -0.18257210741E+02  0.21185375257E+02  0.14565379617E+03  0.14831444369E+03  0.00000000000E+00 0.  1.
         22    1    1    2    0    0  0.25122148561E+02 -0.24604700006E+02 -0.94909227592E+01  0.36422400052E+02  0.00000000000E+00 0.  1.
</event>
<event>
 6    1  0.1715574E-005  0.1246674E+03  0.7818608E-02  0.1236215E+00
          2   -1    0    0  502    0  0.00000000000E+00  0.00000000000E+00  0.14239703652E+03  0.14239703652E+03  0.00000000000E+00 0.  1.
          1   -1    0    0  501    0 -0.00000000000E+00 -0.00000000000E+00 -0.30368955550E+03  0.30368955550E+03  0.00000000000E+00 0. -1.
          2    1    1    2  501    0 -0.50932375388E+02  0.66590826525E+02  0.89824540168E+02  0.12286941465E+03  0.00000000000E+00 0.  1.
          1    1    1    2  502    0  0.31239491545E+02 -0.62601392166E+02 -0.13400891793E+03  0.15117284881E+03  0.00000000000E+00 0. -1.
         22    1    1    2    0    0 -0.23679689431E+02  0.25615948698E+02  0.84965400031E+01  0.35903979045E+02  0.00000000000E+00 0. -1.
         22    1    1    2    0    0  0.43372573274E+02 -0.29605383057E+02 -0.12560468123E+03  0.13614034951E+03  0.00000000000E+00 0. -1.
</event>
<event>
 6    1  0.1715574E-005  0.4481702E+02  0.7818608E-02  0.1564848E+00
          2   -1    0    0  502    0  0.00000000000E+00  0.00000000000E+00  0.22064906760E+03  0.22064906760E+03  0.00000000000E+00 0.  1.
          1   -1    0    0  501    0 -0.00000000000E+00 -0.00000000000E+00 -0.13296986860E+03  0.13296986860E+03  0.00000000000E+00 0.  1.
          2    1    1    2  501    0 -0.47867416411E+01 -0.29270684926E+02  0.17704812538E+03  0.17951524891E+03  0.00000000000E+00 0.  1.
          1    1    1    2  502    0  0.98654955403E+01  0.18368909615E+02 -0.37269461109E+02  0.42705474755E+02  0.00000000000E+00 0.  1.
         22    1    1    2    0    0 -0.10084470308E+02 -0.90579594291E+01  0.37286591759E+02  0.39674085943E+02  0.00000000000E+00 0. -1.
         22    1    1    2    0    0  0.50057164084E+01  0.19959734740E+02 -0.89386057032E+02  0.91724126594E+02  0.00000000000E+00 0.  1.
</event>
<event>
 6    1  0.1715574E-005  0.7472322E+02  0.7818608E-02  0.1344898E+00
          2   -1    0    0  502    0  0.00000000000E+00  0.00000000000E+00  0.17382306959E+03  0.17382306959E+03  0.00000000000E+00 0. -1.
          1   -1    0    0  501    0 -0.00000000000E+00 -0.00000000000E+00 -0.17476807667E+03  0.17476807667E+03  0.00000000000E+00 0.  1.
          2    1    1    2  501    0 -0.50580119789E+02  0.18463682366E+02  0.89841744911E+02  0.10474156392E+03  0.00000000000E+00 0. -1.
          1    1    1    2  502    0  0.35403112201E+02 -0.24495861762E+02 -0.10425312179E+03  0.11279246872E+03  0.00000000000E+00 0.  1.
         22    1    1    2    0    0 -0.15508691061E+02  0.53182923261E+01  0.67201982996E+02  0.69173045692E+02  0.00000000000E+00 0. -1.
         22    1    1    2    0    0  0.30685698649E+02  0.71388706915E+00 -0.53735613203E+02  0.61884067923E+02  0.00000000000E+00 0. -1.
</event>
<event>
 6    1  0.1715574E-005  0.1203932E+03  0.7818608E-02  0.1310144E+00
          2   -1    0    0  502    0  0.00000000000E+00  0.00000000000E+00  0.21884091870E+03  0.21884091870E+03  0.00000000000E+00 0. -1.
          1   -1    0    0  501    0 -0.00000000000E+00 -0.00000000000E+00 -0.97431304570E+02  0.97431304570E+02  0.00000000000E+00 0. -1.
          2    1    1    2  501    0 -0.55945191157E+02  0.93295047581E+02  0.88826545169E+02  0.14044210709E+03  0.00000000000E+00 0. -1.
          1    1    1    2  502    0  0.75695976071E+01 -0.20716520212E+02  0.70475122325E+01  0.23154706785E+02  0.00000000000E+00 0. -1.
         22    1    1    2    0    0  0.79738535234E+02 -0.62595368291E+02 -0.12767741775E+02  0.10217352574E+03  0.00000000000E+00 0. -1.
         22    1    1    2    0    0 -0.31362941684E+02 -0.99831590770E+01  0.38303298500E+02  0.50501883651E+02  0.00000000000E+00 0. -1.
</event>
<event>
 6    1  0.1715574E-005  0.4344983E+02  0.7818608E-02  0.1496135E+00
          2   -1    0    0  502    0  0.00000000000E+00  0.00000000000E+00  0.34555691838E+03  0.34555691838E+03  0.00000000000E+00 0. -1.
          1   -1    0    0  501    0 -0.00000000000E+00 -0.00000000000E+00 -0.71194689918E+02  0.71194689918E+02  0.00000000000E+00 0.  1.
          2    1    1    2  501    0 -0.31728659518E+02  0.51408847403E+02  0.14094008508E+03  0.15334172625E+03  0.00000000000E+00 0. -1.
          1    1    1    2  502    0  0.29595893578E+02 -0.41953857360E+02 -0.30499334022E+02  0.59718108141E+02  0.00000000000E+00 0.  1.
         22    1    1    2    0    0  0.18749225690E+02  0.26015883597E+02 -0.30262112021E+01  0.32210520293E+02  0.00000000000E+00 0.  1.
         22    1    1    2    0    0 -0.16616459750E+02 -0.35470873639E+02  0.16694768860E+03  0.17148125361E+03  0.00000000000E+00 0. -1.
</event>
<event>
 6    1  0.1715574E-005  0.2527694E+03  0.7818608E-02  0.1136088E+00
          2   -1    0    0  502    0  0.00000000000E+00  0.00000000000E+00  0.34847544494E+03  0.34847544494E+03  0.00000000000E+00 0.  1.
          1   -1    0    0  501    0 -0.00000000000E+00 -0.00000000000E+00 -0.11237219195E+03  0.11237219195E+03  0.00000000000E+00 0.  1.
          2    1    1    2  501    0 -0.41712236278E+02  0.94429132047E+02  0.23803286876E+02  0.10594039881E+03  0.00000000000E+00 0.  1.
          1    1    1    2  502    0 -0.83436593633E+02 -0.51769432847E+02  0.92674363639E+02  0.13501954307E+03  0.00000000000E+00 0.  1.
         22    1    1    2    0    0 -0.90244729507E+01  0.30324165587E+02  0.23606945807E+02  0.39475106345E+02  0.00000000000E+00 0.  1.
         22    1    1    2    0    0  0.13417330286E+03 -0.72983864787E+02  0.96018656670E+02  0.18041258866E+03  0.00000000000E+00 0.  1.
</event>
<event>
 6    1  0.1715574E-005  0.1610390E+03  0.7818608E-02  0.1236296E+00
          2   -1    0    0  502    0  0.00000000000E+00  0.00000000000E+00  0.15476636826E+04  0.15476636826E+04  0.00000000000E+00 0.  1.
          1   -1    0    0  501    0 -0.00000000000E+00 -0.00000000000E+00 -0.11715645735E+03  0.11715645735E+03  0.00000000000E+00 0.  1.
          2    1    1    2  501    0  0.19344484284E+03 -0.18861528545E+03  0.13990879517E+03  0.30425499847E+03  0.00000000000E+00 0.  1.
          1    1    1    2  502    0 -0.14784071347E+03  0.23419603611E+03  0.97149441342E+03  0.10102009974E+04  0.00000000000E+00 0.  1.
         22    1    1    2    0    0  0.24159280499E+02  0.23848517336E+02  0.31222672588E+02  0.46122422929E+02  0.00000000000E+00 0. -1.
         22    1    1    2    0    0 -0.69763409874E+02 -0.69429267993E+02  0.28788134410E+03  0.30424172116E+03  0.00000000000E+00 0. -1.
</event>
<event>
 6    1  0.1715574E-005  0.1141754E+03  0.7818608E-02  0.1261058E+00
          2   -1    0    0  502    0  0.00000000000E+00  0.00000000000E+00  0.28881614401E+03  0.28881614401E+03  0.00000000000E+00 0. -1.
          1   -1    0    0  501    0 -0.00000000000E+00 -0.00000000000E+00 -0.41188175471E+02  0.41188175471E+02  0.00000000000E+00 0. -1.
          2    1    1    2  501    0  0.26313451342E+02 -0.22919752610E+02  0.72895494730E+02  0.80817485318E+02  0.00000000000E+00 0. -1.
          1    1    1    2  502    0 -0.49600473790E+02  0.15452160253E+02  0.49478521242E+02  0.71743294606E+02  0.00000000000E+00 0. -1.
         22    1    1    2    0    0  0.28092616139E+02 -0.54062598765E+02  0.81653472614E+02  0.10187860058E+03  0.00000000000E+00 0. -1.
         22    1    1    2    0    0 -0.48055936907E+01  0.61530191121E+02  0.43600479956E+02  0.75564938976E+02  0.00000000000E+00 0. -1.
</event>
<event>
 6    1  0.2460553E-005  0.1569364E+03  0.7818608E-02  0.1194327E+00
          2   -1    0    0  502    0  0.00000000000E+00  0.00000000000E+00  0.16796257546E+03  0.16796257546E+03  0.00000000000E+00 0. -1.
          1   -1    0    0  501    0 -0.00000000000E+00 -0.00000000000E+00 -0.93450508707E+03  0.93450508707E+03  0.00000000000E+00 0. -1.
          2    1    1    2  501    0 -0.27735101030E+02 -0.10127425722E+03  0.54596119215E+02  0.11834883708E+03  0.00000000000E+00 0. -1.
          1    1    1    2  502    0  0.43233718435E+02  0.13028952646E+03 -0.84176186789E+03  0.85288191290E+03  0.00000000000E+00 0. -1.
         22    1    1    2    0    0 -0.14565543559E+02 -0.40666211657E+02  0.69034311137E+02  0.81434832497E+02  0.00000000000E+00 0. -1.
         22    1    1    2    0    0 -0.93307384565E+00  0.11650942415E+02 -0.48411074065E+02  0.49802080058E+02  0.00000000000E+00 0. -1.
</event>
<event>
 6    1  0.1715574E-005  0.1111894E+03  0.7818608E-02  0.1259040E+00
          2   -1    0    0  502    0  0.00000000000E+00  0.00000000000E+00  0.70590971681E+02  0.70590971681E+02  0.00000000000E+00 0. -1.
          1   -1    0    0  501    0 -0.00000000000E+00 -0.00000000000E+00 -0.48365117711E+03  0.48365117711E+03  0.00000000000E+00 0.  1.
          2    1    1    2  501    0  0.53023945390E+02  0.76807429378E+02  0.13362085930E+02  0.94283961164E+02  0.00000000000E+00 0. -1.
          1    1    1    2  502    0 -0.39126948193E+01 -0.27776596771E+02 -0.78134120946E+02  0.83016801702E+02  0.00000000000E+00 0.  1.
         22    1    1    2    0    0 -0.44359400474E+02 -0.66228955036E+02 -0.35005084298E+03  0.35901201033E+03  0.00000000000E+00 0.  1.
         22    1    1    2    0    0 -0.47518500970E+01  0.17198122429E+02  0.17626725636E+01  0.17929375589E+02  0.00000000000E+00 0.  1.
</event>
<event>
 6    1  0.1715574E-005  0.2342857E+03  0.7818608E-02  0.1125890E+00
          2   -1    0    0  502    0  0.00000000000E+00  0.00000000000E+00  0.47694552149E+02  0.47694552149E+02  0.00000000000E+00 0.  1.
          1   -1    0    0  501    0 -0.00000000000E+00 -0.00000000000E+00 -0.11771185836E+04  0.11771185836E+04  0.00000000000E+00 0. -1.
          2    1    1    2  501    0 -0.14952036033E+03  0.20366647672E+02 -0.23385344560E+03  0.27831380223E+03  0.00000000000E+00 0.  1.
          1    1    1    2  502    0  0.11257087921E+03 -0.97675713926E+02 -0.48981532444E+03  0.51198808579E+03  0.00000000000E+00 0. -1.
         22    1    1    2    0    0 -0.35483942797E+02  0.72622236958E+02 -0.17853879645E+03  0.19598265570E+03  0.00000000000E+00 0.  1.
         22    1    1    2    0    0  0.72433423913E+02  0.46868292957E+01 -0.22721646495E+03  0.23852859203E+03  0.00000000000E+00 0. -1.
</event>
<event>
 6    1  0.1715574E-005  0.1108508E+03  0.7818608E-02  0.1363851E+00
          2   -1    0    0  502    0  0.00000000000E+00  0.00000000000E+00  0.61825463332E+03  0.61825463332E+03  0.00000000000E+00 0.  1.
          1   -1    0    0  501    0 -0.00000000000E+00 -0.00000000000E+00 -0.52240304847E+02  0.52240304847E+02  0.00000000000E+00 0. -1.
          2    1    1    2  501    0 -0.15101024343E+02 -0.72756401498E+02  0.30643063124E+03  0.31531138048E+03  0.00000000000E+00 0.  1.
          1    1    1    2  502    0  0.45002800199E+02  0.93294392240E+02  0.62600941622E+02  0.12102881286E+03  0.00000000000E+00 0. -1.
         22    1    1    2    0    0 -0.12180918604E+02  0.11205497745E+02 -0.13001262691E+02  0.21046871248E+02  0.00000000000E+00 0. -1.
         22    1    1    2    0    0 -0.17720857252E+02 -0.31743488487E+02  0.20998401830E+03  0.21310787359E+03  0.00000000000E+00 0.  1.
</event>
<event>
 6    1  0.1715574E-005  0.1483288E+03  0.7818608E-02  0.1208927E+00
          2   -1    0    0  502    0  0.00000000000E+00  0.00000000000E+00  0.60020240516E+03  0.60020240516E+03  0.00000000000E+00 0. -1.
          1   -1    0    0  501    0 -0.00000000000E+00 -0.00000000000E+00 -0.32490709448E+02  0.32490709448E+02  0.00000000000E+00 0. -1.
          2    1    1    2  501    0 -0.32479309959E+02 -0.18694088331E+02  0.24797200672E+02  0.44936351377E+02  0.00000000000E+00 0. -1.
          1    1    1    2  502    0  0.88421487676E+02  0.21679380553E+02  0.21194751871E+03  0.23067315776E+03  0.00000000000E+00 0. -1.
         22    1    1    2    0    0  0.27355428093E+02  0.54857734426E+01  0.18218509842E+02  0.33321573451E+02  0.00000000000E+00 0. -1.
         22    1    1    2    0    0 -0.83297605810E+02 -0.84710656643E+01  0.31274846648E+03  0.32376203201E+03  0.00000000000E+00 0. -1.
</event>
<event>
 6    1  0.1715574E-005  0.7173205E+02  0.7818608E-02  0.1354474E+00
          2   -1    0    0  502    0  0.00000000000E+00  0.00000000000E+00  0.75961691821E+02  0.75961691821E+02  0.00000000000E+00 0. -1.
          1   -1    0    0  501    0 -0.00000000000E+00 -0.00000000000E+00 -0.17149518595E+03  0.17149518595E+03  0.00000000000E+00 0. -1.
          2    1    1    2  501    0 -0.64290626726E+01  0.19455785258E+02  0.18398374590E+02  0.27538348070E+02  0.00000000000E+00 0. -1.
          1    1    1    2  502    0 -0.33336476666E+02 -0.25558356920E+02 -0.63260154233E+02  0.75936798711E+02  0.00000000000E+00 0. -1.
         22    1    1    2    0    0  0.38836180098E+02  0.32444652688E+02  0.30193997284E+02  0.58928616517E+02  0.00000000000E+00 0. -1.
         22    1    1    2    0    0  0.92935924011E+00 -0.26342081026E+02 -0.80865711765E+02  0.85053114468E+02  0.00000000000E+00 0. -1.
</event>
<event>
 6    1  0.1715574E-005  0.3562392E+02  0.7818608E-02  0.1614461E+00
          2   -1    0    0  502    0  0.00000000000E+00  0.00000000000E+00  0.78519660938E+02  0.78519660938E+02  0.00000000000E+00 0. -1.
          1   -1    0    0  501    0 -0.00000000000E+00 -0.00000000000E+00 -0.21281453646E+03  0.21281453646E+03  0.00000000000E+00 0.  1.
          2    1    1    2  501    0 -0.13375757404E+02  0.16088954635E+02  0.24228077289E+02  0.32011952089E+02  0.00000000000E+00 0. -1.
          1    1    1    2  502    0  0.14300711514E+02 -0.15475193649E+02 -0.12334667987E+03  0.12513351031E+03  0.00000000000E+00 0.  1.
         22    1    1    2    0    0 -0.22323250794E+01  0.14566268002E+02  0.47699549387E+02  0.49924006755E+02  0.00000000000E+00 0. -1.
         22    1    1    2    0    0  0.13073709690E+01 -0.15180028988E+02 -0.82875822330E+02  0.84264728243E+02  0.00000000000E+00 0.  1.
</event>
<event>
 6    1  0.1715574E-005  0.1675550E+03  0.7818608E-02  0.1180499E+00
          2   -1    0    0  502    0  0.00000000000E+00  0.00000000000E+00  0.60861211234E+03  0.60861211234E+03  0.00000000000E+00 0.  1.
          1   -1    0    0  501    0 -0.00000000000E+00 -0.00000000000E+00 -0.51440409759E+02  0.51440409759E+02  0.00000000000E+00 0.  1.
          2    1    1    2  501    0 -0.91733788338E+02  0.13633905509E+02  0.17699759336E+03  0.19982271982E+03  0.00000000000E+00 0.  1.
          1    1    1    2  502    0  0.12893874939E+03 -0.12440962585E+02  0.15262218653E+03  0.20018369181E+03  0.00000000000E+00 0.  1.
         22    1    1    2    0    0 -0.71703706115E+02 -0.33077111961E+01  0.20864997436E+03  0.22065170342E+03  0.00000000000E+00 0. -1.
         22    1    1    2    0    0  0.34498745062E+02  0.21147682716E+01  0.18901948330E+02  0.39394407044E+02  0.00000000000E+00 0. -1.
</event>
<event>
 6    1  0.1715574E-005  0.4244898E+02  0.7818608E-02  0.1568835E+00
          2   -1    0    0  502    0  0.00000000000E+00  0.00000000000E+00  0.29722043490E+03  0.29722043490E+03  0.00000000000E+00 0. -1.
          1   -1    0    0  501    0 -0.00000000000E+00 -0.00000000000E+00 -0.16353057401E+03  0.16353057401E+03  0.00000000000E+00 0.  1.
          2    1    1    2  501    0  0.39384214822E+02 -0.17282185267E+02  0.19734034815E+03  0.20197277864E+03  0.00000000000E+00 0. -1.
          1    1    1    2  502    0 -0.34184395860E+02 -0.33461711896E+02 -0.10579732170E+03  0.11610913988E+03  0.00000000000E+00 0.  1.
         22    1    1    2    0    0 -0.11433241190E+02  0.37889275427E+02 -0.41771845725E+02  0.57543055983E+02  0.00000000000E+00 0. -1.
         22    1    1    2    0    0  0.62334222281E+01  0.12854621736E+02  0.83918680166E+02  0.85126034405E+02  0.00000000000E+00 0. -1.
</event>
<event>
 6    1  0.1715574E-005  0.2461119E+03  0.7818608E-02  0.1121558E+00
          2   -1    0    0  502    0  0.00000000000E+00  0.00000000000E+00  0.43541182468E+02  0.43541182468E+02  0.00000000000E+00 0.  1.
          1   -1    0    0  501    0 -0.00000000000E+00 -0.00000000000E+00 -0.12101111800E+04  0.12101111800E+04  0.00000000000E+00 0.  1.
          2    1    1    2  501    0  0.16050160932E+02 -0.36719993849E+02 -0.11942159703E+03  0.12596619964E+03  0.00000000000E+00 0.  1.
          1    1    1    2  502    0 -0.18839205001E+03 -0.37133045039E+02 -0.50900786841E+03  0.54402154152E+03  0.00000000000E+00 0.  1.
         22    1    1    2    0    0 -0.12787209862E+02 -0.15245190734E+02 -0.36296309952E+02  0.41392640562E+02  0.00000000000E+00 0.  1.
         22    1    1    2    0    0  0.18512909894E+03  0.89098229622E+02 -0.50184422210E+03  0.54227198070E+03  0.00000000000E+00 0.  1.
</event>
<event>
 6    1  0.1715574E-005  0.1430529E+03  0.7818608E-02  0.1292215E+00
          2   -1    0    0  502    0  0.00000000000E+00  0.00000000000E+00  0.56635109401E+03  0.56635109401E+03  0.00000000000E+00 0.  1.
          1   -1    0    0  501    0 -0.00000000000E+00 -0.00000000000E+00 -0.68008369612E+02  0.68008369612E+02  0.00000000000E+00 0.  1.
          2    1    1    2  501    0  0.12351970763E+03 -0.50971428266E+02  0.29504003556E+03  0.32388860316E+03  0.00000000000E+00 0.  1.
          1    1    1    2  502    0 -0.86167835764E+02  0.28417329705E+02  0.40183721173E+02  0.99232917901E+02  0.00000000000E+00 0.  1.
         22    1    1    2    0    0 -0.53801145822E+02  0.78088444940E+00  0.87961513630E+01  0.54521054200E+02  0.00000000000E+00 0.  1.
         22    1    1    2    0    0  0.16449273953E+02  0.21773214112E+02  0.15432281631E+03  0.15671688836E+03  0.00000000000E+00 0. -1.
</event>
<event>
 6    1  0.1715574E-005  0.9222462E+02  0.7818608E-02  0.1298702E+00
          2   -1    0    0  502    0  0.00000000000E+00  0.00000000000E+00  0.41988148131E+02  0.41988148131E+02  0.00000000000E+00 0. -1.
          1   -1    0    0  501    0 -0.00000000000E+00 -0.00000000000E+00 -0.26143224356E+03  0.26143224356E+03  0.00000000000E+00 0. -1.
          2    1    1    2  501    0  0.74361345108E+01 -0.49981176533E+02 -0.35053760387E+02  0.61499432692E+02  0.00000000000E+00 0. -1.
          1    1    1    2  502    0 -0.66095656630E+01  0.33164774108E+02 -0.49402204097E+02  0.59867907676E+02  0.00000000000E+00 0. -1.
         22    1    1    2    0    0  0.30184655569E+01  0.54134275982E+02 -0.13396822149E+03  0.14452375355E+03  0.00000000000E+00 0.  1.
         22    1    1    2    0    0 -0.38450344047E+01 -0.37317873556E+02 -0.10199094575E+01  0.37529297777E+02  0.00000000000E+00 0. -1.
</event>
<event>
 6    1  0.1715574E-005  0.9890525E+02  0.7818608E-02  0.1355215E+00
          2   -1    0    0  502    0  0.00000000000E+00  0.00000000000E+00  0.39642155619E+03  0.39642155619E+03  0.00000000000E+00 0. -1.
          1   -1    0    0  501    0 -0.00000000000E+00 -0.00000000000E+00 -0.70482006496E+02  0.70482006496E+02  0.00000000000E+00 0. -1.
          2    1    1    2  501    0 -0.62902870226E+01 -0.81722430123E+02  0.25620439460E+03  0.26899593883E+03  0.00000000000E+00 0. -1.
          1    1    1    2  502    0 -0.40128017878E+01  0.56241991194E+02  0.45324043216E+01  0.56566835165E+02  0.00000000000E+00 0. -1.
         22    1    1    2    0    0 -0.14660873626E+02  0.35618467271E+02 -0.25848142627E+02  0.46386882881E+02  0.00000000000E+00 0.  1.
         22    1    1    2    0    0  0.24963962437E+02 -0.10138028342E+02  0.91050893403E+02  0.94953905811E+02  0.00000000000E+00 0. -1.
</event>
<event>
 6    1  0.1715574E-005  0.4659773E+02  0.7818608E-02  0.1538697E+00
          2   -1    0    0  502    0  0.00000000000E+00  0.00000000000E+00  0.20478385078E+03  0.20478385078E+03  0.00000000000E+00 0. -1.
          1   -1    0    0  501    0 -0.00000000000E+00 -0.00000000000E+00 -0.10451868915E+03  0.10451868915E+03  0.00000000000E+00 0. -1.
          2    1    1    2  501    0 -0.47230137637E+02  0.29354526508E+02  0.10896369547E+03  0.12233340124E+03  0.00000000000E+00 0. -1.
          1    1    1    2  502    0  0.35339550606E+02  0.51955976669E+01 -0.38986324558E+02  0.52875434511E+02  0.00000000000E+00 0. -1.
         22    1    1    2    0    0  0.28197517932E+01 -0.48763947746E+02  0.73192612576E+02  0.87994500598E+02  0.00000000000E+00 0. -1.
         22    1    1    2    0    0  0.90708352378E+01  0.14213823571E+02 -0.42904821854E+02  0.46099203580E+02  0.00000000000E+00 0. -1.
</event>
<event>
 6    1  0.1715574E-005  0.4834656E+02  0.7818608E-02  0.1460259E+00
          2   -1    0    0  502    0  0.00000000000E+00  0.00000000000E+00  0.13568063782E+03  0.13568063782E+03  0.00000000000E+00 0. -1.
          1   -1    0    0  501    0 -0.00000000000E+00 -0.00000000000E+00 -0.30155662954E+03  0.30155662954E+03  0.00000000000E+00 0. -1.
          2    1    1    2  501    0  0.12888898563E+02 -0.27884547178E+02  0.63983507777E+02  0.70975777171E+02  0.00000000000E+00 0. -1.
          1    1    1    2  502    0 -0.10087870657E+02  0.32236006098E+02 -0.23980223502E+03  0.24216943891E+03  0.00000000000E+00 0. -1.
         22    1    1    2    0    0 -0.39273920320E+01 -0.14647318410E+02  0.65676269610E+02  0.67404307982E+02  0.00000000000E+00 0. -1.
         22    1    1    2    0    0  0.11263641264E+01  0.10295859490E+02 -0.55733534084E+02  0.56687743299E+02  0.00000000000E+00 0. -1.
</event>
<event>
 6    1  0.1715574E-005  0.1165364E+03  0.7818608E-02  0.1267776E+00
          2   -1    0    0  502    0  0.00000000000E+00  0.00000000000E+00  0.84385494865E+02  0.84385494865E+02  0.00000000000E+00 0. -1.
          1   -1    0    0  501    0 -0.00000000000E+00 -0.00000000000E+00 -0.59395665536E+03  0.59395665536E+03  0.00000000000E+00 0.  1.
          2    1    1    2  501    0 -0.16803287747E+02 -0.41226578193E+02 -0.10121101931E+02  0.45655426106E+02  0.00000000000E+00 0. -1.
          1    1    1    2  502    0  0.59627382573E+02  0.18447083040E+02 -0.49492087727E+03  0.49884105122E+03  0.00000000000E+00 0.  1.
         22    1    1    2    0    0 -0.56549806899E+02  0.17762744475E+02  0.49904433897E+02  0.77484503446E+02  0.00000000000E+00 0. -1.
         22    1    1    2    0    0  0.13725712074E+02  0.50167506781E+01 -0.54433615201E+02  0.56361169462E+02  0.00000000000E+00 0.  1.
</event>
<event>
 6    1  0.1715574E-005  0.6232222E+02  0.7818608E-02  0.1400148E+00
          2   -1    0    0  502    0  0.00000000000E+00  0.00000000000E+00  0.12277628319E+03  0.12277628319E+03  0.00000000000E+00 0. -1.
          1   -1    0    0  501    0 -0.00000000000E+00 -0.00000000000E+00 -0.15859629158E+03  0.15859629158E+03  0.00000000000E+00 0.  1.
          2    1    1    2  501    0  0.21291339958E+02 -0.51974196206E+01  0.19254777199E+02  0.29173288688E+02  0.00000000000E+00 0. -1.
          1    1    1    2  502    0  0.18917472452E+02  0.12104987046E+02 -0.10947023547E+03  0.11175031960E+03  0.00000000000E+00 0.  1.
         22    1    1    2    0    0 -0.25232207142E+02 -0.24194388589E+02  0.90889216657E+02  0.97380092529E+02  0.00000000000E+00 0. -1.
         22    1    1    2    0    0 -0.14976605267E+02  0.17286821163E+02 -0.36493766767E+02  0.43068873959E+02  0.00000000000E+00 0. -1.
</event>
<event>
 6    1  0.1715574E-005  0.3676538E+02  0.7818608E-02  0.1568927E+00
          2   -1    0    0  502    0  0.00000000000E+00  0.00000000000E+00  0.17595954052E+03  0.17595954052E+03  0.00000000000E+00 0.  1.
          1   -1    0    0  501    0 -0.00000000000E+00 -0.00000000000E+00 -0.69046494100E+02  0.69046494100E+02  0.00000000000E+00 0. -1.
          2    1    1    2  501    0  0.39503051117E+01  0.26792222329E+02  0.94599890334E+02  0.98400037292E+02  0.00000000000E+00 0.  1.
          1    1    1    2  502    0 -0.11085474438E+02 -0.20763609312E+02  0.10705413255E+02  0.25857708486E+02  0.00000000000E+00 0. -1.
         22    1    1    2    0    0 -0.42529343172E+01  0.14329819246E+02  0.57908341494E+02  0.59806414242E+02  0.00000000000E+00 0.  1.
         22    1    1    2    0    0  0.11388103643E+02 -0.20358432263E+02 -0.56300598668E+02  0.60941874595E+02  0.00000000000E+00 0. -1.
</event>
<event>
 6    1  0.1715574E-005  0.3069708E+03  0.7818608E-02  0.1093660E+00
          2   -1    0    0  502    0  0.00000000000E+00  0.00000000000E+00  0.33973077851E+03  0.33973077851E+03  0.00000000000E+00 0.  1.
          1   -1    0    0  501    0 -0.00000000000E+00 -0.00000000000E+00 -0.20805802694E+03  0.20805802694E+03  0.00000000000E+00 0.  1.
          2    1    1    2  501    0  0.62297598893E+02  0.12634039677E+03  0.85915784667E+02  0.16499820829E+03  0.00000000000E+00 0.  1.
          1    1    1    2  502    0  0.87326862621E+02 -0.15456073759E+03  0.62289825493E+02  0.18813565558E+03  0.00000000000E+00 0.  1.
         22    1    1    2    0    0 -0.20573279205E+02 -0.40993508512E+02  0.67989627392E+01  0.46367590532E+02  0.00000000000E+00 0.  1.
         22    1    1    2    0    0 -0.12905118231E+03  0.69213849335E+02 -0.23331821323E+02  0.14828735105E+03  0.00000000000E+00 0.  1.
</event>
<event>
 6    1  0.1715574E-005  0.7993025E+02  0.7818608E-02  0.1330763E+00
          2   -1    0    0  502    0  0.00000000000E+00  0.00000000000E+00  0.22510623257E+03  0.22510623257E+03  0.00000000000E+00 0.  1.
          1   -1    0    0  501    0 -0.00000000000E+00 -0.00000000000E+00 -0.87127245565E+02  0.87127245565E+02  0.00000000000E+00 0. -1.
          2    1    1    2  501    0  0.35424380683E+02 -0.20432378515E+02  0.77537824686E+02  0.87661183517E+02  0.00000000000E+00 0.  1.
          1    1    1    2  502    0 -0.41448724751E+02  0.40102516071E+02 -0.33005666331E+02  0.66449850178E+02  0.00000000000E+00 0. -1.
         22    1    1    2    0    0 -0.11089052493E+02  0.12510324894E+02 -0.27290381041E+02  0.32003753085E+02  0.00000000000E+00 0. -1.
         22    1    1    2    0    0  0.17113396561E+02 -0.32180462451E+02  0.12073720969E+03  0.12611869136E+03  0.00000000000E+00 0.  1.
</event>
<event>
 6    1  0.1715574E-005  0.7108322E+02  0.7818608E-02  0.1421724E+00
          2   -1    0    0  502    0  0.00000000000E+00  0.00000000000E+00  0.15876628336E+03  0.15876628336E+03  0.00000000000E+00 0. -1.
          1   -1    0    0  501    0 -0.00000000000E+00 -0.00000000000E+00 -0.29833555415E+03  0.29833555415E+03  0.00000000000E+00 0.  1.
          2    1    1    2  501    0 -0.16682460482E+02 -0.92109650749E+02  0.10642707724E+03  0.14173642799E+03  0.00000000000E+00 0. -1.
          1    1    1    2  502    0 -0.12108677399E+01  0.29613716054E+02 -0.13071248111E+03  0.13403056031E+03  0.00000000000E+00 0.  1.
         22    1    1    2    0    0  0.11571760854E+02  0.38464608859E+02 -0.14038259721E+03  0.14601611343E+03  0.00000000000E+00 0.  1.
         22    1    1    2    0    0  0.63215673678E+01  0.24031325835E+02  0.25098730274E+02  0.35318735775E+02  0.00000000000E+00 0. -1.
</event>
<event>
 6    1  0.1715574E-005  0.1237001E+03  0.7818608E-02  0.1329064E+00
          2   -1    0    0  502    0  0.00000000000E+00  0.00000000000E+00  0.55823202668E+03  0.55823202668E+03  0.00000000000E+00 0. -1.
          1   -1    0    0  501    0 -0.00000000000E+00 -0.00000000000E+00 -0.68845262609E+02  0.68845262609E+02  0.00000000000E+00 0.  1.
          2    1    1    2  501    0 -0.48127251031E+02  0.11585604529E+03  0.40195147032E+03  0.42107462523E+03  0.00000000000E+00 0. -1.
          1    1    1    2  502    0  0.82304506181E+01 -0.18852117676E+02  0.85327083856E+01  0.22269929740E+02  0.00000000000E+00 0.  1.
         22    1    1    2    0    0  0.21469444901E+02  0.26705824793E+01  0.79475416515E+02  0.82367535506E+02  0.00000000000E+00 0. -1.
         22    1    1    2    0    0  0.18427355512E+02 -0.99674510097E+02 -0.57283114866E+00  0.10136519881E+03  0.00000000000E+00 0.  1.
</event>
<event>
 6    1  0.1715574E-005  0.1085629E+03  0.7818608E-02  0.1324678E+00
          2   -1    0    0  502    0  0.00000000000E+00  0.00000000000E+00  0.14178617556E+04  0.14178617556E+04  0.00000000000E+00 0.  1.
          1   -1    0    0  501    0 -0.00000000000E+00 -0.00000000000E+00 -0.12878425819E+03  0.12878425819E+03  0.00000000000E+00 0. -1.
          2    1    1    2  501    0 -0.29520465631E+02  0.72478065594E+02  0.12160459588E+04  0.12185615708E+04  0.00000000000E+00 0.  1.
          1    1    1    2  502    0  0.44586810865E+02 -0.78899037367E+02 -0.86115773160E+02  0.12501587174E+03  0.00000000000E+00 0. -1.
         22    1    1    2    0    0 -0.29676741642E+02  0.17761423471E+02  0.17519846344E+03  0.17857961460E+03  0.00000000000E+00 0. -1.
         22    1    1    2    0    0  0.14610396408E+02 -0.11340451698E+02 -0.16051151677E+02  0.24488956656E+02  0.00000000000E+00 0. -1.
</event>
<event>
 6    1  0.1715574E-005  0.9067052E+02  0.7818608E-02  0.1305428E+00
          2   -1    0    0  502    0  0.00000000000E+00  0.00000000000E+00  0.61178623768E+03  0.61178623768E+03  0.00000000000E+00 0.  1.
          1   -1    0    0  501    0 -0.00000000000E+00 -0.00000000000E+00 -0.44611819852E+02  0.44611819852E+02  0.00000000000E+00 0.  1.
          2    1    1    2  501    0  0.24503681414E+02 -0.31165902634E+02  0.29565167819E+03  0.29829793614E+03  0.00000000000E+00 0.  1.
          1    1    1    2  502    0 -0.35918535458E+02  0.51989573196E+02  0.70615539405E+01  0.63583979543E+02  0.00000000000E+00 0.  1.
         22    1    1    2    0    0 -0.27422385937E+02 -0.48526366407E+00  0.10132698915E+01  0.27445390272E+02  0.00000000000E+00 0. -1.
         22    1    1    2    0    0  0.38837239981E+02 -0.20338406897E+02  0.26344791580E+03  0.26707075157E+03  0.00000000000E+00 0. -1.
</event>
<event>
 6    1  0.1715574E-005  0.9118039E+02  0.7818608E-02  0.1301003E+00
          2   -1    0    0  502    0  0.00000000000E+00  0.00000000000E+00  0.24006561031E+03  0.24006561031E+03  0.00000000000E+00 0. -1.
          1   -1    0    0  501    0 -0.00000000000E+00 -0.00000000000E+00 -0.21203852284E+03  0.21203852284E+03  0.00000000000E+00 0.  1.
          2    1    1    2  501    0  0.69591660554E+02 -0.72651439441E+01  0.14233269029E+03  0.15860131229E+03  0.00000000000E+00 0. -1.
          1    1    1    2  502    0 -0.63385788324E+02  0.13367049861E+02 -0.15115350194E+03  0.16445004510E+03  0.00000000000E+00 0.  1.
         22    1    1    2    0    0 -0.23067303391E+02 -0.71470015138E+01 -0.41982470918E+02  0.48432509544E+02  0.00000000000E+00 0.  1.
         22    1    1    2    0    0  0.16861431160E+02  0.10450955968E+01  0.78830370031E+02  0.80620266216E+02  0.00000000000E+00 0. -1.
</event>
<event>
 6    1  0.1715574E-005  0.3066039E+02  0.7818608E-02  0.1607386E+00
          2   -1    0    0  502    0  0.00000000000E+00  0.00000000000E+00  0.49194422461E+03  0.49194422461E+03  0.00000000000E+00 0. -1.
          1   -1    0    0  501    0 -0.00000000000E+00 -0.00000000000E+00 -0.83864449537E+02  0.83864449537E+02  0.00000000000E+00 0. -1.
          2    1    1    2  501    0  0.28543013512E+02  0.48625310560E+02  0.40561812302E+03  0.40951823668E+03  0.00000000000E+00 0. -1.
          1    1    1    2  502    0 -0.36239249707E+02 -0.21772443483E+02  0.81462844263E+00  0.42284585064E+02  0.00000000000E+00 0. -1.
         22    1    1    2    0    0 -0.14145036267E+02 -0.14759876036E+02  0.58469671838E+02  0.61940604747E+02  0.00000000000E+00 0.  1.
         22    1    1    2    0    0  0.21841272462E+02 -0.12092991041E+02 -0.56822648229E+02  0.62065247658E+02  0.00000000000E+00 0. -1.
</event>
<event>
 6    1  0.1715574E-005  0.8290979E+02  0.7818608E-02  0.1340083E+00
          2   -1    0    0  502    0  0.00000000000E+00  0.00000000000E+00  0.34113844634E+03  0.34113844634E+03  0.00000000000E+00 0. -1.
          1   -1    0    0  501    0 -0.00000000000E+00 -0.00000000000E+00 -0.62394233038E+02  0.62394233038E+02  0.00000000000E+00 0. -1.
          2    1    1    2  501    0  0.36635757761E+02 -0.26178647003E+02  0.23440851291E+03  0.23869405361E+03  0.00000000000E+00 0. -1.
          1    1    1    2  502    0 -0.22140338257E+02 -0.98828189813E+01  0.46372089071E+01  0.24685388301E+02  0.00000000000E+00 0. -1.
         22    1    1    2    0    0  0.35639656707E+01 -0.13789016266E+02  0.75074924452E+02  0.76413893386E+02  0.00000000000E+00 0.  1.
         22    1    1    2    0    0 -0.18059385175E+02  0.49850482251E+02 -0.35376432970E+02  0.63739344076E+02  0.00000000000E+00 0. -1.
</event>
<event>
 6    1  0.1715574E-005  0.9157677E+02  0.7818608E-02  0.1319587E+00
          2   -1    0    0  502    0  0.00000000000E+00  0.00000000000E+00  0.34551071553E+03  0.34551071553E+03  0.00000000000E+00 0.  1.
          1   -1    0    0  501    0 -0.00000000000E+00 -0.00000000000E+00 -0.38716184060E+02  0.38716184060E+02  0.00000000000E+00 0. -1.
          2    1    1    2  501    0 -0.19612531637E+02 -0.22602124708E+02  0.65059826675E+02  0.71612069413E+02  0.00000000000E+00 0.  1.
          1    1    1    2  502    0 -0.34576272302E+02  0.23800434254E+02  0.82148907003E+01  0.42772230550E+02  0.00000000000E+00 0. -1.
         22    1    1    2    0    0  0.54457053624E+02 -0.19311676003E+02  0.24273568277E+03  0.24951778135E+03  0.00000000000E+00 0.  1.
         22    1    1    2    0    0 -0.26824968498E+00  0.18113366457E+02 -0.92158686810E+01  0.20324818273E+02  0.00000000000E+00 0. -1.
</event>
<event>
 6    1  0.1715574E-005  0.8038796E+02  0.7818608E-02  0.1417674E+00
          2   -1    0    0  502    0  0.00000000000E+00  0.00000000000E+00  0.20624780285E+03  0.20624780285E+03  0.00000000000E+00 0.  1.
          1   -1    0    0  501    0 -0.00000000000E+00 -0.00000000000E+00 -0.16519859180E+03  0.16519859180E+03  0.00000000000E+00 0. -1.
          2    1    1    2  501    0  0.24814393091E+02 -0.33549346130E+01  0.40161854390E+02  0.47328471757E+02  0.00000000000E+00 0.  1.
          1    1    1    2  502    0 -0.74840504261E+02 -0.18762115375E+02 -0.11942184612E+03  0.14217839281E+03  0.00000000000E+00 0. -1.
         22    1    1    2    0    0  0.53607356506E+02  0.41859947298E+01  0.14301336266E+03  0.15278773878E+03  0.00000000000E+00 0.  1.
         22    1    1    2    0    0 -0.35812453360E+01  0.17931055259E+02 -0.22704159882E+02  0.29151791314E+02  0.00000000000E+00 0. -1.
</event>
<event>
 6    1  0.1715574E-005  0.2394660E+03  0.7818608E-02  0.1150304E+00
          2   -1    0    0  502    0  0.00000000000E+00  0.00000000000E+00  0.97792961044E+03  0.97792961044E+03  0.00000000000E+00 0.  1.
          1   -1    0    0  501    0 -0.00000000000E+00 -0.00000000000E+00 -0.91683940716E+02  0.91683940716E+02  0.00000000000E+00 0.  1.
          2    1    1    2  501    0 -0.17492042516E+02  0.14697648551E+03  0.84180670033E+03  0.85472017618E+03  0.00000000000E+00 0.  1.
          1    1    1    2  502    0  0.60614203546E+01 -0.50148620015E+02  0.15872873969E+02  0.52948777456E+02  0.00000000000E+00 0.  1.
         22    1    1    2    0    0 -0.73115424194E+01 -0.44696530165E+02 -0.48936623052E+02  0.66678568799E+02  0.00000000000E+00 0.  1.
         22    1    1    2    0    0  0.18742164581E+02 -0.52131335335E+02  0.77502718468E+02  0.95266028714E+02  0.00000000000E+00 0.  1.
</event>
<event>
 6    1  0.1715574E-005  0.1109759E+03  0.7818608E-02  0.1280027E+00
          2   -1    0    0  502    0  0.00000000000E+00  0.00000000000E+00  0.23867519322E+03  0.23867519322E+03  0.00000000000E+00 0.  1.
          1   -1    0    0  501    0 -0.00000000000E+00 -0.00000000000E+00 -0.70790253542E+02  0.70790253542E+02  0.00000000000E+00 0. -1.
          2    1    1    2  501    0  0.11583214361E+02  0.18990679287E+02  0.72536473411E+01  0.23397268098E+02  0.00000000000E+00 0.  1.
          1    1    1    2  502    0 -0.37224655356E+02  0.21086167917E+02 -0.29214371667E+02  0.51805221317E+02  0.00000000000E+00 0. -1.
         22    1    1    2    0    0 -0.27693050733E+02  0.63351477970E+01 -0.32852064269E+01  0.28597757565E+02  0.00000000000E+00 0. -1.
         22    1    1    2    0    0  0.53334491728E+02 -0.46411995001E+02  0.19313087043E+03  0.20566519978E+03  0.00000000000E+00 0.  1.
</event>
<event>
 6    1  0.1715574E-005  0.1588322E+03  0.7818608E-02  0.1213414E+00
          2   -1    0    0  502    0  0.00000000000E+00  0.00000000000E+00  0.36172046065E+03  0.36172046065E+03  0.00000000000E+00 0.  1.
          1   -1    0    0  501    0 -0.00000000000E+00 -0.00000000000E+00 -0.58707907628E+02  0.58707907628E+02  0.00000000000E+00 0.  1.
          2    1    1    2  501    0  0.15570331152E+02  0.72364339489E+02  0.15350487723E+03  0.17041942429E+03  0.00000000000E+00 0.  1.
          1    1    1    2  502    0 -0.24951681878E+02 -0.12749085897E+02  0.92690410209E+02  0.96833040665E+02  0.00000000000E+00 0.  1.
         22    1    1    2    0    0 -0.26636336202E+01  0.19604033497E+02  0.69309817255E+02  0.72078178676E+02  0.00000000000E+00 0. -1.
         22    1    1    2    0    0  0.12044984346E+02 -0.79219287090E+02 -0.12492551676E+02  0.81097724643E+02  0.00000000000E+00 0.  1.
</event>
<event>
 6    1  0.1715574E-005  0.4645438E+02  0.7818608E-02  0.1518081E+00
          2   -1    0    0  502    0  0.00000000000E+00  0.00000000000E+00  0.17968887143E+03  0.17968887143E+03  0.00000000000E+00 0.  1.
          1   -1    0    0  501    0 -0.00000000000E+00 -0.00000000000E+00 -0.79500333351E+02  0.79500333351E+02  0.00000000000E+00 0. -1.
          2    1    1    2  501    0 -0.56320595603E+02 -0.57674616636E+01  0.35145396204E+02  0.66636866504E+02  0.00000000000E+00 0.  1.
          1    1    1    2  502    0  0.22873916487E+02  0.37806116775E+02  0.14046816287E+02  0.46366276202E+02  0.00000000000E+00 0. -1.
         22    1    1    2    0    0  0.20975317641E+02 -0.50587253311E+02 -0.29806025274E+02  0.62349284601E+02  0.00000000000E+00 0. -1.
         22    1    1    2    0    0  0.12471361475E+02  0.18548598200E+02  0.80802350863E+02  0.83836777474E+02  0.00000000000E+00 0.  1.
</event>
<event>
 6    1  0.1715574E-005  0.6384100E+02  0.7818608E-02  0.1424519E+00
          2   -1    0    0  502    0  0.00000000000E+00  0.00000000000E+00  0.62321846875E+02  0.62321846875E+02  0.00000000000E+00 0. -1.
          1   -1    0    0  501    0 -0.00000000000E+00 -0.00000000000E+00 -0.23382967782E+03  0.23382967782E+03  0.00000000000E+00 0.  1.
          2    1    1    2  501    0  0.15295698669E+02  0.42468298908E+02 -0.79273574698E+01  0.45829660771E+02  0.00000000000E+00 0. -1.
          1    1    1    2  502    0 -0.30621540121E+02 -0.29435581407E+02 -0.94897187006E+02  0.10396926601E+03  0.00000000000E+00 0.  1.
         22    1    1    2    0    0 -0.17043770207E+02 -0.18712127399E+02 -0.98669513556E+02  0.10186415817E+03  0.00000000000E+00 0. -1.
         22    1    1    2    0    0  0.32369611659E+02  0.56794098978E+01  0.29986227089E+02  0.44488439744E+02  0.00000000000E+00 0. -1.
</event>
<event>
 6    1  0.1715574E-005  0.7747818E+02  0.7818608E-02  0.1439012E+00
          2   -1    0    0  502    0  0.00000000000E+00  0.00000000000E+00  0.21574720554E+03  0.21574720554E+03  0.00000000000E+00 0.  1.
          1   -1    0    0  501    0 -0.00000000000E+00 -0.00000000000E+00 -0.20159407853E+03  0.20159407853E+03  0.00000000000E+00 0. -1.
          2    1    1    2  501    0  0.61522428346E+02 -0.96786782341E+01  0.11698937797E+03  0.13253377139E+03  0.00000000000E+00 0.  1.
          1    1    1    2  502    0 -0.53339900649E+02  0.81556255305E+01 -0.14587981646E+03  0.15553964150E+03  0.00000000000E+00 0. -1.
         22    1    1    2    0    0 -0.22949030470E+02  0.13818014675E+01 -0.39343191771E+02  0.45568126070E+02  0.00000000000E+00 0. -1.
         22    1    1    2    0    0  0.14766502774E+02  0.14125123603E+00  0.82386757276E+02  0.83699745104E+02  0.00000000000E+00 0. -1.
</event>
<event>
 6    1  0.1715574E-005  0.8355133E+02  0.7818608E-02  0.1323116E+00
          2   -1    0    0  502    0  0.00000000000E+00  0.00000000000E+00  0.13673496048E+03  0.13673496048E+03  0.00000000000E+00 0.  1.
          1   -1    0    0  501    0 -0.00000000000E+00 -0.00000000000E+00 -0.14669812590E+03  0.14669812590E+03  0.00000000000E+00 0. -1.
          2    1    1    2  501    0 -0.22390396593E+02 -0.58628245223E+02  0.77979459480E+02  0.10009693851E+03  0.00000000000E+00 0.  1.
          1    1    1    2  502    0  0.23073432402E+02  0.18023242285E+02 -0.34459001672E+02  0.45217732600E+02  0.00000000000E+00 0. -1.
         22    1    1    2    0    0 -0.23798729500E+01  0.53583299569E+02 -0.86961925484E+02  0.10217245359E+03  0.00000000000E+00 0. -1.
         22    1    1    2    0    0  0.16968371416E+01 -0.12978296631E+02  0.33478302255E+02  0.35945961687E+02  0.00000000000E+00 0.  1.
</event>
<event>
 6    1  0.1715574E-005  0.1142329E+03  0.7818608E-02  0.1258666E+00
          2   -1    0    0  502    0  0.00000000000E+00  0.00000000000E+00  0.57828691663E+02  0.57828691663E+02  0.00000000000E+00 0.  1.
          1   -1    0    0  501    0 -0.00000000000E+00 -0.00000000000E+00 -0.45346675644E+03  0.45346675644E+03  0.00000000000E+00 0. -1.
          2    1    1    2  501    0 -0.41418568005E+02 -0.38541597738E+02  0.50000780344E+01  0.56797476283E+02  0.00000000000E+00 0.  1.
          1    1    1    2  502    0  0.32577130676E+02  0.59051844286E+02 -0.24827255302E+03  0.25726960633E+03  0.00000000000E+00 0. -1.
         22    1    1    2    0    0  0.18051403907E+01  0.34438932979E+02 -0.13475633699E+03  0.13909913370E+03  0.00000000000E+00 0. -1.
         22    1    1    2    0    0  0.70362969376E+01 -0.54949179527E+02 -0.17609252805E+02  0.58129231800E+02  0.00000000000E+00 0.  1.
</event>
<event>
 6    1  0.1715574E-005  0.4975225E+02  0.7818608E-02  0.1448901E+00
          2   -1    0    0  502    0  0.00000000000E+00  0.00000000000E+00  0.37153659424E+02  0.37153659424E+02  0.00000000000E+00 0.  1.
          1   -1    0    0  501    0 -0.00000000000E+00 -0.00000000000E+00 -0.50428849156E+03  0.50428849156E+03  0.00000000000E+00 0.  1.
          2    1    1    2  501    0  0.46758589353E+02 -0.50117348848E+02 -0.64166861604E+02  0.93890896588E+02  0.00000000000E+00 0.  1.
          1    1    1    2  502    0 -0.46047236067E+02  0.44204445185E+02 -0.21569508886E+03  0.22494166418E+03  0.00000000000E+00 0.  1.
         22    1    1    2    0    0 -0.25588277840E+02 -0.25006219108E+02 -0.17839089388E+03  0.18194334826E+03  0.00000000000E+00 0.  1.
         22    1    1    2    0    0  0.24876924554E+02  0.30919122771E+02 -0.88819877923E+01  0.40666241962E+02  0.00000000000E+00 0.  1.
</event>
<event>
 6    1  0.1715574E-005  0.2463597E+02  0.7818608E-02  0.1725021E+00
          2   -1    0    0  502    0  0.00000000000E+00  0.00000000000E+00  0.70886670141E+02  0.70886670141E+02  0.00000000000E+00 0. -1.
          1   -1    0    0  501    0 -0.00000000000E+00 -0.00000000000E+00 -0.13524481065E+03  0.13524481065E+03  0.00000000000E+00 0. -1.
          2    1    1    2  501    0  0.22238882064E+02 -0.93077917340E+01 -0.11254745524E+02  0.26605867008E+02  0.00000000000E+00 0. -1.
          1    1    1    2  502    0 -0.16625919852E+02  0.26111465929E+02 -0.40162051533E+02  0.50707201137E+02  0.00000000000E+00 0. -1.
         22    1    1    2    0    0 -0.17445258322E+02 -0.15449362456E+02 -0.68314198596E+02  0.72179287666E+02  0.00000000000E+00 0. -1.
         22    1    1    2    0    0  0.11832296109E+02 -0.13543117387E+01  0.55372855145E+02  0.56639124979E+02  0.00000000000E+00 0. -1.
</event>
<event>
 6    1  0.1715574E-005  0.1085698E+03  0.7818608E-02  0.1286203E+00
          2   -1    0    0  502    0  0.00000000000E+00  0.00000000000E+00  0.28149205695E+03  0.28149205695E+03  0.00000000000E+00 0.  1.
          1   -1    0    0  501    0 -0.00000000000E+00 -0.00000000000E+00 -0.59624751000E+02  0.59624751000E+02  0.00000000000E+00 0.  1.
          2    1    1    2  501    0 -0.33237556466E+02 -0.28724569637E+01  0.95862252083E+02  0.10150151498E+03  0.00000000000E+00 0.  1.
          1    1    1    2  502    0  0.41812172293E+02 -0.28684067369E+02 -0.11931029272E+02  0.52090142370E+02  0.00000000000E+00 0.  1.
         22    1    1    2    0    0 -0.30889150898E+02 -0.18922120526E+02  0.12593940379E+03  0.13104548720E+03  0.00000000000E+00 0.  1.
         22    1    1    2    0    0  0.22314535071E+02  0.50478644859E+02  0.11996679349E+02  0.56479663399E+02  0.00000000000E+00 0.  1.
</event>
<event>
 6    1  0.1715574E-005  0.1421866E+03  0.7818608E-02  0.1249770E+00
          2   -1    0    0  502    0  0.00000000000E+00  0.00000000000E+00  0.29475322898E+03  0.29475322898E+03  0.00000000000E+00 0.  1.
          1   -1    0    0  501    0 -0.00000000000E+00 -0.00000000000E+00 -0.13864777123E+03  0.13864777123E+03  0.00000000000E+00 0.  1.
          2    1    1    2  501    0 -0.56607535903E+02  0.74615041551E+02 -0.25059521473E+02  0.96952551092E+02  0.00000000000E+00 0.  1.
          1    1    1    2  502    0  0.61985450458E+02 -0.10606837760E+03  0.15985253433E+03  0.20160736477E+03  0.00000000000E+00 0.  1.
         22    1    1    2    0    0 -0.67270110491E+02  0.19252910766E+02  0.13708380393E+02  0.71301206382E+02  0.00000000000E+00 0.  1.
         22    1    1    2    0    0  0.61892195936E+02  0.12200425286E+02  0.76040644933E+01  0.63539877965E+02  0.00000000000E+00 0. -1.
</event>
<event>
 6    1  0.1715574E-005  0.1386995E+03  0.7818608E-02  0.1224416E+00
          2   -1    0    0  502    0  0.00000000000E+00  0.00000000000E+00  0.89397832636E+03  0.89397832636E+03  0.00000000000E+00 0. -1.
          1   -1    0    0  501    0 -0.00000000000E+00 -0.00000000000E+00 -0.18325012725E+02  0.18325012725E+02  0.00000000000E+00 0. -1.
          2    1    1    2  501    0  0.25704994238E+02  0.33603773374E+02  0.56220218044E+02  0.70361020677E+02  0.00000000000E+00 0. -1.
          1    1    1    2  502    0 -0.10245933492E+02 -0.64237255027E+02  0.24212556928E+03  0.25071137865E+03  0.00000000000E+00 0. -1.
         22    1    1    2    0    0 -0.57287613621E+02  0.54735380346E+02  0.35100420046E+03  0.35983576987E+03  0.00000000000E+00 0. -1.
         22    1    1    2    0    0  0.41828552875E+02 -0.24101898693E+02  0.22630332585E+03  0.23139516989E+03  0.00000000000E+00 0.  1.
</event>
<event>
 6    1  0.1715574E-005  0.9464418E+02  0.7818608E-02  0.1292989E+00
          2   -1    0    0  502    0  0.00000000000E+00  0.00000000000E+00  0.77421395840E+02  0.77421395840E+02  0.00000000000E+00 0. -1.
          1   -1    0    0  501    0 -0.00000000000E+00 -0.00000000000E+00 -0.29970306302E+03  0.29970306302E+03  0.00000000000E+00 0.  1.
          2    1    1    2  501    0  0.45324365421E+02  0.18828127528E+02  0.20357649045E+02  0.53134079099E+02  0.00000000000E+00 0. -1.
          1    1    1    2  502    0 -0.68385013591E+02  0.22189146113E+01 -0.16101162690E+03  0.17494621363E+03  0.00000000000E+00 0.  1.
         22    1    1    2    0    0  0.43030791436E+02 -0.14911583657E+02  0.16711314822E+02  0.48510538874E+02  0.00000000000E+00 0. -1.
         22    1    1    2    0    0 -0.19970143267E+02 -0.61354584822E+01 -0.98339004151E+02  0.10053362726E+03  0.00000000000E+00 0.  1.
</event>
<event>
 6    1  0.1715574E-005  0.2352960E+03  0.7818608E-02  0.1126753E+00
          2   -1    0    0  502    0  0.00000000000E+00  0.00000000000E+00  0.28392427747E+03  0.28392427747E+03  0.00000000000E+00 0. -1.
          1   -1    0    0  501    0 -0.00000000000E+00 -0.00000000000E+00 -0.19047802990E+03  0.19047802990E+03  0.00000000000E+00 0. -1.
          2    1    1    2  501    0 -0.23096308393E+01  0.19175451566E+03  0.10149063471E+03  0.21696884017E+03  0.00000000000E+00 0. -1.
          1    1    1    2  502    0 -0.30122883703E+02 -0.33887038805E+02  0.25710627521E+02  0.52122508469E+02  0.00000000000E+00 0. -1.
         22    1    1    2    0    0  0.77974544730E+01  0.19984010644E+02  0.40352514667E+01  0.21827602527E+02  0.00000000000E+00 0.  1.
         22    1    1    2    0    0  0.24635060069E+02 -0.17785148750E+03 -0.37790266125E+02  0.18348335620E+03  0.00000000000E+00 0. -1.
</event>
<event>
 6    1  0.1715574E-005  0.9893802E+02  0.7818608E-02  0.1285824E+00
          2   -1    0    0  502    0  0.00000000000E+00  0.00000000000E+00  0.42010806170E+02  0.42010806170E+02  0.00000000000E+00 0.  1.
          1   -1    0    0  501    0 -0.00000000000E+00 -0.00000000000E+00 -0.34654838184E+03  0.34654838184E+03  0.00000000000E+00 0. -1.
          2    1    1    2  501    0 -0.48298167601E+02 -0.32328944971E+02 -0.16536358499E+02  0.60426193235E+02  0.00000000000E+00 0.  1.
          1    1    1    2  502    0  0.22876938706E+02 -0.27372695454E+01 -0.38218747413E+02  0.44626445331E+02  0.00000000000E+00 0. -1.
         22    1    1    2    0    0 -0.37390885181E+02  0.14885758578E+02 -0.20986099642E+02  0.45388109470E+02  0.00000000000E+00 0. -1.
         22    1    1    2    0    0  0.62812114075E+02  0.20180455938E+02 -0.22879637012E+03  0.23811843997E+03  0.00000000000E+00 0. -1.
</event>
<event>
 6    1  0.1715574E-005  0.2263984E+03  0.7818608E-02  0.1129471E+00
          2   -1    0    0  502    0  0.00000000000E+00  0.00000000000E+00  0.59815197321E+03  0.59815197321E+03  0.00000000000E+00 0. -1.
          1   -1    0    0  501    0 -0.00000000000E+00 -0.00000000000E+00 -0.11849162785E+03  0.11849162785E+03  0.00000000000E+00 0. -1.
          2    1    1    2  501    0 -0.12927345353E+03  0.14761044205E+03  0.36303062330E+03  0.41266415140E+03  0.00000000000E+00 0. -1.
          1    1    1    2  502    0  0.82758446071E+02 -0.11251634682E+03  0.27549529679E+02  0.14236525308E+03  0.00000000000E+00 0. -1.
         22    1    1    2    0    0  0.76100576685E+02 -0.38184856343E+02  0.21558140467E+02  0.87830145429E+02  0.00000000000E+00 0.  1.
         22    1    1    2    0    0 -0.29585569222E+02  0.30907611168E+01  0.67522051917E+02  0.73784051160E+02  0.00000000000E+00 0. -1.
</event>
<event>
 6    1  0.1715574E-005  0.8812678E+02  0.7818608E-02  0.1309752E+00
          2   -1    0    0  502    0  0.00000000000E+00  0.00000000000E+00  0.10315192070E+03  0.10315192070E+03  0.00000000000E+00 0. -1.
          1   -1    0    0  501    0 -0.00000000000E+00 -0.00000000000E+00 -0.29063567684E+03  0.29063567684E+03  0.00000000000E+00 0. -1.
          2    1    1    2  501    0  0.57623389674E+02  0.25111424141E+02  0.69311246206E+02  0.93568624606E+02  0.00000000000E+00 0. -1.
          1    1    1    2  502    0 -0.20734582674E+02 -0.31801253422E+01 -0.51415487818E+02  0.55530068462E+02  0.00000000000E+00 0. -1.
         22    1    1    2    0    0  0.10500273415E+02  0.19290649830E+02  0.71301767260E+01  0.23091650716E+02  0.00000000000E+00 0.  1.
         22    1    1    2    0    0 -0.47389080415E+02 -0.41221948629E+02 -0.21250969126E+03  0.22159725376E+03  0.00000000000E+00 0. -1.
</event>
<event>
 6    1  0.1715574E-005  0.1238375E+03  0.7818608E-02  0.1239620E+00
          2   -1    0    0  502    0  0.00000000000E+00  0.00000000000E+00  0.38536392419E+02  0.38536392419E+02  0.00000000000E+00 0. -1.
          1   -1    0    0  501    0 -0.00000000000E+00 -0.00000000000E+00 -0.57084417234E+03  0.57084417234E+03  0.00000000000E+00 0. -1.
          2    1    1    2  501    0  0.31329994941E+02  0.53610541905E+02 -0.98224705860E+02  0.11620564370E+03  0.00000000000E+00 0. -1.
          1    1    1    2  502    0 -0.52460205731E+02 -0.48996105165E+02 -0.30123985417E+03  0.30967425021E+03  0.00000000000E+00 0. -1.
         22    1    1    2    0    0  0.82838951565E+01  0.37715353590E+02  0.48112894297E+01  0.38912971120E+02  0.00000000000E+00 0. -1.
         22    1    1    2    0    0  0.12846315634E+02 -0.42329790331E+02 -0.13765450933E+03  0.14458769973E+03  0.00000000000E+00 0. -1.
</event>
<event>
 6    1  0.1715574E-005  0.7376768E+02  0.7818608E-02  0.1347848E+00
          2   -1    0    0  502    0  0.00000000000E+00  0.00000000000E+00  0.55682908402E+02  0.55682908402E+02  0.00000000000E+00 0.  1.
          1   -1    0    0  501    0 -0.00000000000E+00 -0.00000000000E+00 -0.24628616743E+03  0.24628616743E+03  0.00000000000E+00 0.  1.
          2    1    1    2  501    0  0.37103673294E+02  0.18678118992E+02  0.13375833311E+02  0.43640206436E+02  0.00000000000E+00 0.  1.
          1    1    1    2  502    0 -0.20355488596E+02 -0.19391814350E+02 -0.73287605215E+02  0.78494977279E+02  0.00000000000E+00 0.  1.
         22    1    1    2    0    0 -0.37598704168E+02  0.25255835400E+02 -0.13931737534E+03  0.14649522466E+03  0.00000000000E+00 0.  1.
         22    1    1    2    0    0  0.20850519470E+02 -0.24542140042E+02  0.86258882200E+01  0.33338667454E+02  0.00000000000E+00 0.  1.
</event>
<event>
 6    1  0.1715574E-005  0.7460584E+02  0.7818608E-02  0.1441529E+00
          2   -1    0    0  502    0  0.00000000000E+00  0.00000000000E+00  0.21373212587E+03  0.21373212587E+03  0.00000000000E+00 0. -1.
          1   -1    0    0  501    0 -0.00000000000E+00 -0.00000000000E+00 -0.10260460794E+03  0.10260460794E+03  0.00000000000E+00 0. -1.
          2    1    1    2  501    0  0.22996862791E+01 -0.23729043745E+02  0.85357505481E+02  0.88624262005E+02  0.00000000000E+00 0. -1.
          1    1    1    2  502    0  0.16806512308E+02  0.69514447423E+02 -0.38976961617E+02  0.81448884544E+02  0.00000000000E+00 0. -1.
         22    1    1    2    0    0 -0.15686389050E+02  0.27695943016E+01 -0.33236185077E+02  0.36856172516E+02  0.00000000000E+00 0. -1.
         22    1    1    2    0    0 -0.34198095369E+01 -0.48554997980E+02  0.97983159141E+02  0.10940741475E+03  0.00000000000E+00 0. -1.
</event>
<event>
 6    1  0.1715574E-005  0.1753514E+03  0.7818608E-02  0.1173262E+00
          2   -1    0    0  502    0  0.00000000000E+00  0.00000000000E+00  0.27459116145E+03  0.27459116145E+03  0.00000000000E+00 0.  1.
          1   -1    0    0  501    0 -0.00000000000E+00 -0.00000000000E+00 -0.21655604738E+03  0.21655604738E+03  0.00000000000E+00 0.  1.
          2    1    1    2  501    0  0.33327981507E+02 -0.47979597921E+02  0.88049258941E+02  0.10566677892E+03  0.00000000000E+00 0.  1.
          1    1    1    2  502    0 -0.11869946374E+03  0.10195722765E+03 -0.12371458051E+03  0.19947465101E+03  0.00000000000E+00 0.  1.
         22    1    1    2    0    0 -0.97030066368E+01  0.10498213720E+02 -0.19863158575E+02  0.24472553968E+02  0.00000000000E+00 0.  1.
         22    1    1    2    0    0  0.95074488872E+02 -0.64475843450E+02  0.11356359422E+03  0.16153322493E+03  0.00000000000E+00 0.  1.
</event>
<event>
 6    1  0.1715574E-005  0.3962478E+03  0.7818608E-02  0.1066109E+00
          2   -1    0    0  502    0  0.00000000000E+00  0.00000000000E+00  0.61056067120E+03  0.61056067120E+03  0.00000000000E+00 0. -1.
          1   -1    0    0  501    0 -0.00000000000E+00 -0.00000000000E+00 -0.17188030011E+03  0.17188030011E+03  0.00000000000E+00 0. -1.
          2    1    1    2  501    0 -0.82989925148E+02 -0.24219759907E+03  0.15841762241E+03  0.30107000475E+03  0.00000000000E+00 0. -1.
          1    1    1    2  502    0 -0.21045087764E+02  0.17752417632E+03  0.24217744708E+03  0.30101103762E+03  0.00000000000E+00 0. -1.
         22    1    1    2    0    0  0.12200008857E+03  0.29872940959E+02 -0.18163400672E+00  0.12560432797E+03  0.00000000000E+00 0.  1.
         22    1    1    2    0    0 -0.17965075659E+02  0.34800481794E+02  0.38266935613E+02  0.54755600971E+02  0.00000000000E+00 0. -1.
</event>
<event>
 6    1  0.1715574E-005  0.1181710E+03  0.7818608E-02  0.1262816E+00
          2   -1    0    0  502    0  0.00000000000E+00  0.00000000000E+00  0.38400579127E+02  0.38400579127E+02  0.00000000000E+00 0.  1.
          1   -1    0    0  501    0 -0.00000000000E+00 -0.00000000000E+00 -0.30731809157E+03  0.30731809157E+03  0.00000000000E+00 0.  1.
          2    1    1    2  501    0 -0.28622062854E+02  0.23667614353E+02 -0.51213466345E+02  0.63262924262E+02  0.00000000000E+00 0.  1.
          1    1    1    2  502    0 -0.62504259952E+01 -0.48430404947E+02 -0.80890808461E+02  0.94487538025E+02  0.00000000000E+00 0.  1.
         22    1    1    2    0    0  0.60306061366E+02  0.46961293527E+02 -0.41759812478E+02  0.87098025612E+02  0.00000000000E+00 0.  1.
         22    1    1    2    0    0 -0.25433572516E+02 -0.22198502933E+02 -0.95053425157E+02  0.10087018280E+03  0.00000000000E+00 0.  1.
</event>
<event>
 6    1  0.1715574E-005  0.7789401E+02  0.7818608E-02  0.1335917E+00
          2   -1    0    0  502    0  0.00000000000E+00  0.00000000000E+00  0.39010525068E+03  0.39010525068E+03  0.00000000000E+00 0. -1.
          1   -1    0    0  501    0 -0.00000000000E+00 -0.00000000000E+00 -0.79937719590E+02  0.79937719590E+02  0.00000000000E+00 0. -1.
          2    1    1    2  501    0  0.50597106495E+02 -0.38533541599E+02  0.29428699769E+03  0.30108094929E+03  0.00000000000E+00 0. -1.
          1    1    1    2  502    0 -0.24083707970E+02  0.24736232417E+02 -0.19185127048E+02  0.39496522425E+02  0.00000000000E+00 0. -1.
         22    1    1    2    0    0  0.12608752080E+02 -0.35107707367E+01  0.71858108256E+02  0.73040357765E+02  0.00000000000E+00 0. -1.
         22    1    1    2    0    0 -0.39122150604E+02  0.17308079918E+02 -0.36792447807E+02  0.56425140797E+02  0.00000000000E+00 0. -1.
</event>
<event>
 6    1  0.1715574E-005  0.4370410E+02  0.7818608E-02  0.1594258E+00
          2   -1    0    0  502    0  0.00000000000E+00  0.00000000000E+00  0.29552640393E+03  0.29552640393E+03  0.00000000000E+00 0.  1.
          1   -1    0    0  501    0 -0.00000000000E+00 -0.00000000000E+00 -0.38450246781E+03  0.38450246781E+03  0.00000000000E+00 0.  1.
          2    1    1    2  501    0  0.57874437243E+01 -0.26867637983E+02  0.20800886267E+03  0.20981670912E+03  0.00000000000E+00 0.  1.
          1    1    1    2  502    0  0.55187554572E+01  0.37479247228E+02 -0.33703980127E+03  0.33916217105E+03  0.00000000000E+00 0.  1.
         22    1    1    2    0    0 -0.89154619184E+01  0.48793679275E+01 -0.44198005030E+02  0.45351486649E+02  0.00000000000E+00 0. -1.
         22    1    1    2    0    0 -0.23907372631E+01 -0.15490977172E+02  0.84252879747E+02  0.85698504911E+02  0.00000000000E+00 0.  1.
</event>
<event>
 6    1  0.1715574E-005  0.3874015E+03  0.7818608E-02  0.1148853E+00
          2   -1    0    0  502    0  0.00000000000E+00  0.00000000000E+00  0.38483793437E+03  0.38483793437E+03  0.00000000000E+00 0. -1.
          1   -1    0    0  501    0 -0.00000000000E+00 -0.00000000000E+00 -0.40445559494E+03  0.40445559494E+03  0.00000000000E+00 0.  1.
          2    1    1    2  501    0  0.16298279559E+03  0.23340673374E+03  0.67199656154E+01  0.28475823597E+03  0.00000000000E+00 0. -1.
          1    1    1    2  502    0 -0.14739352569E+03 -0.31649014165E+03 -0.46889234925E+01  0.34916020274E+03  0.00000000000E+00 0.  1.
         22    1    1    2    0    0  0.10164959255E+02 -0.26200982513E+02 -0.32037886399E+02  0.42617414823E+02  0.00000000000E+00 0.  1.
         22    1    1    2    0    0 -0.25754229155E+02  0.10928439042E+03  0.10389183707E+02  0.11275767578E+03  0.00000000000E+00 0.  1.
</event>
<event>
 6    1  0.1715574E-005  0.5702186E+02  0.7818608E-02  0.1489844E+00
          2   -1    0    0  502    0  0.00000000000E+00  0.00000000000E+00  0.93328358790E+02  0.93328358790E+02  0.00000000000E+00 0. -1.
          1   -1    0    0  501    0 -0.00000000000E+00 -0.00000000000E+00 -0.57145445207E+03  0.57145445207E+03  0.00000000000E+00 0. -1.
          2    1    1    2  501    0  0.16264096938E+02 -0.14222500790E+02  0.12585316211E+02  0.25003810950E+02  0.00000000000E+00 0. -1.
          1    1    1    2  502    0  0.30207598285E+02 -0.46089721430E+02 -0.48764913098E+03  0.49075292802E+03  0.00000000000E+00 0. -1.
         22    1    1    2    0    0  0.10621105369E+02 -0.14256710351E+02  0.41445774375E+02  0.45097825700E+02  0.00000000000E+00 0. -1.
         22    1    1    2    0    0 -0.57092800593E+02  0.74568932571E+02 -0.44508052886E+02  0.10392824619E+03  0.00000000000E+00 0. -1.
</event>
<event>
 6    1  0.1715574E-005  0.1888799E+03  0.7818608E-02  0.1200959E+00
          2   -1    0    0  502    0  0.00000000000E+00  0.00000000000E+00  0.78900196503E+03  0.78900196503E+03  0.00000000000E+00 0.  1.
          1   -1    0    0  501    0 -0.00000000000E+00 -0.00000000000E+00 -0.32331979426E+02  0.32331979426E+02  0.00000000000E+00 0. -1.
          2    1    1    2  501    0 -0.23455655963E+02 -0.32515757132E+02  0.37321619676E+03  0.37536351952E+03  0.00000000000E+00 0.  1.
          1    1    1    2  502    0 -0.17408685880E+02  0.38759581640E+02  0.25751787738E+03  0.26099966414E+03  0.00000000000E+00 0. -1.
         22    1    1    2    0    0 -0.28147108415E+02 -0.97359597444E+00  0.11053362605E+03  0.11406528871E+03  0.00000000000E+00 0. -1.
         22    1    1    2    0    0  0.69011450259E+02 -0.52702285338E+01  0.15402285413E+02  0.70905472085E+02  0.00000000000E+00 0. -1.
</event>
<event>
 6    1  0.1715574E-005  0.3581495E+03  0.7818608E-02  0.1065951E+00
          2   -1    0    0  502    0  0.00000000000E+00  0.00000000000E+00  0.25913568541E+03  0.25913568541E+03  0.00000000000E+00 0.  1.
          1   -1    0    0  501    0 -0.00000000000E+00 -0.00000000000E+00 -0.41575068459E+03  0.41575068459E+03  0.00000000000E+00 0. -1.
          2    1    1    2  501    0 -0.12853066312E+03 -0.24355132288E+03 -0.75518845899E+02  0.28555292736E+03  0.00000000000E+00 0.  1.
          1    1    1    2  502    0  0.95804408985E+02  0.87385772068E+02  0.61683380035E+02  0.14359525519E+03  0.00000000000E+00 0. -1.
         22    1    1    2    0    0  0.50244259916E+02  0.16975363718E+03 -0.13339222815E+03  0.22166251267E+03  0.00000000000E+00 0.  1.
         22    1    1    2    0    0 -0.17518005778E+02 -0.13588086369E+02 -0.93873051570E+01  0.24075674772E+02  0.00000000000E+00 0.  1.
</event>
<event>
 6    1  0.1715574E-005  0.6647837E+02  0.7818608E-02  0.1374806E+00
          2   -1    0    0  502    0  0.00000000000E+00  0.00000000000E+00  0.43748788180E+03  0.43748788180E+03  0.00000000000E+00 0. -1.
          1   -1    0    0  501    0 -0.00000000000E+00 -0.00000000000E+00 -0.11650222147E+03  0.11650222147E+03  0.00000000000E+00 0. -1.
          2    1    1    2  501    0  0.25982668226E+00  0.53066629041E+02  0.35790255318E+03  0.36181538414E+03  0.00000000000E+00 0. -1.
          1    1    1    2  502    0 -0.12155657007E+02 -0.34222849526E+02 -0.53027450589E+02  0.64271875209E+02  0.00000000000E+00 0. -1.
         22    1    1    2    0    0  0.18602578248E+01 -0.27214063099E+02 -0.51908820772E+02  0.58639504291E+02  0.00000000000E+00 0. -1.
         22    1    1    2    0    0  0.10035572499E+02  0.83702835835E+01  0.68019378514E+02  0.69263339626E+02  0.00000000000E+00 0. -1.
</event>
<event>
 6    1  0.1715574E-005  0.1915156E+03  0.7818608E-02  0.1200798E+00
          2   -1    0    0  502    0  0.00000000000E+00  0.00000000000E+00  0.32984553355E+03  0.32984553355E+03  0.00000000000E+00 0. -1.
          1   -1    0    0  501    0 -0.00000000000E+00 -0.00000000000E+00 -0.43474245955E+03  0.43474245955E+03  0.00000000000E+00 0.  1.
          2    1    1    2  501    0  0.10781806590E+03 -0.12502487786E+03  0.19888202803E+03  0.25847633643E+03  0.00000000000E+00 0. -1.
          1    1    1    2  502    0 -0.18520654952E+03  0.17064916672E+03 -0.21400304095E+03  0.33048435004E+03  0.00000000000E+00 0.  1.
         22    1    1    2    0    0  0.60067347736E+02 -0.38899311187E+02 -0.12025123472E+03  0.13993427788E+03  0.00000000000E+00 0.  1.
         22    1    1    2    0    0  0.17321135882E+02 -0.67249776682E+01  0.30475321634E+02  0.35693028753E+02  0.00000000000E+00 0.  1.
</event>
<event>
 6    1  0.1715574E-005  0.5673244E+02  0.7818608E-02  0.1466133E+00
          2   -1    0    0  502    0  0.00000000000E+00  0.00000000000E+00  0.11122041444E+03  0.11122041444E+03  0.00000000000E+00 0.  1.
          1   -1    0    0  501    0 -0.00000000000E+00 -0.00000000000E+00 -0.34533524512E+03  0.34533524512E+03  0.00000000000E+00 0. -1.
          2    1    1    2  501    0  0.35954083571E+02 -0.15195907549E+02  0.50233068259E+02  0.63615822548E+02  0.00000000000E+00 0.  1.
          1    1    1    2  502    0 -0.24877605108E+02  0.33016123098E+02 -0.25753489953E+03  0.26083171605E+03  0.00000000000E+00 0. -1.
         22    1    1    2    0    0  0.29686567660E+01 -0.25083483788E+02  0.48751865049E+02  0.54906633731E+02  0.00000000000E+00 0.  1.
         22    1    1    2    0    0 -0.14045135229E+02  0.72632682381E+01 -0.75564864459E+02  0.77201487225E+02  0.00000000000E+00 0.  1.
</event>
<event>
 6    1  0.1715574E-005  0.1039742E+03  0.7818608E-02  0.1276326E+00
          2   -1    0    0  502    0  0.00000000000E+00  0.00000000000E+00  0.11892867548E+03  0.11892867548E+03  0.00000000000E+00 0.  1.
          1   -1    0    0  501    0 -0.00000000000E+00 -0.00000000000E+00 -0.10540985413E+03  0.10540985413E+03  0.00000000000E+00 0.  1.
          2    1    1    2  501    0  0.10296156367E+02 -0.26954678259E+02 -0.42020901398E+01  0.29158584971E+02  0.00000000000E+00 0.  1.
          1    1    1    2  502    0 -0.80350870148E+01  0.44897812511E+02 -0.34990644625E+02  0.57486706315E+02  0.00000000000E+00 0.  1.
         22    1    1    2    0    0  0.14815304529E+02  0.44834943753E+02 -0.89453553553E+01  0.48059180310E+02  0.00000000000E+00 0.  1.
         22    1    1    2    0    0 -0.17076373881E+02 -0.62778078006E+02  0.61656911477E+02  0.89634058013E+02  0.00000000000E+00 0.  1.
</event>
<event>
 6    1  0.1715574E-005  0.1170103E+03  0.7818608E-02  0.1296346E+00
          2   -1    0    0  502    0  0.00000000000E+00  0.00000000000E+00  0.20342361085E+03  0.20342361085E+03  0.00000000000E+00 0.  1.
          1   -1    0    0  501    0 -0.00000000000E+00 -0.00000000000E+00 -0.23773808534E+03  0.23773808534E+03  0.00000000000E+00 0. -1.
          2    1    1    2  501    0  0.96741769514E+02  0.22842186956E+02  0.19277333456E+02  0.10125389404E+03  0.00000000000E+00 0.  1.
          1    1    1    2  502    0 -0.87424096270E+02 -0.51541916387E+02 -0.14820020717E+03  0.17961860472E+03  0.00000000000E+00 0. -1.
         22    1    1    2    0    0  0.42298535207E+01  0.45981730260E+02  0.11889509822E+03  0.12754707194E+03  0.00000000000E+00 0.  1.
         22    1    1    2    0    0 -0.13547526766E+02 -0.17282000829E+02 -0.24286698987E+02  0.32742125493E+02  0.00000000000E+00 0.  1.
</event>
<event>
 6    1  0.1715574E-005  0.4663378E+02  0.7818608E-02  0.1513816E+00
          2   -1    0    0  502    0  0.00000000000E+00  0.00000000000E+00  0.17487532208E+03  0.17487532208E+03  0.00000000000E+00 0. -1.
          1   -1    0    0  501    0 -0.00000000000E+00 -0.00000000000E+00 -0.12092055809E+03  0.12092055809E+03  0.00000000000E+00 0.  1.
          2    1    1    2  501    0  0.32564651593E+02 -0.12803329646E+02  0.11583642794E+03  0.12100603217E+03  0.00000000000E+00 0. -1.
          1    1    1    2  502    0 -0.25987576695E+02  0.24558211176E+02 -0.36337403326E+02  0.50979081584E+02  0.00000000000E+00 0.  1.
         22    1    1    2    0    0 -0.19130967061E+02 -0.13472341014E+02 -0.71974619889E+02  0.75682519654E+02  0.00000000000E+00 0.  1.
         22    1    1    2    0    0  0.12553892163E+02  0.17174594841E+01  0.46430359265E+02  0.48128246769E+02  0.00000000000E+00 0.  1.
</event>
<event>
 6    1  0.1715574E-005  0.1086674E+03  0.7818608E-02  0.1267465E+00
          2   -1    0    0  502    0  0.00000000000E+00  0.00000000000E+00  0.53058314692E+03  0.53058314692E+03  0.00000000000E+00 0. -1.
          1   -1    0    0  501    0 -0.00000000000E+00 -0.00000000000E+00 -0.54201617146E+02  0.54201617146E+02  0.00000000000E+00 0.  1.
          2    1    1    2  501    0 -0.61306911443E+02 -0.79256392144E+02  0.12279916132E+03  0.15849210424E+03  0.00000000000E+00 0. -1.
          1    1    1    2  502    0 -0.10369185437E+02  0.95125084214E+02  0.15323319327E+03  0.18065633997E+03  0.00000000000E+00 0.  1.
         22    1    1    2    0    0  0.84684403440E+02 -0.52663866226E+02  0.16597293254E+03  0.19362836912E+03  0.00000000000E+00 0.  1.
         22    1    1    2    0    0 -0.13008306560E+02  0.36795174156E+02  0.34376242641E+02  0.52007950727E+02  0.00000000000E+00 0. -1.
</event>
<event>
 6    1  0.1715574E-005  0.7917319E+02  0.7818608E-02  0.1379739E+00
          2   -1    0    0  502    0  0.00000000000E+00  0.00000000000E+00  0.51497708503E+03  0.51497708503E+03  0.00000000000E+00 0. -1.
          1   -1    0    0  501    0 -0.00000000000E+00 -0.00000000000E+00 -0.10039043819E+03  0.10039043819E+03  0.00000000000E+00 0.  1.
          2    1    1    2  501    0 -0.13750301571E+02  0.48492512245E+02  0.39138362718E+03  0.39461593754E+03  0.00000000000E+00 0. -1.
          1    1    1    2  502    0 -0.14981771592E+01 -0.58866543039E+02 -0.44306294532E+02  0.73692348038E+02  0.00000000000E+00 0.  1.
         22    1    1    2    0    0  0.23213056366E+02  0.26120163125E+02  0.10227048890E+03  0.10807572257E+03  0.00000000000E+00 0.  1.
         22    1    1    2    0    0 -0.79645776362E+01 -0.15746132331E+02 -0.34761174712E+02  0.38983515076E+02  0.00000000000E+00 0.  1.
</event>
<event>
 6    1  0.1715574E-005  0.1226897E+03  0.7818608E-02  0.1244066E+00
          2   -1    0    0  502    0  0.00000000000E+00  0.00000000000E+00  0.71715973425E+02  0.71715973425E+02  0.00000000000E+00 0.  1.
          1   -1    0    0  501    0 -0.00000000000E+00 -0.00000000000E+00 -0.19552610979E+03  0.19552610979E+03  0.00000000000E+00 0.  1.
          2    1    1    2  501    0 -0.14587679124E+02  0.36052318103E+02 -0.77458438215E+01  0.39655619013E+02  0.00000000000E+00 0.  1.
          1    1    1    2  502    0 -0.31441978346E+02 -0.30052301785E+02  0.79265445631E+01  0.44210507276E+02  0.00000000000E+00 0.  1.
         22    1    1    2    0    0  0.24606862932E+02 -0.65331386513E+02 -0.48532843073E+02  0.85024259032E+02  0.00000000000E+00 0.  1.
         22    1    1    2    0    0  0.21422794538E+02  0.59331370196E+02 -0.75457994030E+02  0.98351697892E+02  0.00000000000E+00 0.  1.
</event>
<event>
 6    1  0.1715574E-005  0.1653307E+03  0.7818608E-02  0.1204779E+00
          2   -1    0    0  502    0  0.00000000000E+00  0.00000000000E+00  0.20568645009E+03  0.20568645009E+03  0.00000000000E+00 0. -1.
          1   -1    0    0  501    0 -0.00000000000E+00 -0.00000000000E+00 -0.12337193154E+04  0.12337193154E+04  0.00000000000E+00 0.  1.
          2    1    1    2  501    0  0.26903529223E+03  0.10571823604E+03  0.11334271944E+02  0.28928325154E+03  0.00000000000E+00 0. -1.
          1    1    1    2  502    0 -0.29720273707E+02 -0.13016112788E+03 -0.71076591164E+03  0.72319665032E+03  0.00000000000E+00 0.  1.
         22    1    1    2    0    0 -0.14230583635E+03  0.24439410279E+02 -0.91996875335E+02  0.17120648616E+03  0.00000000000E+00 0.  1.
         22    1    1    2    0    0 -0.97009182180E+02  0.34815592317E-02 -0.23660435023E+03  0.25571937742E+03  0.00000000000E+00 0.  1.
</event>
<event>
 6    1  0.1715574E-005  0.1451851E+03  0.7818608E-02  0.1253546E+00
          2   -1    0    0  502    0  0.00000000000E+00  0.00000000000E+00  0.24701783472E+03  0.24701783472E+03  0.00000000000E+00 0. -1.
          1   -1    0    0  501    0 -0.00000000000E+00 -0.00000000000E+00 -0.19417960640E+03  0.19417960640E+03  0.00000000000E+00 0. -1.
          2    1    1    2  501    0  0.10312823904E+03  0.55163482178E+02  0.81650964454E+02  0.14263703394E+03  0.00000000000E+00 0. -1.
          1    1    1    2  502    0 -0.12735098775E+03 -0.78200626770E+01 -0.85598361457E+02  0.15364409180E+03  0.00000000000E+00 0. -1.
         22    1    1    2    0    0  0.44050937267E+02 -0.32866301117E+02  0.88884915434E+02  0.10450457892E+03  0.00000000000E+00 0. -1.
         22    1    1    2    0    0 -0.19828188553E+02 -0.14477118385E+02 -0.32099290107E+02  0.40411736456E+02  0.00000000000E+00 0. -1.
</event>
<event>
 6    1  0.1715574E-005  0.9488171E+02  0.7818608E-02  0.1291857E+00
          2   -1    0    0  502    0  0.00000000000E+00  0.00000000000E+00  0.43973646967E+02  0.43973646967E+02  0.00000000000E+00 0.  1.
          1   -1    0    0  501    0 -0.00000000000E+00 -0.00000000000E+00 -0.26342889411E+03  0.26342889411E+03  0.00000000000E+00 0. -1.
          2    1    1    2  501    0  0.22444058885E+02  0.33518160611E+02 -0.35841045422E+02  0.53960943347E+02  0.00000000000E+00 0.  1.
          1    1    1    2  502    0  0.14186000718E+00 -0.45133593152E+02 -0.71300284446E+02  0.84384784867E+02  0.00000000000E+00 0. -1.
         22    1    1    2    0    0 -0.34897524467E+02 -0.33528819315E+02 -0.11227837145E+03  0.12226386071E+03  0.00000000000E+00 0. -1.
         22    1    1    2    0    0  0.12311605575E+02  0.45144251857E+02 -0.35545817925E-01  0.46792952152E+02  0.00000000000E+00 0.  1.
</event>
<event>
 6    1  0.1715574E-005  0.8448376E+02  0.7818608E-02  0.1316928E+00
          2   -1    0    0  502    0  0.00000000000E+00  0.00000000000E+00  0.69858212621E+02  0.69858212621E+02  0.00000000000E+00 0. -1.
          1   -1    0    0  501    0 -0.00000000000E+00 -0.00000000000E+00 -0.19791516094E+03  0.19791516094E+03  0.00000000000E+00 0. -1.
          2    1    1    2  501    0  0.55603962018E+02  0.16168204028E+02  0.12589498591E+02  0.59259656499E+02  0.00000000000E+00 0. -1.
          1    1    1    2  502    0 -0.17498836282E+02 -0.99750722017E+01 -0.30655881724E+02  0.36680981733E+02  0.00000000000E+00 0. -1.
         22    1    1    2    0    0  0.24540217076E+02  0.54656921859E+01  0.16587498819E+02  0.30120444258E+02  0.00000000000E+00 0. -1.
         22    1    1    2    0    0 -0.62645342812E+02 -0.11658824012E+02 -0.12657806400E+03  0.14171229107E+03  0.00000000000E+00 0. -1.
</event>
<event>
 6    1  0.1715574E-005  0.1240040E+03  0.7818608E-02  0.1303928E+00
          2   -1    0    0  502    0  0.00000000000E+00  0.00000000000E+00  0.65325873582E+02  0.65325873582E+02  0.00000000000E+00 0. -1.
          1   -1    0    0  501    0 -0.00000000000E+00 -0.00000000000E+00 -0.69552002900E+03  0.69552002900E+03  0.00000000000E+00 0. -1.
          2    1    1    2  501    0  0.50469894035E+02 -0.90919161004E+00  0.61331493652E+01  0.50849310265E+02  0.00000000000E+00 0. -1.
          1    1    1    2  502    0 -0.93345647463E+02  0.32404016585E+02 -0.52624955308E+03  0.53544562965E+03  0.00000000000E+00 0. -1.
         22    1    1    2    0    0  0.72885361720E+02 -0.16082952728E+02 -0.18414483641E+02  0.76876722935E+02  0.00000000000E+00 0.  1.
         22    1    1    2    0    0 -0.30009608291E+02 -0.15411872247E+02 -0.91663268056E+02  0.97674239729E+02  0.00000000000E+00 0. -1.
</event>
<event>
 6    1  0.1715574E-005  0.5248453E+02  0.7818608E-02  0.1434536E+00
          2   -1    0    0  502    0  0.00000000000E+00  0.00000000000E+00  0.39104748146E+03  0.39104748146E+03  0.00000000000E+00 0. -1.
          1   -1    0    0  501    0 -0.00000000000E+00 -0.00000000000E+00 -0.12120101276E+03  0.12120101276E+03  0.00000000000E+00 0. -1.
          2    1    1    2  501    0  0.39748454412E+02  0.12071474624E+01  0.33227212076E+03  0.33464333113E+03  0.00000000000E+00 0. -1.
          1    1    1    2  502    0 -0.22832315606E+02 -0.71247142118E+01 -0.43313626761E+02  0.49478747475E+02  0.00000000000E+00 0. -1.
         22    1    1    2    0    0  0.94946409888E+01 -0.33630707859E+01  0.51338796000E+02  0.52317591949E+02  0.00000000000E+00 0. -1.
         22    1    1    2    0    0 -0.26410779795E+02  0.92806375353E+01 -0.70450821306E+02  0.75808823663E+02  0.00000000000E+00 0. -1.
</event>
<event>
 6    1  0.1715574E-005  0.6389607E+02  0.7818608E-02  0.1422809E+00
          2   -1    0    0  502    0  0.00000000000E+00  0.00000000000E+00  0.67503563467E+02  0.67503563467E+02  0.00000000000E+00 0. -1.
          1   -1    0    0  501    0 -0.00000000000E+00 -0.00000000000E+00 -0.23199263120E+03  0.23199263120E+03  0.00000000000E+00 0. -1.
          2    1    1    2  501    0 -0.37927724290E+02 -0.95706808433E+01  0.16185653134E+02  0.42333031653E+02  0.00000000000E+00 0. -1.
          1    1    1    2  502    0  0.44654015998E+02 -0.28065559108E+02 -0.77478515005E+02  0.93726074495E+02  0.00000000000E+00 0. -1.
         22    1    1    2    0    0 -0.25230525544E+02  0.95331172385E+01  0.21366887348E+02  0.34409353647E+02  0.00000000000E+00 0. -1.
         22    1    1    2    0    0  0.18504233835E+02  0.28103122713E+02 -0.12456309321E+03  0.12902773487E+03  0.00000000000E+00 0.  1.
</event>
<event>
 6    1  0.1715574E-005  0.1166074E+03  0.7818608E-02  0.1255053E+00
          2   -1    0    0  502    0  0.00000000000E+00  0.00000000000E+00  0.23505257388E+03  0.23505257388E+03  0.00000000000E+00 0. -1.
          1   -1    0    0  501    0 -0.00000000000E+00 -0.00000000000E+00 -0.53077352447E+02  0.53077352447E+02  0.00000000000E+00 0. -1.
          2    1    1    2  501    0  0.24176551303E+02 -0.88154049812E+01 -0.13221133097E+00  0.25733916875E+02  0.00000000000E+00 0. -1.
          1    1    1    2  502    0 -0.41984648260E+02 -0.36250932768E+02  0.42727033674E+02  0.70017427992E+02  0.00000000000E+00 0. -1.
         22    1    1    2    0    0 -0.45418412160E+02  0.62383828210E+01  0.16286018532E+02  0.48651659612E+02  0.00000000000E+00 0. -1.
         22    1    1    2    0    0  0.63226509117E+02  0.38827954928E+02  0.12309438056E+03  0.14372692185E+03  0.00000000000E+00 0. -1.
</event>
<event>
 6    1  0.1715574E-005  0.4786479E+02  0.7818608E-02  0.1476067E+00
          2   -1    0    0  502    0  0.00000000000E+00  0.00000000000E+00  0.78272617122E+02  0.78272617122E+02  0.00000000000E+00 0.  1.
          1   -1    0    0  501    0 -0.00000000000E+00 -0.00000000000E+00 -0.14187595993E+03  0.14187595993E+03  0.00000000000E+00 0. -1.
          2    1    1    2  501    0 -0.13992656265E+02  0.14715263870E+02  0.32159571047E+02  0.38033819557E+02  0.00000000000E+00 0.  1.
          1    1    1    2  502    0  0.16476200382E+02  0.14341537558E+02 -0.38181669832E+02  0.43988462007E+02  0.00000000000E+00 0. -1.
         22    1    1    2    0    0 -0.12450516977E+02 -0.93545864715E+01  0.37452531295E+02  0.40561259367E+02  0.00000000000E+00 0.  1.
         22    1    1    2    0    0  0.99669728610E+01 -0.19702214957E+02 -0.95033775313E+02  0.97565036117E+02  0.00000000000E+00 0. -1.
</event>
<event>
 6    1  0.1715574E-005  0.2678267E+03  0.7818608E-02  0.1102688E+00
          2   -1    0    0  502    0  0.00000000000E+00  0.00000000000E+00  0.10133637711E+04  0.10133637711E+04  0.00000000000E+00 0.  1.
          1   -1    0    0  501    0 -0.00000000000E+00 -0.00000000000E+00 -0.96720223099E+02  0.96720223099E+02  0.00000000000E+00 0.  1.
          2    1    1    2  501    0  0.14184575993E+03 -0.11403331985E+03  0.44474195019E+03  0.48054054970E+03  0.00000000000E+00 0.  1.
          1    1    1    2  502    0 -0.16976946225E+03  0.15896624088E+03  0.14500061732E+03  0.27407501724E+03  0.00000000000E+00 0.  1.
         22    1    1    2    0    0  0.60829269038E+02 -0.53913475184E+02  0.30326857267E+03  0.31397243501E+03  0.00000000000E+00 0. -1.
         22    1    1    2    0    0 -0.32905566723E+02  0.89805541549E+01  0.23632407844E+02  0.41495992274E+02  0.00000000000E+00 0.  1.
</event>
<event>
 6    1  0.1904032E-005  0.3056657E+03  0.7818608E-02  0.1082794E+00
          2   -1    0    0  502    0  0.00000000000E+00  0.00000000000E+00  0.88446033871E+03  0.88446033871E+03  0.00000000000E+00 0.  1.
          1   -1    0    0  501    0 -0.00000000000E+00 -0.00000000000E+00 -0.17450611830E+03  0.17450611830E+03  0.00000000000E+00 0.  1.
          2    1    1    2  501    0  0.21839523379E+03 -0.13546323187E+03  0.56706803356E+03  0.62258567283E+03  0.00000000000E+00 0.  1.
          1    1    1    2  502    0 -0.23627420411E+03  0.13258668768E+03  0.38394754976E+02  0.27364006740E+03  0.00000000000E+00 0.  1.
         22    1    1    2    0    0  0.45047720569E+02 -0.26500098603E+01  0.12191286058E+03  0.12999640478E+03  0.00000000000E+00 0. -1.
         22    1    1    2    0    0 -0.27168750247E+02  0.55265540546E+01 -0.17421428701E+02  0.32744311990E+02  0.00000000000E+00 0.  1.
</event>
<event>
 6    1  0.1715574E-005  0.8455474E+02  0.7818608E-02  0.1319027E+00
          2   -1    0    0  502    0  0.00000000000E+00  0.00000000000E+00  0.33504927147E+03  0.33504927147E+03  0.00000000000E+00 0.  1.
          1   -1    0    0  501    0 -0.00000000000E+00 -0.00000000000E+00 -0.86942942358E+02  0.86942942358E+02  0.00000000000E+00 0. -1.
          2    1    1    2  501    0 -0.65769380010E+02 -0.11568976471E+02  0.23411345875E+03  0.24345135886E+03  0.00000000000E+00 0.  1.
          1    1    1    2  502    0  0.34407200031E+02  0.18060500996E+02 -0.18960058578E+02  0.43237957069E+02  0.00000000000E+00 0. -1.
         22    1    1    2    0    0  0.44159932429E+02 -0.45622261914E+01 -0.40876684553E+02  0.60347467884E+02  0.00000000000E+00 0. -1.
         22    1    1    2    0    0 -0.12797752451E+02 -0.19292983342E+01  0.73829613492E+02  0.74955430011E+02  0.00000000000E+00 0. -1.
</event>
<event>
 6    1  0.1715574E-005  0.6133828E+02  0.7818608E-02  0.1402172E+00
          2   -1    0    0  502    0  0.00000000000E+00  0.00000000000E+00  0.21841630090E+03  0.21841630090E+03  0.00000000000E+00 0.  1.
          1   -1    0    0  501    0 -0.00000000000E+00 -0.00000000000E+00 -0.11746210608E+03  0.11746210608E+03  0.00000000000E+00 0. -1.
          2    1    1    2  501    0 -0.16491836727E+02 -0.18649066218E+02  0.67437046132E+02  0.71885489081E+02  0.00000000000E+00 0.  1.
          1    1    1    2  502    0  0.41112636028E+02  0.33145559165E+01 -0.82425719645E+02  0.92169595752E+02  0.00000000000E+00 0. -1.
         22    1    1    2    0    0  0.95421736975E+01  0.57646282916E+01 -0.24527358810E+02  0.26942073944E+02  0.00000000000E+00 0. -1.
         22    1    1    2    0    0 -0.34162972998E+02  0.95698820094E+01  0.14047022714E+03  0.14488124820E+03  0.00000000000E+00 0.  1.
</event>
<event>
 6    1  0.1715574E-005  0.1660987E+03  0.7818608E-02  0.1242467E+00
          2   -1    0    0  502    0  0.00000000000E+00  0.00000000000E+00  0.44495070744E+03  0.44495070744E+03  0.00000000000E+00 0. -1.
          1   -1    0    0  501    0 -0.00000000000E+00 -0.00000000000E+00 -0.60503810536E+02  0.60503810536E+02  0.00000000000E+00 0. -1.
          2    1    1    2  501    0 -0.18936743563E+02  0.15932073395E+02  0.26641592947E+03  0.26756284999E+03  0.00000000000E+00 0. -1.
          1    1    1    2  502    0 -0.17862906739E+02 -0.35244863923E+02  0.99115859294E+02  0.10670162807E+03  0.00000000000E+00 0. -1.
         22    1    1    2    0    0  0.45480272561E+02  0.32540796297E+02 -0.40922154463E+02  0.69296329930E+02  0.00000000000E+00 0. -1.
         22    1    1    2    0    0 -0.86806222589E+01 -0.13228005770E+02  0.59837262607E+02  0.61893709986E+02  0.00000000000E+00 0. -1.
</event>
<event>
 6    1  0.1715574E-005  0.8645379E+02  0.7818608E-02  0.1314031E+00
          2   -1    0    0  502    0  0.00000000000E+00  0.00000000000E+00  0.50611366025E+02  0.50611366025E+02  0.00000000000E+00 0. -1.
          1   -1    0    0  501    0 -0.00000000000E+00 -0.00000000000E+00 -0.27185317373E+03  0.27185317373E+03  0.00000000000E+00 0.  1.
          2    1    1    2  501    0 -0.26018344834E+02 -0.24191692104E+02 -0.13378358016E+02  0.37962780430E+02  0.00000000000E+00 0. -1.
          1    1    1    2  502    0  0.44885047776E+02  0.28434893505E+02 -0.11802715317E+03  0.12943577391E+03  0.00000000000E+00 0.  1.
         22    1    1    2    0    0 -0.44294275956E+02 -0.14734380180E+02  0.13127394051E+02  0.48491373628E+02  0.00000000000E+00 0. -1.
         22    1    1    2    0    0  0.25427573014E+02  0.10491178779E+02 -0.10296369057E+03  0.10657461178E+03  0.00000000000E+00 0.  1.
</event>
<event>
 6    1  0.1715574E-005  0.4348949E+02  0.7818608E-02  0.1485083E+00
          2   -1    0    0  502    0  0.00000000000E+00  0.00000000000E+00  0.16100465217E+03  0.16100465217E+03  0.00000000000E+00 0. -1.
          1   -1    0    0  501    0 -0.00000000000E+00 -0.00000000000E+00 -0.11666429759E+03  0.11666429759E+03  0.00000000000E+00 0.  1.
          2    1    1    2  501    0 -0.15883703541E+02 -0.23962997202E+02  0.80119386914E+02  0.85121286601E+02  0.00000000000E+00 0. -1.
          1    1    1    2  502    0  0.20625778188E+02  0.17652564297E+02 -0.57194794353E+02  0.63310980510E+02  0.00000000000E+00 0.  1.
         22    1    1    2    0    0  0.53254513562E+01  0.13431509117E+02 -0.52421754173E+02  0.54376522322E+02  0.00000000000E+00 0.  1.
         22    1    1    2    0    0 -0.10067526002E+02 -0.71210762118E+01  0.73837516189E+02  0.74860160320E+02  0.00000000000E+00 0. -1.
</event>
<event>
 6    1  0.1715574E-005  0.1081323E+03  0.7818608E-02  0.1269300E+00
          2   -1    0    0  502    0  0.00000000000E+00  0.00000000000E+00  0.55140307517E+03  0.55140307517E+03  0.00000000000E+00 0. -1.
          1   -1    0    0  501    0 -0.00000000000E+00 -0.00000000000E+00 -0.28820515906E+02  0.28820515906E+02  0.00000000000E+00 0.  1.
          2    1    1    2  501    0 -0.48076431181E+02  0.26025238464E+02  0.18610154458E+03  0.19396505141E+03  0.00000000000E+00 0. -1.
          1    1    1    2  502    0  0.39187413950E+02 -0.43845027073E+02  0.63299833241E+02  0.86399703121E+02  0.00000000000E+00 0.  1.
         22    1    1    2    0    0 -0.71543640153E+01  0.51401357762E+02  0.25147550516E+03  0.25677463699E+03  0.00000000000E+00 0. -1.
         22    1    1    2    0    0  0.16043381247E+02 -0.33581569153E+02  0.21705676276E+02  0.43084199554E+02  0.00000000000E+00 0.  1.
</event>
<event>
 6    1  0.1715574E-005  0.4926441E+02  0.7818608E-02  0.1522239E+00
          2   -1    0    0  502    0  0.00000000000E+00  0.00000000000E+00  0.56031472585E+03  0.56031472585E+03  0.00000000000E+00 0. -1.
          1   -1    0    0  501    0 -0.00000000000E+00 -0.00000000000E+00 -0.17546934048E+03  0.17546934048E+03  0.00000000000E+00 0. -1.
          2    1    1    2  501    0 -0.41310641837E+02  0.28861317928E+02  0.31774526193E+03  0.32171663973E+03  0.00000000000E+00 0. -1.
          1    1    1    2  502    0  0.78143129373E+02 -0.53720784516E+01  0.20803961624E+03  0.22229640083E+03  0.00000000000E+00 0. -1.
         22    1    1    2    0    0 -0.47860613918E+02 -0.96099660765E+01 -0.15908335589E+03  0.16640463916E+03  0.00000000000E+00 0. -1.
         22    1    1    2    0    0  0.11028126382E+02 -0.13879273400E+02  0.18143863098E+02  0.25366386611E+02  0.00000000000E+00 0.  1.
</event>
<event>
 6    1  0.1715574E-005  0.6379939E+02  0.7818608E-02  0.1422872E+00
          2   -1    0    0  502    0  0.00000000000E+00  0.00000000000E+00  0.57361737425E+03  0.57361737425E+03  0.00000000000E+00 0.  1.
          1   -1    0    0  501    0 -0.00000000000E+00 -0.00000000000E+00 -0.21238078378E+03  0.21238078378E+03  0.00000000000E+00 0. -1.
          2    1    1    2  501    0  0.28900817010E+02  0.92177294975E+02  0.52702410699E+03  0.53580436755E+03  0.00000000000E+00 0.  1.
          1    1    1    2  502    0  0.12324136275E+02 -0.47854440381E+02 -0.34509269546E+02  0.60272891782E+02  0.00000000000E+00 0. -1.
         22    1    1    2    0    0 -0.25312149336E+02  0.73975067974E+00  0.19365149843E+02  0.31878851352E+02  0.00000000000E+00 0. -1.
         22    1    1    2    0    0 -0.15912803948E+02 -0.45062605274E+02 -0.15064339682E+03  0.15804204735E+03  0.00000000000E+00 0. -1.
</event>
<event>
 6    1  0.1715574E-005  0.6171477E+02  0.7818608E-02  0.1429164E+00
          2   -1    0    0  502    0  0.00000000000E+00  0.00000000000E+00  0.26870389094E+03  0.26870389094E+03  0.00000000000E+00 0.  1.
          1   -1    0    0  501    0 -0.00000000000E+00 -0.00000000000E+00 -0.20675726115E+03  0.20675726115E+03  0.00000000000E+00 0. -1.
          2    1    1    2  501    0 -0.49904563617E+02 -0.25805049912E+02  0.17836993736E+03  0.18700855762E+03  0.00000000000E+00 0.  1.
          1    1    1    2  502    0  0.77849505484E+02 -0.21968505947E+02 -0.12768114991E+03  0.15114773171E+03  0.00000000000E+00 0. -1.
         22    1    1    2    0    0  0.98736050983E+01  0.22935697961E+02 -0.53074321494E+02  0.58655075831E+02  0.00000000000E+00 0. -1.
         22    1    1    2    0    0 -0.37818546965E+02  0.24837857898E+02  0.64332163836E+02  0.78649786924E+02  0.00000000000E+00 0.  1.
</event>
<event>
 6    1  0.1715574E-005  0.2478778E+02  0.7818608E-02  0.1684079E+00
          2   -1    0    0  502    0  0.00000000000E+00  0.00000000000E+00  0.70047016901E+02  0.70047016901E+02  0.00000000000E+00 0.  1.
          1   -1    0    0  501    0 -0.00000000000E+00 -0.00000000000E+00 -0.23568096027E+03  0.23568096027E+03  0.00000000000E+00 0.  1.
          2    1    1    2  501    0  0.68583400748E+01 -0.27368826968E+02  0.20558164843E+02  0.34910280146E+02  0.00000000000E+00 0.  1.
          1    1    1    2  502    0 -0.21527812936E+02  0.29081661827E+02 -0.13423028151E+03  0.13902143093E+03  0.00000000000E+00 0.  1.
         22    1    1    2    0    0  0.11855999971E+02  0.10668356656E+02 -0.90151390736E+02  0.91551361654E+02  0.00000000000E+00 0. -1.
         22    1    1    2    0    0  0.28134728900E+01 -0.12381191516E+02  0.38189564028E+02  0.40244904444E+02  0.00000000000E+00 0.  1.
</event>
<event>
 6    1  0.1715574E-005  0.8221232E+02  0.7818608E-02  0.1329828E+00
          2   -1    0    0  502    0  0.00000000000E+00  0.00000000000E+00  0.26857299421E+03  0.26857299421E+03  0.00000000000E+00 0.  1.
          1   -1    0    0  501    0 -0.00000000000E+00 -0.00000000000E+00 -0.51266766147E+02  0.51266766147E+02  0.00000000000E+00 0.  1.
          2    1    1    2  501    0 -0.19207144510E+02 -0.73830223708E+01  0.11494567785E+03  0.11677299464E+03  0.00000000000E+00 0.  1.
          1    1    1    2  502    0 -0.29695001354E+02 -0.18627826848E+02  0.22680644643E+02  0.41751654816E+02  0.00000000000E+00 0.  1.
         22    1    1    2    0    0  0.47097124907E+02 -0.42874672159E+00  0.11082676942E+03  0.12041966541E+03  0.00000000000E+00 0.  1.
         22    1    1    2    0    0  0.18050209569E+01  0.26439595941E+02 -0.31146863851E+02  0.40895445491E+02  0.00000000000E+00 0.  1.
</event>
<event>
 6    1  0.1715574E-005  0.8198251E+02  0.7818608E-02  0.1355488E+00
          2   -1    0    0  502    0  0.00000000000E+00  0.00000000000E+00  0.32089503853E+03  0.32089503853E+03  0.00000000000E+00 0. -1.
          1   -1    0    0  501    0 -0.00000000000E+00 -0.00000000000E+00 -0.56632574920E+02  0.56632574920E+02  0.00000000000E+00 0. -1.
          2    1    1    2  501    0  0.49446509529E+02  0.22734562817E+02  0.11204991242E+03  0.12456725302E+03  0.00000000000E+00 0. -1.
          1    1    1    2  502    0 -0.37407889190E+02 -0.55584855677E+02  0.42169161099E+02  0.79166056502E+02  0.00000000000E+00 0. -1.
         22    1    1    2    0    0 -0.42597156868E+02  0.20079604085E+02 -0.10950830546E+02  0.48349032701E+02  0.00000000000E+00 0. -1.
         22    1    1    2    0    0  0.30558536529E+02  0.12770688775E+02  0.12099422064E+03  0.12544527123E+03  0.00000000000E+00 0.  1.
</event>
<event>
 6    1  0.1715574E-005  0.5587925E+02  0.7818608E-02  0.1474697E+00
          2   -1    0    0  502    0  0.00000000000E+00  0.00000000000E+00  0.30196813808E+03  0.30196813808E+03  0.00000000000E+00 0. -1.
          1   -1    0    0  501    0 -0.00000000000E+00 -0.00000000000E+00 -0.29317112168E+03  0.29317112168E+03  0.00000000000E+00 0. -1.
          2    1    1    2  501    0 -0.54143871748E+02  0.36476516258E+02  0.23177634834E+03  0.24079528803E+03  0.00000000000E+00 0. -1.
          1    1    1    2  502    0  0.38019484695E+02 -0.12721655304E+02 -0.22240545951E+03  0.22599006649E+03  0.00000000000E+00 0. -1.
         22    1    1    2    0    0  0.94499484490E+00 -0.23364056438E+02  0.60793736414E+02  0.65135631844E+02  0.00000000000E+00 0. -1.
         22    1    1    2    0    0  0.15179392209E+02 -0.39080451639E+00 -0.61367608848E+02  0.63218273400E+02  0.00000000000E+00 0. -1.
</event>
<event>
 6    1  0.1715574E-005  0.1106162E+03  0.7818608E-02  0.1260540E+00
          2   -1    0    0  502    0  0.00000000000E+00  0.00000000000E+00  0.33224709176E+03  0.33224709176E+03  0.00000000000E+00 0.  1.
          1   -1    0    0  501    0 -0.00000000000E+00 -0.00000000000E+00 -0.13201878283E+03  0.13201878283E+03  0.00000000000E+00 0.  1.
          2    1    1    2  501    0  0.65826181505E+02  0.90877752991E+02  0.28470269410E+01  0.11224953328E+03  0.00000000000E+00 0.  1.
          1    1    1    2  502    0 -0.88881880650E+02  0.19801553465E+02 -0.17768302757E+01  0.91078248519E+02  0.00000000000E+00 0.  1.
         22    1    1    2    0    0 -0.12901831443E+02  0.47931453071E+01 -0.11563529657E+02  0.17976282003E+02  0.00000000000E+00 0.  1.
         22    1    1    2    0    0  0.35957530587E+02 -0.11547245176E+03  0.21072164192E+03  0.24296181078E+03  0.00000000000E+00 0.  1.
</event>
<event>
 6    1  0.1715574E-005  0.1492835E+03  0.7818608E-02  0.1211556E+00
          2   -1    0    0  502    0  0.00000000000E+00  0.00000000000E+00  0.51680327771E+03  0.51680327771E+03  0.00000000000E+00 0. -1.
          1   -1    0    0  501    0 -0.00000000000E+00 -0.00000000000E+00 -0.44610880462E+02  0.44610880462E+02  0.00000000000E+00 0. -1.
          2    1    1    2  501    0  0.75508339637E+02  0.42916697693E+02  0.24759559098E+03  0.26238698323E+03  0.00000000000E+00 0. -1.
          1    1    1    2  502    0 -0.33871590598E+02 -0.45680360447E+02  0.10277863595E+03  0.11746245353E+03  0.00000000000E+00 0. -1.
         22    1    1    2    0    0  0.32697995660E+02 -0.47620187271E+01  0.97570611976E+02  0.10301388287E+03  0.00000000000E+00 0. -1.
         22    1    1    2    0    0 -0.74334744698E+02  0.75256814817E+01  0.24247558341E+02  0.78550838548E+02  0.00000000000E+00 0. -1.
</event>
<event>
 6    1  0.1715574E-005  0.5337125E+02  0.7818608E-02  0.1464577E+00
          2   -1    0    0  502    0  0.00000000000E+00  0.00000000000E+00  0.11714871150E+04  0.11714871150E+04  0.00000000000E+00 0. -1.
          1   -1    0    0  501    0 -0.00000000000E+00 -0.00000000000E+00 -0.48470260119E+02  0.48470260119E+02  0.00000000000E+00 0.  1.
          2    1    1    2  501    0 -0.47345292349E+02  0.36415704009E+02  0.10183141957E+04  0.10200644497E+04  0.00000000000E+00 0. -1.
          1    1    1    2  502    0  0.19953680416E+02 -0.95297254956E+01 -0.83452726163E+01  0.23634902268E+02  0.00000000000E+00 0.  1.
         22    1    1    2    0    0  0.30425189155E+02  0.39914115277E+01 -0.21957935221E+02  0.37732935484E+02  0.00000000000E+00 0. -1.
         22    1    1    2    0    0 -0.30335772210E+01 -0.30877390041E+02  0.13500586693E+03  0.13852508766E+03  0.00000000000E+00 0. -1.
</event>
<event>
 6    1  0.1715574E-005  0.6012346E+02  0.7818608E-02  0.1399851E+00
          2   -1    0    0  502    0  0.00000000000E+00  0.00000000000E+00  0.63140445086E+02  0.63140445086E+02  0.00000000000E+00 0.  1.
          1   -1    0    0  501    0 -0.00000000000E+00 -0.00000000000E+00 -0.20185262704E+03  0.20185262704E+03  0.00000000000E+00 0.  1.
          2    1    1    2  501    0 -0.28662081775E+02 -0.14626408259E+02  0.24339824909E+02  0.40346918431E+02  0.00000000000E+00 0.  1.
          1    1    1    2  502    0  0.20250100351E+02  0.12473525716E+02 -0.65334582359E+02  0.69528864942E+02  0.00000000000E+00 0.  1.
         22    1    1    2    0    0 -0.97076272214E+01 -0.26172385615E+02  0.18924862215E+02  0.33725097552E+02  0.00000000000E+00 0.  1.
         22    1    1    2    0    0  0.18119608646E+02  0.28325268159E+02 -0.11664228672E+03  0.12139219120E+03  0.00000000000E+00 0.  1.
</event>
<event>
 6    1  0.1715574E-005  0.3270396E+03  0.7818608E-02  0.1082528E+00
          2   -1    0    0  502    0  0.00000000000E+00  0.00000000000E+00  0.10407923679E+04  0.10407923679E+04  0.00000000000E+00 0. -1.
          1   -1    0    0  501    0 -0.00000000000E+00 -0.00000000000E+00 -0.88398601668E+02  0.88398601668E+02  0.00000000000E+00 0. -1.
          2    1    1    2  501    0  0.20258048093E+03  0.12335632563E+03  0.55650606622E+03  0.60494184519E+03  0.00000000000E+00 0. -1.
          1    1    1    2  502    0 -0.20509773927E+02  0.27083892297E+02  0.17333160905E+03  0.17662965420E+03  0.00000000000E+00 0. -1.
         22    1    1    2    0    0 -0.18824640842E+03 -0.15984322123E+03  0.18541686100E+03  0.30881382417E+03  0.00000000000E+00 0. -1.
         22    1    1    2    0    0  0.61757014151E+01  0.94030033011E+01  0.37139230021E+02  0.38805646053E+02  0.00000000000E+00 0.  1.
</event>
<event>
 6    1  0.1715574E-005  0.7490813E+02  0.7818608E-02  0.1369107E+00
          2   -1    0    0  502    0  0.00000000000E+00  0.00000000000E+00  0.21757091217E+03  0.21757091217E+03  0.00000000000E+00 0.  1.
          1   -1    0    0  501    0 -0.00000000000E+00 -0.00000000000E+00 -0.42405567607E+02  0.42405567607E+02  0.00000000000E+00 0.  1.
          2    1    1    2  501    0  0.17772563414E+02 -0.19593057444E+02  0.31839908862E+02  0.41394827052E+02  0.00000000000E+00 0.  1.
          1    1    1    2  502    0 -0.24088223912E+02 -0.58584163366E+01 -0.44325831512E+01  0.25183553494E+02  0.00000000000E+00 0.  1.
         22    1    1    2    0    0  0.29718656158E+02  0.23899793131E+02  0.16168413737E+03  0.16612091654E+03  0.00000000000E+00 0.  1.
         22    1    1    2    0    0 -0.23402995660E+02  0.15516806489E+01 -0.13926118515E+02  0.27277182692E+02  0.00000000000E+00 0.  1.
</event>
<event>
 6    1  0.1715574E-005  0.3505707E+02  0.7818608E-02  0.1549568E+00
          2   -1    0    0  502    0  0.00000000000E+00  0.00000000000E+00  0.75022146718E+02  0.75022146718E+02  0.00000000000E+00 0.  1.
          1   -1    0    0  501    0 -0.00000000000E+00 -0.00000000000E+00 -0.16964474838E+03  0.16964474838E+03  0.00000000000E+00 0. -1.
          2    1    1    2  501    0  0.80241150295E+01 -0.35819012341E+02  0.12276284545E+02  0.38705235167E+02  0.00000000000E+00 0.  1.
          1    1    1    2  502    0  0.13185251267E+02  0.15948252452E+02 -0.70290006870E+02  0.73272659792E+02  0.00000000000E+00 0. -1.
         22    1    1    2    0    0 -0.32666904542E+02  0.10776409795E+02  0.41111361534E+02  0.53604120248E+02  0.00000000000E+00 0.  1.
         22    1    1    2    0    0  0.11457538246E+02  0.90943500945E+01 -0.77720240875E+02  0.79084879895E+02  0.00000000000E+00 0. -1.
</event>
<event>
 6    1  0.1715574E-005  0.4125422E+02  0.7818608E-02  0.1499470E+00
          2   -1    0    0  502    0  0.00000000000E+00  0.00000000000E+00  0.25303816054E+03  0.25303816054E+03  0.00000000000E+00 0.  1.
          1   -1    0    0  501    0 -0.00000000000E+00 -0.00000000000E+00 -0.57686056917E+02  0.57686056917E+02  0.00000000000E+00 0.  1.
          2    1    1    2  501    0 -0.51542770538E+02  0.57356746254E+02  0.70949908856E+02  0.10478713233E+03  0.00000000000E+00 0.  1.
          1    1    1    2  502    0  0.22627705599E+02 -0.24572491597E+02  0.13538759150E+02  0.36043285134E+02  0.00000000000E+00 0.  1.
         22    1    1    2    0    0  0.33514662767E+02  0.53640295078E-02 -0.17163956172E+02  0.37654137098E+02  0.00000000000E+00 0.  1.
         22    1    1    2    0    0 -0.45995978277E+01 -0.32789618687E+02  0.12802739179E+03  0.13223966289E+03  0.00000000000E+00 0.  1.
</event>
<event>
 6    1  0.1715574E-005  0.1114777E+03  0.7818608E-02  0.1294536E+00
          2   -1    0    0  502    0  0.00000000000E+00  0.00000000000E+00  0.51401580092E+03  0.51401580092E+03  0.00000000000E+00 0. -1.
          1   -1    0    0  501    0 -0.00000000000E+00 -0.00000000000E+00 -0.21105073864E+02  0.21105073864E+02  0.00000000000E+00 0.  1.
          2    1    1    2  501    0  0.29402400223E+02  0.21765476065E+02  0.12680509856E+03  0.13197639982E+03  0.00000000000E+00 0. -1.
          1    1    1    2  502    0  0.24274460053E+02 -0.15630520879E+02  0.29061361698E+02  0.40964928140E+02  0.00000000000E+00 0.  1.
         22    1    1    2    0    0 -0.73780240892E+02  0.81365603602E+01  0.32739565449E+03  0.33570469484E+03  0.00000000000E+00 0. -1.
         22    1    1    2    0    0  0.20103380616E+02 -0.14271515546E+02  0.96486123068E+01  0.26474851985E+02  0.00000000000E+00 0.  1.
</event>
<event>
 6    1  0.1715574E-005  0.2014918E+03  0.7818608E-02  0.1150221E+00
          2   -1    0    0  502    0  0.00000000000E+00  0.00000000000E+00  0.12850210151E+03  0.12850210151E+03  0.00000000000E+00 0.  1.
          1   -1    0    0  501    0 -0.00000000000E+00 -0.00000000000E+00 -0.32748008961E+03  0.32748008961E+03  0.00000000000E+00 0.  1.
          2    1    1    2  501    0 -0.13668790247E+03 -0.92813911118E+02 -0.32607556189E+02  0.16840800902E+03  0.00000000000E+00 0.  1.
          1    1    1    2  502    0  0.67324732779E+02  0.28999114067E+02 -0.28814106386E+02  0.78764338296E+02  0.00000000000E+00 0.  1.
         22    1    1    2    0    0  0.80801932092E+02  0.89436321254E+02 -0.13446881941E+03  0.18058148073E+03  0.00000000000E+00 0. -1.
         22    1    1    2    0    0 -0.11438762397E+02 -0.25621524203E+02 -0.30875061182E+01  0.28228363072E+02  0.00000000000E+00 0.  1.
</event>
<event>
 6    1  0.1715574E-005  0.9112562E+02  0.7818608E-02  0.1376889E+00
          2   -1    0    0  502    0  0.00000000000E+00  0.00000000000E+00  0.38818347475E+03  0.38818347475E+03  0.00000000000E+00 0.  1.
          1   -1    0    0  501    0 -0.00000000000E+00 -0.00000000000E+00 -0.84099657393E+02  0.84099657393E+02  0.00000000000E+00 0.  1.
          2    1    1    2  501    0  0.95385597646E+02  0.26344124276E+02  0.14019593413E+03  0.17160222921E+03  0.00000000000E+00 0.  1.
          1    1    1    2  502    0 -0.63774543997E+02  0.60237618520E+02  0.94949944454E+02  0.12927201978E+03  0.00000000000E+00 0.  1.
         22    1    1    2    0    0 -0.28769253173E+02 -0.11042522050E+03  0.85198924643E+02  0.14240876382E+03  0.00000000000E+00 0.  1.
         22    1    1    2    0    0 -0.28418004758E+01  0.23843477709E+02 -0.16260985879E+02  0.29000119327E+02  0.00000000000E+00 0. -1.
</event>
<event>
 6    1  0.1715574E-005  0.6790039E+02  0.7818608E-02  0.1373456E+00
          2   -1    0    0  502    0  0.00000000000E+00  0.00000000000E+00  0.13715865919E+04  0.13715865919E+04  0.00000000000E+00 0. -1.
          1   -1    0    0  501    0 -0.00000000000E+00 -0.00000000000E+00 -0.27389488894E+02  0.27389488894E+02  0.00000000000E+00 0.  1.
          2    1    1    2  501    0 -0.49324382375E+02 -0.43961198762E+02  0.92961573782E+03  0.93196078335E+03  0.00000000000E+00 0. -1.
          1    1    1    2  502    0  0.26994765880E+02 -0.33180902627E+02  0.26380053186E+02  0.50255317034E+02  0.00000000000E+00 0.  1.
         22    1    1    2    0    0  0.72567445200E+01 -0.13937345848E+02 -0.19511568570E+01  0.15834044442E+02  0.00000000000E+00 0. -1.
         22    1    1    2    0    0  0.15072871975E+02  0.91079447236E+02  0.39015246881E+03  0.40092593592E+03  0.00000000000E+00 0. -1.
</event>
<event>
 6    1  0.1715574E-005  0.1110873E+03  0.7818608E-02  0.1259169E+00
          2   -1    0    0  502    0  0.00000000000E+00  0.00000000000E+00  0.13080165756E+04  0.13080165756E+04  0.00000000000E+00 0. -1.
          1   -1    0    0  501    0 -0.00000000000E+00 -0.00000000000E+00 -0.44273268179E+02  0.44273268179E+02  0.00000000000E+00 0. -1.
          2    1    1    2  501    0 -0.13930490631E+02 -0.53873126232E+02  0.58911334034E+01  0.55956034098E+02  0.00000000000E+00 0. -1.
          1    1    1    2  502    0 -0.14051864691E+02  0.68082212935E+02  0.10629198112E+04  0.10651906720E+04  0.00000000000E+00 0. -1.
         22    1    1    2    0    0  0.27451932436E+02 -0.44788059850E+02  0.24456540083E+02  0.57945675010E+02  0.00000000000E+00 0. -1.
         22    1    1    2    0    0  0.53042288568E+00  0.30578973147E+02  0.17047582274E+03  0.17319746270E+03  0.00000000000E+00 0.  1.
</event>
<event>
 6    1  0.1715574E-005  0.1536572E+03  0.7818608E-02  0.1201567E+00
          2   -1    0    0  502    0  0.00000000000E+00  0.00000000000E+00  0.22375485768E+02  0.22375485768E+02  0.00000000000E+00 0. -1.
          1   -1    0    0  501    0 -0.00000000000E+00 -0.00000000000E+00 -0.95530764840E+03  0.95530764840E+03  0.00000000000E+00 0. -1.
          2    1    1    2  501    0  0.78187553285E+02  0.37139091975E+02 -0.33112950962E+03  0.34225627500E+03  0.00000000000E+00 0. -1.
          1    1    1    2  502    0 -0.62552793698E+01 -0.56390931373E+02 -0.12201839371E+03  0.13456431200E+03  0.00000000000E+00 0. -1.
         22    1    1    2    0    0 -0.16992011239E+02  0.55018764993E+02 -0.99433693733E+02  0.11490366572E+03  0.00000000000E+00 0. -1.
         22    1    1    2    0    0 -0.54940262676E+02 -0.35766925595E+02 -0.38035056557E+03  0.38595888144E+03  0.00000000000E+00 0. -1.
</event>
<event>
 6    1  0.1715574E-005  0.4940080E+02  0.7818608E-02  0.1503106E+00
          2   -1    0    0  502    0  0.00000000000E+00  0.00000000000E+00  0.11980163143E+03  0.11980163143E+03  0.00000000000E+00 0.  1.
          1   -1    0    0  501    0 -0.00000000000E+00 -0.00000000000E+00 -0.31061811775E+03  0.31061811775E+03  0.00000000000E+00 0. -1.
          2    1    1    2  501    0  0.24787787447E+02 -0.47678412703E+01  0.81471375357E+02  0.85292155087E+02  0.00000000000E+00 0.  1.
          1    1    1    2  502    0 -0.19678862066E+02 -0.59040463977E+01 -0.19908048786E+03  0.20013784256E+03  0.00000000000E+00 0. -1.
         22    1    1    2    0    0  0.20110877064E+02  0.10667985673E+02  0.30613162663E+02  0.38149954428E+02  0.00000000000E+00 0.  1.
         22    1    1    2    0    0 -0.25219802445E+02  0.39019949369E-02 -0.10382053647E+03  0.10683979710E+03  0.00000000000E+00 0.  1.
</event>
<event>
 6    1  0.1715574E-005  0.1771172E+03  0.7818608E-02  0.1171130E+00
          2   -1    0    0  502    0  0.00000000000E+00  0.00000000000E+00  0.26339322955E+02  0.26339322955E+02  0.00000000000E+00 0.  1.
          1   -1    0    0  501    0 -0.00000000000E+00 -0.00000000000E+00 -0.17800724846E+04  0.17800724846E+04  0.00000000000E+00 0. -1.
          2    1    1    2  501    0 -0.15811639830E+02  0.42920431883E+02 -0.17453404429E+03  0.18042811323E+03  0.00000000000E+00 0.  1.
          1    1    1    2  502    0  0.29846707130E+02 -0.14177785991E+03 -0.12626936742E+04  0.12709787969E+04  0.00000000000E+00 0. -1.
         22    1    1    2    0    0  0.84681042739E+01  0.11649671238E+03 -0.17340116060E+03  0.20907212938E+03  0.00000000000E+00 0.  1.
         22    1    1    2    0    0 -0.22503171574E+02 -0.17639284352E+02 -0.14310428264E+03  0.14593276806E+03  0.00000000000E+00 0. -1.
</event>
<event>
 6    1  0.1715574E-005  0.1532058E+03  0.7818608E-02  0.1200930E+00
          2   -1    0    0  502    0  0.00000000000E+00  0.00000000000E+00  0.10955705597E+03  0.10955705597E+03  0.00000000000E+00 0. -1.
          1   -1    0    0  501    0 -0.00000000000E+00 -0.00000000000E+00 -0.40712195898E+03  0.40712195898E+03  0.00000000000E+00 0. -1.
          2    1    1    2  501    0 -0.96955199693E+00  0.22735736291E+02 -0.16592229594E+02  0.28163022186E+02  0.00000000000E+00 0. -1.
          1    1    1    2  502    0  0.56235007445E+02 -0.11074394053E+03 -0.30099489233E+03  0.32561406855E+03  0.00000000000E+00 0. -1.
         22    1    1    2    0    0 -0.66534385864E+02  0.97941296125E+02  0.50655321080E+02  0.12878386367E+03  0.00000000000E+00 0. -1.
         22    1    1    2    0    0  0.11268930416E+02 -0.99330918884E+01 -0.30633102166E+02  0.34118060548E+02  0.00000000000E+00 0. -1.
</event>
<event>
 6    1  0.1715574E-005  0.6740845E+02  0.7818608E-02  0.1427305E+00
          2   -1    0    0  502    0  0.00000000000E+00  0.00000000000E+00  0.13716950820E+03  0.13716950820E+03  0.00000000000E+00 0.  1.
          1   -1    0    0  501    0 -0.00000000000E+00 -0.00000000000E+00 -0.44968269046E+03  0.44968269046E+03  0.00000000000E+00 0. -1.
          2    1    1    2  501    0 -0.47125409216E+02 -0.28292241950E+02  0.64963227293E+02  0.85096862743E+02  0.00000000000E+00 0.  1.
          1    1    1    2  502    0  0.50210266633E+02  0.55548026173E+01 -0.36923106034E+03  0.37267076976E+03  0.00000000000E+00 0. -1.
         22    1    1    2    0    0 -0.18304026822E+02  0.19515975512E+02  0.56490025313E+02  0.62506268949E+02  0.00000000000E+00 0.  1.
         22    1    1    2    0    0  0.15219169405E+02  0.32214638206E+01 -0.64735374520E+02  0.66578297220E+02  0.00000000000E+00 0.  1.
</event>
<event>
 6    1  0.1715574E-005  0.1038022E+03  0.7818608E-02  0.1351776E+00
          2   -1    0    0  502    0  0.00000000000E+00  0.00000000000E+00  0.34158417205E+02  0.34158417205E+02  0.00000000000E+00 0. -1.
          1   -1    0    0  501    0 -0.00000000000E+00 -0.00000000000E+00 -0.49209868512E+03  0.49209868512E+03  0.00000000000E+00 0. -1.
          2    1    1    2  501    0  0.84693980936E+02  0.16180494430E+02 -0.10620158004E+03  0.13679785967E+03  0.00000000000E+00 0. -1.
          1    1    1    2  502    0 -0.26327607284E+02  0.37493467986E+01 -0.58359155513E+02  0.64132609014E+02  0.00000000000E+00 0. -1.
         22    1    1    2    0    0 -0.69253515397E+02 -0.42110825559E+02 -0.28910388505E+03  0.30025060762E+03  0.00000000000E+00 0. -1.
         22    1    1    2    0    0  0.10887141745E+02  0.22180984330E+02 -0.42756473111E+01  0.25076026024E+02  0.00000000000E+00 0. -1.
</event>
<event>
 6    1  0.1715574E-005  0.2224452E+03  0.7818608E-02  0.1142746E+00
          2   -1    0    0  502    0  0.00000000000E+00  0.00000000000E+00  0.12747013597E+03  0.12747013597E+03  0.00000000000E+00 0. -1.
          1   -1    0    0  501    0 -0.00000000000E+00 -0.00000000000E+00 -0.95297831254E+03  0.95297831254E+03  0.00000000000E+00 0. -1.
          2    1    1    2  501    0 -0.19390088747E+03  0.20114382550E+03 -0.33862166316E+03  0.43900002672E+03  0.00000000000E+00 0. -1.
          1    1    1    2  502    0  0.35078382275E+02 -0.18806548186E+03 -0.13129863003E+03  0.23203113717E+03  0.00000000000E+00 0. -1.
         22    1    1    2    0    0  0.16922153703E+03 -0.29368190049E+02 -0.34904675898E+03  0.38901421457E+03  0.00000000000E+00 0. -1.
         22    1    1    2    0    0 -0.10399031837E+02  0.16289846409E+02 -0.65411243930E+01  0.20403070051E+02  0.00000000000E+00 0. -1.
</event>
<event>
 6    1  0.1715574E-005  0.7172809E+02  0.7818608E-02  0.1400736E+00
          2   -1    0    0  502    0  0.00000000000E+00  0.00000000000E+00  0.68016007132E+02  0.68016007132E+02  0.00000000000E+00 0.  1.
          1   -1    0    0  501    0 -0.00000000000E+00 -0.00000000000E+00 -0.28424996523E+03  0.28424996523E+03  0.00000000000E+00 0. -1.
          2    1    1    2  501    0 -0.91053742957E+02  0.16641733495E+02 -0.73369277706E+02  0.11811342985E+03  0.00000000000E+00 0.  1.
          1    1    1    2  502    0  0.28848723491E+02 -0.15935966826E+02 -0.61833627303E+02  0.70068547517E+02  0.00000000000E+00 0. -1.
         22    1    1    2    0    0  0.28792739612E+02 -0.36095393941E+01 -0.11365192333E+03  0.11729795525E+03  0.00000000000E+00 0. -1.
         22    1    1    2    0    0  0.33412279854E+02  0.29037727254E+01  0.32620870233E+02  0.46786039753E+02  0.00000000000E+00 0.  1.
</event>
<event>
 6    1  0.1715574E-005  0.9911073E+02  0.7818608E-02  0.1335751E+00
          2   -1    0    0  502    0  0.00000000000E+00  0.00000000000E+00  0.97111690221E+02  0.97111690221E+02  0.00000000000E+00 0.  1.
          1   -1    0    0  501    0 -0.00000000000E+00 -0.00000000000E+00 -0.99726583517E+02  0.99726583517E+02  0.00000000000E+00 0.  1.
          2    1    1    2  501    0  0.54359453135E+01  0.21130948385E+02  0.24567946566E+02  0.32858035236E+02  0.00000000000E+00 0.  1.
          1    1    1    2  502    0 -0.13806062939E+02  0.17056409272E+02  0.16201998843E+02  0.27276972662E+02  0.00000000000E+00 0.  1.
         22    1    1    2    0    0  0.11426427460E+02  0.24007775644E+00  0.41729524376E+02  0.43266315841E+02  0.00000000000E+00 0.  1.
         22    1    1    2    0    0 -0.30563098353E+01 -0.38427435414E+02 -0.85114363081E+02  0.93436949998E+02  0.00000000000E+00 0.  1.
</event>
<event>
 6    1  0.1715574E-005  0.7353274E+02  0.7818608E-02  0.1402594E+00
          2   -1    0    0  502    0  0.00000000000E+00  0.00000000000E+00  0.34377769956E+03  0.34377769956E+03  0.00000000000E+00 0.  1.
          1   -1    0    0  501    0 -0.00000000000E+00 -0.00000000000E+00 -0.64304919963E+02  0.64304919963E+02  0.00000000000E+00 0. -1.
          2    1    1    2  501    0  0.31282920308E+02  0.30876138670E+02  0.18258937433E+03  0.18780531584E+03  0.00000000000E+00 0.  1.
          1    1    1    2  502    0 -0.11467014742E+02 -0.64934779839E+02  0.16157335913E+02  0.67890187536E+02  0.00000000000E+00 0. -1.
         22    1    1    2    0    0 -0.29881395610E+02  0.45704635838E+01 -0.26824088568E+02  0.40414337412E+02  0.00000000000E+00 0. -1.
         22    1    1    2    0    0  0.10065490045E+02  0.29488177585E+02  0.10755015793E+03  0.11197277873E+03  0.00000000000E+00 0.  1.
</event>
<event>
 6    1  0.1715574E-005  0.6085069E+02  0.7818608E-02  0.1405169E+00
          2   -1    0    0  502    0  0.00000000000E+00  0.00000000000E+00  0.45114529179E+03  0.45114529179E+03  0.00000000000E+00 0. -1.
          1   -1    0    0  501    0 -0.00000000000E+00 -0.00000000000E+00 -0.65978780480E+02  0.65978780480E+02  0.00000000000E+00 0.  1.
          2    1    1    2  501    0  0.14057730872E+02  0.17958624906E+02  0.26839654351E+03  0.26936376254E+03  0.00000000000E+00 0. -1.
          1    1    1    2  502    0 -0.18447537845E+01 -0.37370023519E+02 -0.34136250918E+02  0.50647856826E+02  0.00000000000E+00 0.  1.
         22    1    1    2    0    0 -0.88912972159E+01  0.32136933653E+02  0.17038073835E+03  0.17361288452E+03  0.00000000000E+00 0. -1.
         22    1    1    2    0    0 -0.33216798714E+01 -0.12725535040E+02 -0.19474519629E+02  0.23499568379E+02  0.00000000000E+00 0. -1.
</event>
<event>
 6    1  0.1715574E-005  0.2041056E+03  0.7818608E-02  0.1167718E+00
          2   -1    0    0  502    0  0.00000000000E+00  0.00000000000E+00  0.46548680616E+03  0.46548680616E+03  0.00000000000E+00 0. -1.
          1   -1    0    0  501    0 -0.00000000000E+00 -0.00000000000E+00 -0.22202559038E+03  0.22202559038E+03  0.00000000000E+00 0.  1.
          2    1    1    2  501    0  0.12496404065E+03 -0.18884598282E+02  0.26586512867E+03  0.29437545100E+03  0.00000000000E+00 0. -1.
          1    1    1    2  502    0 -0.15274863766E+03  0.10784364496E+03 -0.10530766490E+03  0.21459753576E+03  0.00000000000E+00 0.  1.
         22    1    1    2    0    0  0.46173957229E+02 -0.11476046037E+03  0.78609796991E+02  0.14656567733E+03  0.00000000000E+00 0. -1.
         22    1    1    2    0    0 -0.18389360222E+02  0.25801413683E+02  0.42939550176E+01  0.31973732455E+02  0.00000000000E+00 0.  1.
</event>
<event>
 6    1  0.1715574E-005  0.1287582E+03  0.7818608E-02  0.1253448E+00
          2   -1    0    0  502    0  0.00000000000E+00  0.00000000000E+00  0.81798050458E+03  0.81798050458E+03  0.00000000000E+00 0.  1.
          1   -1    0    0  501    0 -0.00000000000E+00 -0.00000000000E+00 -0.43287566929E+02  0.43287566929E+02  0.00000000000E+00 0.  1.
          2    1    1    2  501    0  0.12295911594E+03 -0.72567667855E+02  0.22761859793E+03  0.26869171319E+03  0.00000000000E+00 0.  1.
          1    1    1    2  502    0 -0.32064581451E+02  0.61971564876E+02  0.13748281820E+03  0.15417567102E+03  0.00000000000E+00 0.  1.
         22    1    1    2    0    0 -0.20428363185E+02  0.46192303995E+02  0.53149744825E+02  0.73320817956E+02  0.00000000000E+00 0.  1.
         22    1    1    2    0    0 -0.70466171301E+02 -0.35596201016E+02  0.35644177670E+03  0.36507986934E+03  0.00000000000E+00 0.  1.
</event>
<event>
 6    1  0.1715574E-005  0.2084555E+03  0.7818608E-02  0.1145982E+00
          2   -1    0    0  502    0  0.00000000000E+00  0.00000000000E+00  0.17167212393E+04  0.17167212393E+04  0.00000000000E+00 0.  1.
          1   -1    0    0  501    0 -0.00000000000E+00 -0.00000000000E+00 -0.62610636120E+02  0.62610636120E+02  0.00000000000E+00 0.  1.
          2    1    1    2  501    0 -0.14428048545E+03 -0.89747240544E+02  0.14433917384E+04  0.14533585711E+04  0.00000000000E+00 0.  1.
          1    1    1    2  502    0  0.21787000254E+02 -0.28970286337E+02  0.41488008606E+02  0.55092701228E+02  0.00000000000E+00 0.  1.
         22    1    1    2    0    0 -0.75010977808E+00  0.28570206692E+02  0.98569296629E+02  0.10262906807E+03  0.00000000000E+00 0. -1.
         22    1    1    2    0    0  0.12324359498E+03  0.90147320189E+02  0.70661559524E+02  0.16825153501E+03  0.00000000000E+00 0.  1.
</event>
<event>
 6    1  0.1715574E-005  0.9232020E+02  0.7818608E-02  0.1298122E+00
          2   -1    0    0  502    0  0.00000000000E+00  0.00000000000E+00  0.32184649470E+03  0.32184649470E+03  0.00000000000E+00 0.  1.
          1   -1    0    0  501    0 -0.00000000000E+00 -0.00000000000E+00 -0.13660727788E+03  0.13660727788E+03  0.00000000000E+00 0.  1.
          2    1    1    2  501    0 -0.47411745141E+02  0.25348295059E+02  0.22065543083E+03  0.22711060916E+03  0.00000000000E+00 0.  1.
          1    1    1    2  502    0  0.43823321068E+02 -0.39449013919E+02 -0.78555185795E+02  0.98222326301E+02  0.00000000000E+00 0.  1.
         22    1    1    2    0    0  0.30782729702E+02 -0.79597865579E+01 -0.35126208215E+02  0.47379163706E+02  0.00000000000E+00 0.  1.
         22    1    1    2    0    0 -0.27194305628E+02  0.22060505417E+02  0.78265180003E+02  0.85741673408E+02  0.00000000000E+00 0.  1.
</event>
<event>
 6    1  0.1977328E-005  0.1631963E+03  0.7818608E-02  0.1231786E+00
          2   -1    0    0  502    0  0.00000000000E+00  0.00000000000E+00  0.11095183733E+04  0.11095183733E+04  0.00000000000E+00 0.  1.
          1   -1    0    0  501    0 -0.00000000000E+00 -0.00000000000E+00 -0.18354135288E+03  0.18354135288E+03  0.00000000000E+00 0.  1.
          2    1    1    2  501    0 -0.24827713659E+03  0.10648815472E+02  0.51629010333E+03  0.57298377344E+03  0.00000000000E+00 0.  1.
          1    1    1    2  502    0  0.30284212583E+03 -0.47468550386E+02  0.22751509435E+02  0.30738290068E+03  0.00000000000E+00 0.  1.
         22    1    1    2    0    0 -0.58454568668E+02  0.69773504517E+02  0.35555884610E+03  0.36702502853E+03  0.00000000000E+00 0.  1.
         22    1    1    2    0    0  0.38895794312E+01 -0.32953769602E+02  0.31376561576E+02  0.45668023556E+02  0.00000000000E+00 0. -1.
</event>
<event>
 6    1  0.1715574E-005  0.7064917E+02  0.7818608E-02  0.1478373E+00
          2   -1    0    0  502    0  0.00000000000E+00  0.00000000000E+00  0.14144873713E+03  0.14144873713E+03  0.00000000000E+00 0. -1.
          1   -1    0    0  501    0 -0.00000000000E+00 -0.00000000000E+00 -0.19855915437E+03  0.19855915437E+03  0.00000000000E+00 0. -1.
          2    1    1    2  501    0  0.69298452259E+01 -0.30553432364E+02  0.63056616975E+02  0.70410737309E+02  0.00000000000E+00 0. -1.
          1    1    1    2  502    0 -0.27120578342E+02  0.51295523955E+02 -0.12440587902E+03  0.13727191731E+03  0.00000000000E+00 0. -1.
         22    1    1    2    0    0  0.29951280399E+02 -0.25775059928E+02  0.62004246887E+02  0.73525230662E+02  0.00000000000E+00 0. -1.
         22    1    1    2    0    0 -0.97605472828E+01  0.50329683368E+01 -0.57765402080E+02  0.58800006216E+02  0.00000000000E+00 0. -1.
</event>
<event>
 6    1  0.1715574E-005  0.8169031E+02  0.7818608E-02  0.1365101E+00
          2   -1    0    0  502    0  0.00000000000E+00  0.00000000000E+00  0.68234555736E+02  0.68234555736E+02  0.00000000000E+00 0. -1.
          1   -1    0    0  501    0 -0.00000000000E+00 -0.00000000000E+00 -0.47945767669E+03  0.47945767669E+03  0.00000000000E+00 0. -1.
          2    1    1    2  501    0  0.19841926240E+02  0.12560677887E+02 -0.14175777580E+03  0.14368973403E+03  0.00000000000E+00 0. -1.
          1    1    1    2  502    0 -0.82159513858E+02  0.21802943598E+02 -0.24770435581E+03  0.26188356564E+03  0.00000000000E+00 0. -1.
         22    1    1    2    0    0  0.46065752695E+02 -0.35734642988E+02  0.44839844750E+02  0.73550186662E+02  0.00000000000E+00 0. -1.
         22    1    1    2    0    0  0.16251834922E+02  0.13710215024E+01 -0.66600834094E+02  0.68568746090E+02  0.00000000000E+00 0. -1.
</event>
<event>
 6    1  0.1715574E-005  0.9425747E+02  0.7818608E-02  0.1310779E+00
          2   -1    0    0  502    0  0.00000000000E+00  0.00000000000E+00  0.65543699196E+02  0.65543699196E+02  0.00000000000E+00 0. -1.
          1   -1    0    0  501    0 -0.00000000000E+00 -0.00000000000E+00 -0.34709039844E+03  0.34709039844E+03  0.00000000000E+00 0. -1.
          2    1    1    2  501    0 -0.54539646121E+02 -0.12501378142E+02  0.26917758729E+02  0.62092054157E+02  0.00000000000E+00 0. -1.
          1    1    1    2  502    0 -0.11443874346E+02  0.19777435292E+02 -0.51900454508E+02  0.56707727735E+02  0.00000000000E+00 0. -1.
         22    1    1    2    0    0 -0.31275914142E+01 -0.10127261033E+02  0.12287539934E+02  0.16227349806E+02  0.00000000000E+00 0. -1.
         22    1    1    2    0    0  0.69111111881E+02  0.28512038835E+01 -0.26885154340E+03  0.27760696594E+03  0.00000000000E+00 0. -1.
</event>
<event>
 6    1  0.1715574E-005  0.4340172E+02  0.7818608E-02  0.1563559E+00
          2   -1    0    0  502    0  0.00000000000E+00  0.00000000000E+00  0.16650099968E+03  0.16650099968E+03  0.00000000000E+00 0.  1.
          1   -1    0    0  501    0 -0.00000000000E+00 -0.00000000000E+00 -0.21137753616E+03  0.21137753616E+03  0.00000000000E+00 0. -1.
          2    1    1    2  501    0  0.14148338370E+02 -0.29397301486E+02  0.11634650708E+03  0.12083412814E+03  0.00000000000E+00 0.  1.
          1    1    1    2  502    0 -0.31733203632E+02  0.17681423306E+02 -0.11592869308E+03  0.12148699857E+03  0.00000000000E+00 0. -1.
         22    1    1    2    0    0  0.68811696675E+01  0.13518944178E+02 -0.89122946999E+02  0.90404712430E+02  0.00000000000E+00 0. -1.
         22    1    1    2    0    0  0.10703695594E+02 -0.18030659978E+01  0.43828596521E+02  0.45152696701E+02  0.00000000000E+00 0.  1.
</event>
<event>
 6    1  0.1715574E-005  0.1203230E+03  0.7818608E-02  0.1255584E+00
          2   -1    0    0  502    0  0.00000000000E+00  0.00000000000E+00  0.84909605770E+03  0.84909605770E+03  0.00000000000E+00 0.  1.
          1   -1    0    0  501    0 -0.00000000000E+00 -0.00000000000E+00 -0.13529256933E+02  0.13529256933E+02  0.00000000000E+00 0.  1.
          2    1    1    2  501    0 -0.29873179384E+02  0.12980510112E+01  0.12545325389E+03  0.12896747921E+03  0.00000000000E+00 0.  1.
          1    1    1    2  502    0  0.69694192697E+00 -0.43544393436E+02  0.23420769007E+03  0.23822225340E+03  0.00000000000E+00 0.  1.
         22    1    1    2    0    0 -0.41312034036E+02  0.47247673618E+02  0.28607043977E+03  0.29287424491E+03  0.00000000000E+00 0.  1.
         22    1    1    2    0    0  0.70488271494E+02 -0.50013311938E+01  0.18983541704E+03  0.20256133712E+03  0.00000000000E+00 0.  1.
</event>
<event>
 6    1  0.1715574E-005  0.8587000E+02  0.7818608E-02  0.1314632E+00
          2   -1    0    0  502    0  0.00000000000E+00  0.00000000000E+00  0.47491480331E+02  0.47491480331E+02  0.00000000000E+00 0.  1.
          1   -1    0    0  501    0 -0.00000000000E+00 -0.00000000000E+00 -0.37333674398E+03  0.37333674398E+03  0.00000000000E+00 0.  1.
          2    1    1    2  501    0 -0.61329978115E+02  0.28438929483E+02 -0.10756080340E+02  0.68453138643E+02  0.00000000000E+00 0.  1.
          1    1    1    2  502    0  0.20107663875E+02 -0.13207846779E+01 -0.80073266790E+02  0.82569913850E+02  0.00000000000E+00 0.  1.
         22    1    1    2    0    0 -0.14330922291E+02  0.36011903909E+01  0.92448169977E+01  0.17430161998E+02  0.00000000000E+00 0.  1.
         22    1    1    2    0    0  0.55553236532E+02 -0.30719335196E+02 -0.24426073352E+03  0.25237500982E+03  0.00000000000E+00 0.  1.
</event>
<event>
 6    1  0.1715574E-005  0.8616036E+02  0.7818608E-02  0.1332941E+00
          2   -1    0    0  502    0  0.00000000000E+00  0.00000000000E+00  0.77958769071E+02  0.77958769071E+02  0.00000000000E+00 0. -1.
          1   -1    0    0  501    0 -0.00000000000E+00 -0.00000000000E+00 -0.25587688746E+03  0.25587688746E+03  0.00000000000E+00 0.  1.
          2    1    1    2  501    0 -0.10936674899E+02  0.30752371634E+02  0.19517482538E+02  0.38029611405E+02  0.00000000000E+00 0. -1.
          1    1    1    2  502    0  0.35472152148E+02 -0.20967017208E+02 -0.15239991162E+03  0.15787217124E+03  0.00000000000E+00 0.  1.
         22    1    1    2    0    0 -0.36821251633E+00  0.23977347265E+02  0.38093078827E+02  0.45012569543E+02  0.00000000000E+00 0.  1.
         22    1    1    2    0    0 -0.24167264732E+02 -0.33762701691E+02 -0.83128768127E+02  0.92921304341E+02  0.00000000000E+00 0.  1.
</event>
<event>
 6    1  0.1715574E-005  0.8729702E+02  0.7818608E-02  0.1317986E+00
          2   -1    0    0  502    0  0.00000000000E+00  0.00000000000E+00  0.21362513093E+03  0.21362513093E+03  0.00000000000E+00 0. -1.
          1   -1    0    0  501    0 -0.00000000000E+00 -0.00000000000E+00 -0.38598740236E+02  0.38598740236E+02  0.00000000000E+00 0. -1.
          2    1    1    2  501    0  0.39959592549E+01 -0.24872388016E+02  0.47592844434E+02  0.53848697452E+02  0.00000000000E+00 0. -1.
          1    1    1    2  502    0  0.52344740264E+00  0.24664081436E+02  0.39135507916E+02  0.46262067508E+02  0.00000000000E+00 0. -1.
         22    1    1    2    0    0 -0.21190125568E+02 -0.45012146905E+02  0.91139332942E+02  0.10383396747E+03  0.00000000000E+00 0. -1.
         22    1    1    2    0    0  0.16670718911E+02  0.45220453485E+02 -0.28412945998E+01  0.48279138739E+02  0.00000000000E+00 0. -1.
</event>
<event>
 6    1  0.1715574E-005  0.2871450E+02  0.7818608E-02  0.1614915E+00
          2   -1    0    0  502    0  0.00000000000E+00  0.00000000000E+00  0.22308824707E+03  0.22308824707E+03  0.00000000000E+00 0. -1.
          1   -1    0    0  501    0 -0.00000000000E+00 -0.00000000000E+00 -0.11937642693E+03  0.11937642693E+03  0.00000000000E+00 0. -1.
          2    1    1    2  501    0 -0.22130805955E+02  0.43344998469E+02  0.12321938227E+03  0.13248236725E+03  0.00000000000E+00 0. -1.
          1    1    1    2  502    0  0.51710444550E+02 -0.33156420500E+02 -0.48681199485E+02  0.78378424832E+02  0.00000000000E+00 0. -1.
         22    1    1    2    0    0 -0.16027123034E+02 -0.11102030858E+01 -0.49093301721E+02  0.51655140088E+02  0.00000000000E+00 0. -1.
         22    1    1    2    0    0 -0.13552515561E+02 -0.90783748828E+01  0.78266939071E+02  0.79948741830E+02  0.00000000000E+00 0. -1.
</event>
<event>
 6    1  0.1715574E-005  0.1476964E+03  0.7818608E-02  0.1232455E+00
          2   -1    0    0  502    0  0.00000000000E+00  0.00000000000E+00  0.11207649557E+03  0.11207649557E+03  0.00000000000E+00 0. -1.
          1   -1    0    0  501    0 -0.00000000000E+00 -0.00000000000E+00 -0.18139287623E+03  0.18139287623E+03  0.00000000000E+00 0. -1.
          2    1    1    2  501    0 -0.42036088729E+02 -0.24432552923E+02  0.37837409966E+02  0.61608862925E+02  0.00000000000E+00 0. -1.
          1    1    1    2  502    0 -0.23265257330E+02  0.49504160965E+01  0.26729819626E+02  0.35780750067E+02  0.00000000000E+00 0. -1.
         22    1    1    2    0    0  0.31119876430E+02 -0.23213375755E+01  0.19919997697E+02  0.37022177481E+02  0.00000000000E+00 0. -1.
         22    1    1    2    0    0  0.34181469629E+02  0.21803474402E+02 -0.15380360794E+03  0.15905758133E+03  0.00000000000E+00 0. -1.
</event>
<event>
 6    1  0.1715574E-005  0.1291567E+03  0.7818608E-02  0.1231423E+00
          2   -1    0    0  502    0  0.00000000000E+00  0.00000000000E+00  0.63011649141E+02  0.63011649141E+02  0.00000000000E+00 0.  1.
          1   -1    0    0  501    0 -0.00000000000E+00 -0.00000000000E+00 -0.64824106540E+03  0.64824106540E+03  0.00000000000E+00 0. -1.
          2    1    1    2  501    0  0.53761857812E+02 -0.19601476305E+02 -0.12376480125E+02  0.58546840128E+02  0.00000000000E+00 0.  1.
          1    1    1    2  502    0 -0.79520817900E+02  0.65978073064E+02 -0.47040686977E+03  0.48162152125E+03  0.00000000000E+00 0. -1.
         22    1    1    2    0    0 -0.69085733064E+01  0.17327664599E+02 -0.97558382444E+02  0.99325798918E+02  0.00000000000E+00 0.  1.
         22    1    1    2    0    0  0.32667533395E+02 -0.63704261358E+02 -0.48876839206E+01  0.71758554245E+02  0.00000000000E+00 0.  1.
</event>
<event>
 6    1  0.1715574E-005  0.1492510E+03  0.7818608E-02  0.1320689E+00
          2   -1    0    0  502    0  0.00000000000E+00  0.00000000000E+00  0.15874813923E+04  0.15874813923E+04  0.00000000000E+00 0.  1.
          1   -1    0    0  501    0 -0.00000000000E+00 -0.00000000000E+00 -0.33326320617E+02  0.33326320617E+02  0.00000000000E+00 0. -1.
          2    1    1    2  501    0  0.17496619087E+03  0.46390589447E+01  0.95245628675E+03  0.96840470206E+03  0.00000000000E+00 0.  1.
          1    1    1    2  502    0 -0.34925173754E+02 -0.25537050606E+02  0.36025545813E+02  0.56300521015E+02  0.00000000000E+00 0. -1.
         22    1    1    2    0    0 -0.13869313510E+02  0.34386296133E+01 -0.18975425006E+01  0.14414669556E+02  0.00000000000E+00 0.  1.
         22    1    1    2    0    0 -0.12617170360E+03  0.17459362048E+02  0.56757078161E+03  0.58168782027E+03  0.00000000000E+00 0. -1.
</event>
<event>
 6    1  0.1715574E-005  0.4463034E+03  0.7818608E-02  0.1111148E+00
          2   -1    0    0  502    0  0.00000000000E+00  0.00000000000E+00  0.31966416359E+04  0.31966416359E+04  0.00000000000E+00 0. -1.
          1   -1    0    0  501    0 -0.00000000000E+00 -0.00000000000E+00 -0.70300814617E+02  0.70300814617E+02  0.00000000000E+00 0.  1.
          2    1    1    2  501    0  0.31034157406E+03 -0.20511155110E+03  0.13942994450E+04  0.14430708865E+04  0.00000000000E+00 0. -1.
          1    1    1    2  502    0 -0.34114156970E+03  0.25828268590E+03  0.11849996419E+04  0.12598855772E+04  0.00000000000E+00 0.  1.
         22    1    1    2    0    0  0.72052036405E+02 -0.31901553000E+02  0.44448881467E+03  0.45141944066E+03  0.00000000000E+00 0.  1.
         22    1    1    2    0    0 -0.41252040766E+02 -0.21269581804E+02  0.10255291964E+03  0.11256654612E+03  0.00000000000E+00 0. -1.
</event>
<event>
 6    1  0.1715574E-005  0.5786487E+02  0.7818608E-02  0.1412906E+00
          2   -1    0    0  502    0  0.00000000000E+00  0.00000000000E+00  0.68407120194E+02  0.68407120194E+02  0.00000000000E+00 0.  1.
          1   -1    0    0  501    0 -0.00000000000E+00 -0.00000000000E+00 -0.33918630622E+03  0.33918630622E+03  0.00000000000E+00 0.  1.
          2    1    1    2  501    0  0.26441135271E+02  0.42923808504E+01  0.30894847782E+02  0.40890705390E+02  0.00000000000E+00 0.  1.
          1    1    1    2  502    0 -0.26370424858E+02 -0.24753664761E+02 -0.20562388958E+03  0.20878057187E+03  0.00000000000E+00 0.  1.
         22    1    1    2    0    0  0.20960106786E+02  0.15142730070E+02  0.24388953249E+02  0.35545033282E+02  0.00000000000E+00 0.  1.
         22    1    1    2    0    0 -0.21030817199E+02  0.53185538403E+01 -0.12043909748E+03  0.12237711587E+03  0.00000000000E+00 0.  1.
</event>
<event>
 6    1  0.1715574E-005  0.2091562E+03  0.7818608E-02  0.1142335E+00
          2   -1    0    0  502    0  0.00000000000E+00  0.00000000000E+00  0.14487837385E+04  0.14487837385E+04  0.00000000000E+00 0. -1.
          1   -1    0    0  501    0 -0.00000000000E+00 -0.00000000000E+00 -0.30280691212E+02  0.30280691212E+02  0.00000000000E+00 0. -1.
          2    1    1    2  501    0 -0.78331845367E+02 -0.86890774350E+02  0.35736146671E+03  0.37602274207E+03  0.00000000000E+00 0. -1.
          1    1    1    2  502    0  0.11884499098E+03  0.11276902010E+03  0.51479053580E+03  0.54023169059E+03  0.00000000000E+00 0. -1.
         22    1    1    2    0    0 -0.53899608084E+02 -0.69180195818E+02  0.40434941301E+03  0.41375054689E+03  0.00000000000E+00 0. -1.
         22    1    1    2    0    0  0.13386462467E+02  0.43301950067E+02  0.14200163175E+03  0.14905945015E+03  0.00000000000E+00 0.  1.
</event>
<event>
 6    1  0.1715574E-005  0.5357110E+02  0.7818608E-02  0.1532414E+00
          2   -1    0    0  502    0  0.00000000000E+00  0.00000000000E+00  0.48705815183E+02  0.48705815183E+02  0.00000000000E+00 0. -1.
          1   -1    0    0  501    0 -0.00000000000E+00 -0.00000000000E+00 -0.25077147754E+03  0.25077147754E+03  0.00000000000E+00 0. -1.
          2    1    1    2  501    0 -0.25622131747E+02 -0.30300761944E+02 -0.12054551282E+01  0.39699910978E+02  0.00000000000E+00 0. -1.
          1    1    1    2  502    0  0.20538827092E+02  0.11397030186E+02 -0.96571146662E+02  0.99386729914E+02  0.00000000000E+00 0. -1.
         22    1    1    2    0    0 -0.32813622985E+01 -0.11593148175E+02  0.24753353469E+02  0.27529927917E+02  0.00000000000E+00 0. -1.
         22    1    1    2    0    0  0.83646669526E+01  0.30496879933E+02 -0.12904241403E+03  0.13286072391E+03  0.00000000000E+00 0. -1.
</event>
<event>
 6    1  0.1715574E-005  0.3073280E+03  0.7818608E-02  0.1212230E+00
          2   -1    0    0  502    0  0.00000000000E+00  0.00000000000E+00  0.10461017466E+04  0.10461017466E+04  0.00000000000E+00 0.  1.
          1   -1    0    0  501    0 -0.00000000000E+00 -0.00000000000E+00 -0.33324936304E+03  0.33324936304E+03  0.00000000000E+00 0. -1.
          2    1    1    2  501    0 -0.28935266459E+03 -0.82329344723E+02  0.90868395519E+03  0.95718839104E+03  0.00000000000E+00 0.  1.
          1    1    1    2  502    0  0.20673194406E+03  0.21594051463E+02 -0.12959393823E+03  0.24494690971E+03  0.00000000000E+00 0. -1.
         22    1    1    2    0    0  0.83102328374E+02  0.47196728133E+02 -0.10151711362E+03  0.13942471978E+03  0.00000000000E+00 0.  1.
         22    1    1    2    0    0 -0.48160784696E+00  0.13538565127E+02  0.35279480188E+02  0.37791089084E+02  0.00000000000E+00 0.  1.
</event>
<event>
 6    1  0.1715574E-005  0.1830251E+03  0.7818608E-02  0.1264007E+00
          2   -1    0    0  502    0  0.00000000000E+00  0.00000000000E+00  0.18077563156E+03  0.18077563156E+03  0.00000000000E+00 0. -1.
          1   -1    0    0  501    0 -0.00000000000E+00 -0.00000000000E+00 -0.31247215184E+03  0.31247215184E+03  0.00000000000E+00 0. -1.
          2    1    1    2  501    0 -0.13522670983E+03 -0.11451403329E+03  0.29934176361E+02  0.17971027178E+03  0.00000000000E+00 0. -1.
          1    1    1    2  502    0  0.72496863148E+02  0.96896269295E+02 -0.11443160466E+03  0.16655111622E+03  0.00000000000E+00 0. -1.
         22    1    1    2    0    0  0.12684200660E+02 -0.18372804098E+02  0.36651042443E+02  0.42915589113E+02  0.00000000000E+00 0. -1.
         22    1    1    2    0    0  0.50045646020E+02  0.35990568088E+02 -0.83850134417E+02  0.10407080627E+03  0.00000000000E+00 0. -1.
</event>
<event>
 6    1  0.1715574E-005  0.1222590E+03  0.7818608E-02  0.1242928E+00
          2   -1    0    0  502    0  0.00000000000E+00  0.00000000000E+00  0.57622069870E+02  0.57622069870E+02  0.00000000000E+00 0.  1.
          1   -1    0    0  501    0 -0.00000000000E+00 -0.00000000000E+00 -0.26160486161E+03  0.26160486161E+03  0.00000000000E+00 0. -1.
          2    1    1    2  501    0  0.35625748834E+01 -0.50862922857E+02 -0.34892852946E+02  0.61783817040E+02  0.00000000000E+00 0.  1.
          1    1    1    2  502    0 -0.42105753591E+02  0.41960083314E+02 -0.65794184680E+02  0.88670275826E+02  0.00000000000E+00 0. -1.
         22    1    1    2    0    0 -0.17738819830E+02  0.50865680608E+02 -0.76641120050E+02  0.93679477343E+02  0.00000000000E+00 0. -1.
         22    1    1    2    0    0  0.56281998538E+02 -0.41962841066E+02 -0.26654634063E+02  0.75093361270E+02  0.00000000000E+00 0.  1.
</event>
<event>
 6    1  0.1715574E-005  0.2443417E+02  0.7818608E-02  0.1722318E+00
          2   -1    0    0  502    0  0.00000000000E+00  0.00000000000E+00  0.12302164178E+03  0.12302164178E+03  0.00000000000E+00 0. -1.
          1   -1    0    0  501    0 -0.00000000000E+00 -0.00000000000E+00 -0.91439483041E+02  0.91439483041E+02  0.00000000000E+00 0.  1.
          2    1    1    2  501    0 -0.19810178910E+02  0.18558957083E+02  0.50681014833E+02  0.57492985146E+02  0.00000000000E+00 0. -1.
          1    1    1    2  502    0  0.23421435137E+02  0.70817102163E+01 -0.21991731310E+02  0.32899095573E+02  0.00000000000E+00 0.  1.
         22    1    1    2    0    0 -0.98570008921E+01 -0.61929809218E+01  0.61194982143E+02  0.62292369667E+02  0.00000000000E+00 0.  1.
         22    1    1    2    0    0  0.62457446650E+01 -0.19447686377E+02 -0.58302106928E+02  0.61776674434E+02  0.00000000000E+00 0. -1.
</event>
<event>
 6    1  0.1715574E-005  0.1048483E+03  0.7818608E-02  0.1284124E+00
          2   -1    0    0  502    0  0.00000000000E+00  0.00000000000E+00  0.35295378969E+03  0.35295378969E+03  0.00000000000E+00 0. -1.
          1   -1    0    0  501    0 -0.00000000000E+00 -0.00000000000E+00 -0.45506077019E+02  0.45506077019E+02  0.00000000000E+00 0. -1.
          2    1    1    2  501    0  0.10110103306E+02 -0.40033538510E+02  0.54270924439E+02  0.68192606886E+02  0.00000000000E+00 0. -1.
          1    1    1    2  502    0  0.10236862112E+02  0.55176397363E+02  0.13377181769E+02  0.57690355901E+02  0.00000000000E+00 0. -1.
         22    1    1    2    0    0  0.20129761950E+01  0.22630162269E+02 -0.55041837619E+01  0.23376748200E+02  0.00000000000E+00 0. -1.
         22    1    1    2    0    0 -0.22359941613E+02 -0.37773021122E+02  0.24530379022E+03  0.24920015572E+03  0.00000000000E+00 0. -1.
</event>
<event>
 6    1  0.1715574E-005  0.9921823E+02  0.7818608E-02  0.1395147E+00
          2   -1    0    0  502    0  0.00000000000E+00  0.00000000000E+00  0.41818390124E+02  0.41818390124E+02  0.00000000000E+00 0.  1.
          1   -1    0    0  501    0 -0.00000000000E+00 -0.00000000000E+00 -0.10712331794E+04  0.10712331794E+04  0.00000000000E+00 0.  1.
          2    1    1    2  501    0  0.91283613783E+02  0.27576809605E+01 -0.20022993885E+03  0.22007346810E+03  0.00000000000E+00 0.  1.
          1    1    1    2  502    0 -0.73294523588E+02 -0.17396437619E+01 -0.73203499213E+03  0.73569718177E+03  0.00000000000E+00 0.  1.
         22    1    1    2    0    0 -0.41044167569E+00  0.13841997469E+02  0.27358042521E+02  0.30663200207E+02  0.00000000000E+00 0. -1.
         22    1    1    2    0    0 -0.17578648520E+02 -0.14860034668E+02 -0.12450790081E+03  0.12661771945E+03  0.00000000000E+00 0.  1.
</event>
<event>
 6    1  0.1715574E-005  0.4967987E+02  0.7818608E-02  0.1448096E+00
          2   -1    0    0  502    0  0.00000000000E+00  0.00000000000E+00  0.40863874176E+03  0.40863874176E+03  0.00000000000E+00 0.  1.
          1   -1    0    0  501    0 -0.00000000000E+00 -0.00000000000E+00 -0.14819990944E+03  0.14819990944E+03  0.00000000000E+00 0. -1.
          2    1    1    2  501    0 -0.36988153305E+01 -0.32737579803E+02  0.31076317479E+03  0.31250468984E+03  0.00000000000E+00 0.  1.
          1    1    1    2  502    0  0.15348519154E+02  0.30688596448E+02 -0.10551786476E+03  0.11095668874E+03  0.00000000000E+00 0. -1.
         22    1    1    2    0    0 -0.20350898320E+01  0.14329175506E+02 -0.37075064092E+02  0.39799839682E+02  0.00000000000E+00 0.  1.
         22    1    1    2    0    0 -0.96146139920E+01 -0.12280192152E+02  0.92268586382E+02  0.93577432933E+02  0.00000000000E+00 0.  1.
</event>
<event>
 6    1  0.1715574E-005  0.5801015E+02  0.7818608E-02  0.1416945E+00
          2   -1    0    0  502    0  0.00000000000E+00  0.00000000000E+00  0.26947981380E+02  0.26947981380E+02  0.00000000000E+00 0. -1.
          1   -1    0    0  501    0 -0.00000000000E+00 -0.00000000000E+00 -0.70822598374E+03  0.70822598374E+03  0.00000000000E+00 0.  1.
          2    1    1    2  501    0  0.28895469167E+02  0.12709919439E+02 -0.10616865706E+02  0.33304774852E+02  0.00000000000E+00 0. -1.
          1    1    1    2  502    0  0.23953772600E+02 -0.47169189971E+02 -0.29355913965E+03  0.29828792161E+03  0.00000000000E+00 0.  1.
         22    1    1    2    0    0 -0.68674095571E+02  0.30319445943E+02 -0.37967284483E+03  0.38702308627E+03  0.00000000000E+00 0.  1.
         22    1    1    2    0    0  0.15824853804E+02  0.41398245894E+01  0.25708478260E+01  0.16558182391E+02  0.00000000000E+00 0. -1.
</event>
<event>
 6    1  0.1715574E-005  0.1321771E+03  0.7818608E-02  0.1321304E+00
          2   -1    0    0  502    0  0.00000000000E+00  0.00000000000E+00  0.63954609933E+03  0.63954609933E+03  0.00000000000E+00 0. -1.
          1   -1    0    0  501    0 -0.00000000000E+00 -0.00000000000E+00 -0.23318076517E+03  0.23318076517E+03  0.00000000000E+00 0. -1.
          2    1    1    2  501    0  0.92441549227E+02  0.51482236457E+02  0.57553969731E+03  0.58518527311E+03  0.00000000000E+00 0. -1.
          1    1    1    2  502    0 -0.78452013777E+02 -0.50884024905E+02 -0.11516204082E+03  0.14834486207E+03  0.00000000000E+00 0. -1.
         22    1    1    2    0    0  0.17249014126E+02  0.10794666881E+02  0.37040889888E+02  0.42262049703E+02  0.00000000000E+00 0.  1.
         22    1    1    2    0    0 -0.31238549576E+02 -0.11392878434E+02 -0.91053212208E+02  0.96934679615E+02  0.00000000000E+00 0. -1.
</event>
<event>
 6    1  0.1715574E-005  0.1220303E+03  0.7818608E-02  0.1322107E+00
          2   -1    0    0  502    0  0.00000000000E+00  0.00000000000E+00  0.42588910007E+03  0.42588910007E+03  0.00000000000E+00 0. -1.
          1   -1    0    0  501    0 -0.00000000000E+00 -0.00000000000E+00 -0.17028169482E+03  0.17028169482E+03  0.00000000000E+00 0.  1.
          2    1    1    2  501    0  0.97282387505E+01 -0.26996501834E+02  0.48836599666E+01  0.29108415882E+02  0.00000000000E+00 0. -1.
          1    1    1    2  502    0 -0.10271289069E+03 -0.61755823006E+02 -0.11001404327E+03  0.16268622961E+03  0.00000000000E+00 0.  1.
         22    1    1    2    0    0  0.11556328994E+03  0.10058337099E+03  0.33385444701E+03  0.36732911713E+03  0.00000000000E+00 0. -1.
         22    1    1    2    0    0 -0.22578638003E+02 -0.11831046153E+02  0.26883341541E+02  0.37047032264E+02  0.00000000000E+00 0.  1.
</event>
<event>
 6    1  0.1715574E-005  0.4461505E+02  0.7818608E-02  0.1510191E+00
          2   -1    0    0  502    0  0.00000000000E+00  0.00000000000E+00  0.21226660930E+03  0.21226660930E+03  0.00000000000E+00 0. -1.
          1   -1    0    0  501    0 -0.00000000000E+00 -0.00000000000E+00 -0.15706801877E+03  0.15706801877E+03  0.00000000000E+00 0. -1.
          2    1    1    2  501    0 -0.57803392189E+02 -0.11841203888E+02  0.11339968399E+02  0.60083617911E+02  0.00000000000E+00 0. -1.
          1    1    1    2  502    0  0.26499582517E+02 -0.29539167860E+02 -0.10389385564E+03  0.11121476319E+03  0.00000000000E+00 0. -1.
         22    1    1    2    0    0  0.24454359727E+02  0.29504801232E+01 -0.16212672613E+02  0.29488502775E+02  0.00000000000E+00 0. -1.
         22    1    1    2    0    0  0.68494499442E+01  0.38429891624E+02  0.16396515038E+03  0.16854774420E+03  0.00000000000E+00 0. -1.
</event>
<event>
 6    1  0.1715574E-005  0.4264215E+02  0.7818608E-02  0.1489667E+00
          2   -1    0    0  502    0  0.00000000000E+00  0.00000000000E+00  0.33902094120E+03  0.33902094120E+03  0.00000000000E+00 0. -1.
          1   -1    0    0  501    0 -0.00000000000E+00 -0.00000000000E+00 -0.14029756188E+03  0.14029756188E+03  0.00000000000E+00 0.  1.
          2    1    1    2  501    0 -0.29206851055E+02  0.25472613935E+01  0.26961440744E+03  0.27120371935E+03  0.00000000000E+00 0. -1.
          1    1    1    2  502    0  0.26019604767E+02 -0.63996509700E+01 -0.79757119976E+02  0.84137824738E+02  0.00000000000E+00 0.  1.
         22    1    1    2    0    0 -0.12085830007E+02  0.33983249345E+00  0.64784958684E+02  0.65903517696E+02  0.00000000000E+00 0.  1.
         22    1    1    2    0    0  0.15273076295E+02  0.35125570830E+01 -0.55918866826E+02  0.58073441295E+02  0.00000000000E+00 0.  1.
</event>
<event>
 6    1  0.1715574E-005  0.1601388E+03  0.7818608E-02  0.1194925E+00
          2   -1    0    0  502    0  0.00000000000E+00  0.00000000000E+00  0.35196767264E+03  0.35196767264E+03  0.00000000000E+00 0. -1.
          1   -1    0    0  501    0 -0.00000000000E+00 -0.00000000000E+00 -0.29699381224E+03  0.29699381224E+03  0.00000000000E+00 0. -1.
          2    1    1    2  501    0 -0.20412537253E+02 -0.64213942211E+02  0.62978897450E+02  0.92230383147E+02  0.00000000000E+00 0. -1.
          1    1    1    2  502    0  0.42768391587E+02  0.11976971961E+03 -0.24853648183E+03  0.27918507098E+03  0.00000000000E+00 0. -1.
         22    1    1    2    0    0  0.97258344656E+01  0.47306193518E+01 -0.11876376037E+02  0.16062967449E+02  0.00000000000E+00 0. -1.
         22    1    1    2    0    0 -0.32081688799E+02 -0.60286396751E+02  0.25240782081E+03  0.26148306331E+03  0.00000000000E+00 0. -1.
</event>
<event>
 6    1  0.1715574E-005  0.1126680E+03  0.7818608E-02  0.1256789E+00
          2   -1    0    0  502    0  0.00000000000E+00  0.00000000000E+00  0.39535310401E+03  0.39535310401E+03  0.00000000000E+00 0. -1.
          1   -1    0    0  501    0 -0.00000000000E+00 -0.00000000000E+00 -0.25567312160E+04  0.25567312160E+04  0.00000000000E+00 0. -1.
          2    1    1    2  501    0  0.13871208317E+03 -0.22004132072E+03  0.31170860841E+03  0.40598211956E+03  0.00000000000E+00 0. -1.
          1    1    1    2  502    0 -0.75982187737E+02  0.23417842035E+03 -0.23333626568E+04  0.23463150073E+04  0.00000000000E+00 0. -1.
         22    1    1    2    0    0 -0.38876273373E+02  0.23262806343E+02 -0.14789770201E+03  0.15468113346E+03  0.00000000000E+00 0. -1.
         22    1    1    2    0    0 -0.23853622061E+02 -0.37399905976E+02  0.81736384283E+01  0.45106059655E+02  0.00000000000E+00 0.  1.
</event>
<event>
 6    1  0.1715574E-005  0.8747156E+02  0.7818608E-02  0.1314591E+00
          2   -1    0    0  502    0  0.00000000000E+00  0.00000000000E+00  0.71802803246E+02  0.71802803246E+02  0.00000000000E+00 0.  1.
          1   -1    0    0  501    0 -0.00000000000E+00 -0.00000000000E+00 -0.49904384642E+03  0.49904384642E+03  0.00000000000E+00 0.  1.
          2    1    1    2  501    0 -0.11442591780E+02 -0.21901364105E+02 -0.85940802864E+01  0.26162203123E+02  0.00000000000E+00 0.  1.
          1    1    1    2  502    0  0.26315810178E+02  0.63493619409E+02 -0.40911939411E+03  0.41485255237E+03  0.00000000000E+00 0.  1.
         22    1    1    2    0    0 -0.25147277923E+02 -0.43452140196E+02  0.49134891445E+02  0.70247502673E+02  0.00000000000E+00 0.  1.
         22    1    1    2    0    0  0.10274059525E+02  0.18598848914E+01 -0.58662460228E+02  0.59584391504E+02  0.00000000000E+00 0.  1.
</event>
<event>
 6    1  0.1715574E-005  0.7322071E+02  0.7818608E-02  0.1350858E+00
          2   -1    0    0  502    0  0.00000000000E+00  0.00000000000E+00  0.13438560509E+03  0.13438560509E+03  0.00000000000E+00 0. -1.
          1   -1    0    0  501    0 -0.00000000000E+00 -0.00000000000E+00 -0.12467380169E+03  0.12467380169E+03  0.00000000000E+00 0.  1.
          2    1    1    2  501    0 -0.48446087160E+01 -0.41131771412E+02  0.72423171722E+02  0.83429063613E+02  0.00000000000E+00 0. -1.
          1    1    1    2  502    0  0.94697750804E+01  0.18764601406E+02 -0.47773048465E+02  0.52192442610E+02  0.00000000000E+00 0.  1.
         22    1    1    2    0    0  0.92134153980E+01  0.48609425477E+02 -0.54746989400E+02  0.73790216946E+02  0.00000000000E+00 0.  1.
         22    1    1    2    0    0 -0.13838581762E+02 -0.26242255471E+02  0.39808669542E+02  0.49647683613E+02  0.00000000000E+00 0. -1.
</event>
<event>
 6    1  0.1715574E-005  0.1017735E+03  0.7818608E-02  0.1319030E+00
          2   -1    0    0  502    0  0.00000000000E+00  0.00000000000E+00  0.35986920877E+02  0.35986920877E+02  0.00000000000E+00 0. -1.
          1   -1    0    0  501    0 -0.00000000000E+00 -0.00000000000E+00 -0.45472187127E+03  0.45472187127E+03  0.00000000000E+00 0. -1.
          2    1    1    2  501    0  0.61565303015E+01  0.27072385445E+02  0.11880717625E+02  0.30198814055E+02  0.00000000000E+00 0. -1.
          1    1    1    2  502    0 -0.22317621812E+01  0.26560236294E+02 -0.71077311555E+02  0.75910546911E+02  0.00000000000E+00 0. -1.
         22    1    1    2    0    0 -0.28221153219E+01 -0.71380950151E+02 -0.35979174152E+03  0.36681507827E+03  0.00000000000E+00 0. -1.
         22    1    1    2    0    0 -0.11026527984E+01  0.17748328411E+02  0.25338505534E+00  0.17784352914E+02  0.00000000000E+00 0.  1.
</event>
<event>
 6    1  0.1715574E-005  0.6572592E+02  0.7818608E-02  0.1393345E+00
          2   -1    0    0  502    0  0.00000000000E+00  0.00000000000E+00  0.52633407859E+02  0.52633407859E+02  0.00000000000E+00 0. -1.
          1   -1    0    0  501    0 -0.00000000000E+00 -0.00000000000E+00 -0.92642057698E+03  0.92642057698E+03  0.00000000000E+00 0.  1.
          2    1    1    2  501    0  0.66262910057E+01  0.94582945428E+02 -0.50167237397E+02  0.10726878859E+03  0.00000000000E+00 0. -1.
          1    1    1    2  502    0  0.51720531992E+01 -0.88258885472E+02 -0.65483677357E+03  0.66077801191E+03  0.00000000000E+00 0.  1.
         22    1    1    2    0    0 -0.41765909455E+02 -0.15254428661E+02 -0.17374648143E+03  0.17934583518E+03  0.00000000000E+00 0.  1.
         22    1    1    2    0    0  0.29967565250E+02  0.89303687056E+01  0.49633232838E+01  0.31661349154E+02  0.00000000000E+00 0. -1.
</event>
<event>
 6    1  0.1715574E-005  0.1184650E+03  0.7818608E-02  0.1268673E+00
          2   -1    0    0  502    0  0.00000000000E+00  0.00000000000E+00  0.22348378602E+03  0.22348378602E+03  0.00000000000E+00 0.  1.
          1   -1    0    0  501    0 -0.00000000000E+00 -0.00000000000E+00 -0.49986365587E+02  0.49986365587E+02  0.00000000000E+00 0.  1.
          2    1    1    2  501    0  0.31128036192E+02 -0.90890295203E+01  0.31208808905E+02  0.45006164556E+02  0.00000000000E+00 0.  1.
          1    1    1    2  502    0 -0.67241304690E+01  0.44177180749E+02  0.38669202253E+02  0.59094368872E+02  0.00000000000E+00 0.  1.
         22    1    1    2    0    0 -0.61363092899E+02 -0.30244669979E+02  0.10688468262E+02  0.69241696874E+02  0.00000000000E+00 0.  1.
         22    1    1    2    0    0  0.36959187176E+02 -0.48434812502E+01  0.92930941015E+02  0.10012792131E+03  0.00000000000E+00 0.  1.
</event>
<event>
 6    1  0.1715574E-005  0.7014955E+02  0.7818608E-02  0.1366201E+00
          2   -1    0    0  502    0  0.00000000000E+00  0.00000000000E+00  0.12636215542E+03  0.12636215542E+03  0.00000000000E+00 0.  1.
          1   -1    0    0  501    0 -0.00000000000E+00 -0.00000000000E+00 -0.10652357825E+03  0.10652357825E+03  0.00000000000E+00 0.  1.
          2    1    1    2  501    0  0.24128770930E+02  0.22662375705E+02  0.29017370453E+02  0.44020320844E+02  0.00000000000E+00 0.  1.
          1    1    1    2  502    0 -0.16129281208E+02 -0.14985342791E+02 -0.53178649685E+02  0.57555911887E+02  0.00000000000E+00 0.  1.
         22    1    1    2    0    0  0.27418449408E+02 -0.15286374889E+02  0.76469213902E+02  0.82661873315E+02  0.00000000000E+00 0.  1.
         22    1    1    2    0    0 -0.35417939129E+02  0.76093419743E+01 -0.32469357501E+02  0.48647627630E+02  0.00000000000E+00 0.  1.
</event>
<event>
 6    1  0.2396550E-005  0.1494232E+03  0.7818608E-02  0.1218839E+00
          2   -1    0    0  502    0  0.00000000000E+00  0.00000000000E+00  0.59263760198E+02  0.59263760198E+02  0.00000000000E+00 0.  1.
          1   -1    0    0  501    0 -0.00000000000E+00 -0.00000000000E+00 -0.16805679575E+04  0.16805679575E+04  0.00000000000E+00 0.  1.
          2    1    1    2  501    0  0.78056561740E+01  0.19525907254E+02 -0.40170214415E+02  0.45341321645E+02  0.00000000000E+00 0.  1.
          1    1    1    2  502    0  0.34761884293E+02 -0.56261043116E+02 -0.15543183109E+04  0.15557246239E+04  0.00000000000E+00 0.  1.
         22    1    1    2    0    0 -0.15463272706E+02  0.25883243499E+02  0.48994239753E+02  0.57528172453E+02  0.00000000000E+00 0.  1.
         22    1    1    2    0    0 -0.27104267760E+02  0.10851892363E+02 -0.75809911659E+02  0.81237599697E+02  0.00000000000E+00 0.  1.
</event>
<event>
 6    1  0.1715574E-005  0.6215938E+02  0.7818608E-02  0.1439328E+00
          2   -1    0    0  502    0  0.00000000000E+00  0.00000000000E+00  0.63954683977E+02  0.63954683977E+02  0.00000000000E+00 0. -1.
          1   -1    0    0  501    0 -0.00000000000E+00 -0.00000000000E+00 -0.15207149002E+03  0.15207149002E+03  0.00000000000E+00 0. -1.
          2    1    1    2  501    0 -0.26172778383E+01  0.25116162602E+02  0.51477986567E+00  0.25257410110E+02  0.00000000000E+00 0. -1.
          1    1    1    2  502    0  0.18511851598E+02 -0.33118863951E+02 -0.30867881385E+02  0.48911899372E+02  0.00000000000E+00 0. -1.
         22    1    1    2    0    0  0.13296278516E+02 -0.25165142628E+02 -0.85213115478E+02  0.89840694984E+02  0.00000000000E+00 0. -1.
         22    1    1    2    0    0 -0.29190852275E+02  0.33167843977E+02  0.27449410956E+02  0.52016169529E+02  0.00000000000E+00 0. -1.
</event>
<event>
 6    1  0.1715574E-005  0.1585030E+03  0.7818608E-02  0.1191076E+00
          2   -1    0    0  502    0  0.00000000000E+00  0.00000000000E+00  0.86004895150E+03  0.86004895150E+03  0.00000000000E+00 0.  1.
          1   -1    0    0  501    0 -0.00000000000E+00 -0.00000000000E+00 -0.72107143398E+02  0.72107143398E+02  0.00000000000E+00 0.  1.
          2    1    1    2  501    0  0.31989290315E+02 -0.13644237085E+03  0.25102042682E+02  0.14237256690E+03  0.00000000000E+00 0.  1.
          1    1    1    2  502    0 -0.23176668485E+01  0.36417082830E+02  0.24872056541E+03  0.25138316403E+03  0.00000000000E+00 0.  1.
         22    1    1    2    0    0 -0.39365417328E+02  0.11232786096E+03  0.50771260505E+03  0.52147797054E+03  0.00000000000E+00 0.  1.
         22    1    1    2    0    0  0.96937938619E+01 -0.12302572943E+02  0.64065949611E+01  0.16922393432E+02  0.00000000000E+00 0.  1.
</event>
<event>
 6    1  0.1715574E-005  0.1022687E+03  0.7818608E-02  0.1278701E+00
          2   -1    0    0  502    0  0.00000000000E+00  0.00000000000E+00  0.98924538700E+02  0.98924538700E+02  0.00000000000E+00 0. -1.
          1   -1    0    0  501    0 -0.00000000000E+00 -0.00000000000E+00 -0.38965036976E+03  0.38965036976E+03  0.00000000000E+00 0. -1.
          2    1    1    2  501    0 -0.53521932150E+02 -0.61635187298E+02  0.47943292955E+02  0.94668119627E+02  0.00000000000E+00 0. -1.
          1    1    1    2  502    0  0.17226494363E+02  0.49081159233E+02 -0.19616773200E+03  0.20294701619E+03  0.00000000000E+00 0. -1.
         22    1    1    2    0    0  0.57439431515E+01 -0.19566097810E+02  0.16288230206E+02  0.26098496311E+02  0.00000000000E+00 0.  1.
         22    1    1    2    0    0  0.30551494635E+02  0.32120125875E+02 -0.15878962222E+03  0.16486127634E+03  0.00000000000E+00 0. -1.
</event>
<event>
 6    1  0.1715574E-005  0.4525657E+02  0.7818608E-02  0.1473100E+00
          2   -1    0    0  502    0  0.00000000000E+00  0.00000000000E+00  0.11453206807E+03  0.11453206807E+03  0.00000000000E+00 0.  1.
          1   -1    0    0  501    0 -0.00000000000E+00 -0.00000000000E+00 -0.12297129927E+03  0.12297129927E+03  0.00000000000E+00 0. -1.
          2    1    1    2  501    0  0.21192524547E+02  0.88941504753E+01  0.42672926339E+02  0.48468625436E+02  0.00000000000E+00 0.  1.
          1    1    1    2  502    0 -0.24374933211E+02 -0.88374833965E+01 -0.54574138092E+02  0.60419988665E+02  0.00000000000E+00 0. -1.
         22    1    1    2    0    0  0.17261159915E+02  0.11916622906E+02  0.62933936418E+02  0.66337273807E+02  0.00000000000E+00 0.  1.
         22    1    1    2    0    0 -0.14078751250E+02 -0.11973289985E+02 -0.59471955863E+02  0.62277479429E+02  0.00000000000E+00 0. -1.
</event>
<event>
 6    1  0.1715574E-005  0.9059443E+02  0.7818608E-02  0.1313646E+00
          2   -1    0    0  502    0  0.00000000000E+00  0.00000000000E+00  0.62158884776E+02  0.62158884776E+02  0.00000000000E+00 0. -1.
          1   -1    0    0  501    0 -0.00000000000E+00 -0.00000000000E+00 -0.18516105081E+03  0.18516105081E+03  0.00000000000E+00 0. -1.
          2    1    1    2  501    0 -0.30517857514E+02 -0.29796968097E+02  0.11042184847E+01  0.42666359506E+02  0.00000000000E+00 0. -1.
          1    1    1    2  502    0 -0.11475413452E+01  0.35023234911E+02 -0.38705533498E+02  0.52211705183E+02  0.00000000000E+00 0. -1.
         22    1    1    2    0    0 -0.20270141019E+02 -0.15383370438E+02  0.21400231504E+02  0.33249009179E+02  0.00000000000E+00 0. -1.
         22    1    1    2    0    0  0.51935539878E+02  0.10157103624E+02 -0.10680108253E+03  0.11919286172E+03  0.00000000000E+00 0. -1.
</event>
<event>
 6    1  0.1715574E-005  0.5091238E+02  0.7818608E-02  0.1515176E+00
          2   -1    0    0  502    0  0.00000000000E+00  0.00000000000E+00  0.31701955529E+03  0.31701955529E+03  0.00000000000E+00 0. -1.
          1   -1    0    0  501    0 -0.00000000000E+00 -0.00000000000E+00 -0.80828823039E+02  0.80828823039E+02  0.00000000000E+00 0. -1.
          2    1    1    2  501    0 -0.21581187019E+02  0.16778334059E+02  0.16872122224E+03  0.17092135899E+03  0.00000000000E+00 0. -1.
          1    1    1    2  502    0  0.29613303851E+02 -0.24970656437E+02 -0.46163930725E+02  0.60262674583E+02  0.00000000000E+00 0. -1.
         22    1    1    2    0    0 -0.23971052105E+02  0.60013106586E+00  0.13604059269E+03  0.13813766451E+03  0.00000000000E+00 0. -1.
         22    1    1    2    0    0  0.15938935274E+02  0.75921913126E+01 -0.22407151957E+02  0.28526680238E+02  0.00000000000E+00 0.  1.
</event>
<event>
 6    1  0.1715574E-005  0.3076927E+03  0.7818608E-02  0.1134417E+00
          2   -1    0    0  502    0  0.00000000000E+00  0.00000000000E+00  0.45627780626E+03  0.45627780626E+03  0.00000000000E+00 0. -1.
          1   -1    0    0  501    0 -0.00000000000E+00 -0.00000000000E+00 -0.82212180678E+02  0.82212180678E+02  0.00000000000E+00 0.  1.
          2    1    1    2  501    0 -0.60897325729E+02 -0.10266345234E+03  0.24162609152E+03  0.26950220190E+03  0.00000000000E+00 0. -1.
          1    1    1    2  502    0 -0.45709154765E+02  0.11734143933E+02  0.14911065720E+02  0.49490977401E+02  0.00000000000E+00 0.  1.
         22    1    1    2    0    0 -0.25415716100E+01 -0.13684249672E+02  0.53552444295E+02  0.55331569338E+02  0.00000000000E+00 0.  1.
         22    1    1    2    0    0  0.10914805210E+03  0.10461355808E+03  0.63976024050E+02  0.16416523830E+03  0.00000000000E+00 0.  1.
</event>
<event>
 6    1  0.1715574E-005  0.5767927E+02  0.7818608E-02  0.1469927E+00
          2   -1    0    0  502    0  0.00000000000E+00  0.00000000000E+00  0.22620993010E+03  0.22620993010E+03  0.00000000000E+00 0. -1.
          1   -1    0    0  501    0 -0.00000000000E+00 -0.00000000000E+00 -0.13537262714E+04  0.13537262714E+04  0.00000000000E+00 0. -1.
          2    1    1    2  501    0 -0.44632095820E+02 -0.30213018730E+02  0.61398762199E+02  0.81698583082E+02  0.00000000000E+00 0. -1.
          1    1    1    2  502    0  0.66894656592E+02  0.35726656894E+02 -0.13170767966E+04  0.13192583436E+04  0.00000000000E+00 0. -1.
         22    1    1    2    0    0  0.13426372765E+02  0.62769447511E+01 -0.20692641598E+02  0.25452955375E+02  0.00000000000E+00 0.  1.
         22    1    1    2    0    0 -0.35688933536E+02 -0.11790582915E+02  0.14885433465E+03  0.15352631946E+03  0.00000000000E+00 0. -1.
</event>
<event>
 6    1  0.1715574E-005  0.4889209E+02  0.7818608E-02  0.1537374E+00
          2   -1    0    0  502    0  0.00000000000E+00  0.00000000000E+00  0.15179004374E+03  0.15179004374E+03  0.00000000000E+00 0. -1.
          1   -1    0    0  501    0 -0.00000000000E+00 -0.00000000000E+00 -0.47065647881E+03  0.47065647881E+03  0.00000000000E+00 0.  1.
          2    1    1    2  501    0  0.33299781702E+02  0.67539067395E+01  0.90038392296E+02  0.96236182410E+02  0.00000000000E+00 0. -1.
          1    1    1    2  502    0 -0.32438366353E+02 -0.35611434516E+01 -0.40054021301E+03  0.40186738060E+03  0.00000000000E+00 0.  1.
         22    1    1    2    0    0 -0.14851692825E+02 -0.64453134551E-02 -0.64610636225E+02  0.66295604189E+02  0.00000000000E+00 0.  1.
         22    1    1    2    0    0  0.13990277476E+02 -0.31863179744E+01  0.56246021871E+02  0.58047355344E+02  0.00000000000E+00 0. -1.
</event>
<event>
 6    1  0.1715574E-005  0.1351259E+03  0.7818608E-02  0.1241533E+00
          2   -1    0    0  502    0  0.00000000000E+00  0.00000000000E+00  0.18920020542E+03  0.18920020542E+03  0.00000000000E+00 0.  1.
          1   -1    0    0  501    0 -0.00000000000E+00 -0.00000000000E+00 -0.11700546495E+03  0.11700546495E+03  0.00000000000E+00 0.  1.
          2    1    1    2  501    0  0.66276300984E+02  0.42366044725E+01 -0.35031944138E+02  0.75084845339E+02  0.00000000000E+00 0.  1.
          1    1    1    2  502    0 -0.27351388825E+02  0.37536089945E+02  0.80122630894E+02  0.92610434080E+02  0.00000000000E+00 0.  1.
         22    1    1    2    0    0  0.28063374705E+02 -0.28156700690E+02  0.52267713359E+02  0.65667850987E+02  0.00000000000E+00 0.  1.
         22    1    1    2    0    0 -0.66988286863E+02 -0.13615993728E+02 -0.25163659648E+02  0.72842539967E+02  0.00000000000E+00 0.  1.
</event>
<event>
 6    1  0.1715574E-005  0.2187606E+02  0.7818608E-02  0.1723299E+00
          2   -1    0    0  502    0  0.00000000000E+00  0.00000000000E+00  0.11388974402E+03  0.11388974402E+03  0.00000000000E+00 0.  1.
          1   -1    0    0  501    0 -0.00000000000E+00 -0.00000000000E+00 -0.10734077789E+03  0.10734077789E+03  0.00000000000E+00 0.  1.
          2    1    1    2  501    0  0.18928450948E+02  0.13027665154E+02  0.56167617577E+02  0.60686139925E+02  0.00000000000E+00 0.  1.
          1    1    1    2  502    0 -0.16572902882E+02 -0.14982084355E+02 -0.28482513818E+02  0.36199137489E+02  0.00000000000E+00 0.  1.
         22    1    1    2    0    0 -0.74366261172E+01  0.15749345357E+02  0.49354755118E+02  0.52337721960E+02  0.00000000000E+00 0.  1.
         22    1    1    2    0    0  0.50810780510E+01 -0.13794926155E+02 -0.70490892747E+02  0.72007522538E+02  0.00000000000E+00 0.  1.
</event>
<event>
 6    1  0.1715574E-005  0.5823881E+02  0.7818608E-02  0.1411647E+00
          2   -1    0    0  502    0  0.00000000000E+00  0.00000000000E+00  0.10035766028E+03  0.10035766028E+03  0.00000000000E+00 0.  1.
          1   -1    0    0  501    0 -0.00000000000E+00 -0.00000000000E+00 -0.13064025529E+03  0.13064025529E+03  0.00000000000E+00 0.  1.
          2    1    1    2  501    0  0.34547708049E+02  0.48762717041E+01  0.47871059675E+02  0.59236479568E+02  0.00000000000E+00 0.  1.
          1    1    1    2  502    0 -0.20980079397E+02  0.10319125624E+02 -0.25476523046E+02  0.34578914264E+02  0.00000000000E+00 0.  1.
         22    1    1    2    0    0 -0.28516215682E+02 -0.74764671270E+01 -0.90825016147E+02  0.95489557940E+02  0.00000000000E+00 0.  1.
         22    1    1    2    0    0  0.14948587029E+02 -0.77189302010E+01  0.38147884508E+02  0.41692963796E+02  0.00000000000E+00 0.  1.
</event>
<event>
 6    1  0.1715574E-005  0.1892643E+03  0.7818608E-02  0.1161326E+00
          2   -1    0    0  502    0  0.00000000000E+00  0.00000000000E+00  0.10314061809E+03  0.10314061809E+03  0.00000000000E+00 0.  1.
          1   -1    0    0  501    0 -0.00000000000E+00 -0.00000000000E+00 -0.57671607560E+03  0.57671607560E+03  0.00000000000E+00 0.  1.
          2    1    1    2  501    0  0.62857597087E+02 -0.34760182892E+02 -0.50203365133E+02  0.87634044166E+02  0.00000000000E+00 0.  1.
          1    1    1    2  502    0 -0.85637892713E+02  0.12270772234E+03 -0.41287074739E+03  0.43915064368E+03  0.00000000000E+00 0.  1.
         22    1    1    2    0    0 -0.26856473576E+02 -0.42432653933E+01 -0.42653958507E+02  0.50582958103E+02  0.00000000000E+00 0.  1.
         22    1    1    2    0    0  0.49636769202E+02 -0.83704274055E+02  0.32152613522E+02  0.10248904775E+03  0.00000000000E+00 0.  1.
</event>
<event>
 6    1  0.1715574E-005  0.9140715E+02  0.7818608E-02  0.1301632E+00
          2   -1    0    0  502    0  0.00000000000E+00  0.00000000000E+00  0.58807113379E+02  0.58807113379E+02  0.00000000000E+00 0. -1.
          1   -1    0    0  501    0 -0.00000000000E+00 -0.00000000000E+00 -0.29091547661E+03  0.29091547661E+03  0.00000000000E+00 0. -1.
          2    1    1    2  501    0 -0.18531601390E+02 -0.41539134325E+02  0.82231173034E+01  0.46222717237E+02  0.00000000000E+00 0. -1.
          1    1    1    2  502    0  0.19260552717E+02  0.19546887817E+02 -0.14617970936E+03  0.14873317431E+03  0.00000000000E+00 0. -1.
         22    1    1    2    0    0 -0.45605322883E+02 -0.30819405838E+01  0.19811841019E+01  0.45752255939E+02  0.00000000000E+00 0.  1.
         22    1    1    2    0    0  0.44876371557E+02  0.25074187092E+02 -0.96132955283E+02  0.10901444250E+03  0.00000000000E+00 0. -1.
</event>
<event>
 6    1  0.1715574E-005  0.1054607E+03  0.7818608E-02  0.1269926E+00
          2   -1    0    0  502    0  0.00000000000E+00  0.00000000000E+00  0.25167073908E+02  0.25167073908E+02  0.00000000000E+00 0. -1.
          1   -1    0    0  501    0 -0.00000000000E+00 -0.00000000000E+00 -0.66196687496E+03  0.66196687496E+03  0.00000000000E+00 0. -1.
          2    1    1    2  501    0 -0.75083298846E+02 -0.24874050218E+02 -0.10386874013E+03  0.13055625345E+03  0.00000000000E+00 0. -1.
          1    1    1    2  502    0  0.21336156728E+02  0.26832657885E+01 -0.71229433539E+02  0.74404729027E+02  0.00000000000E+00 0. -1.
         22    1    1    2    0    0 -0.15592141312E+02 -0.18390229165E+02 -0.15202384427E+02  0.28503120736E+02  0.00000000000E+00 0.  1.
         22    1    1    2    0    0  0.69339283430E+02  0.40581013594E+02 -0.44649924296E+03  0.45366984565E+03  0.00000000000E+00 0. -1.
</event>
<event>
 6    1  0.1715574E-005  0.2229772E+03  0.7818608E-02  0.1135799E+00
          2   -1    0    0  502    0  0.00000000000E+00  0.00000000000E+00  0.71097975869E+03  0.71097975869E+03  0.00000000000E+00 0. -1.
          1   -1    0    0  501    0 -0.00000000000E+00 -0.00000000000E+00 -0.66505921984E+02  0.66505921984E+02  0.00000000000E+00 0. -1.
          2    1    1    2  501    0 -0.11817511663E+03 -0.69602168096E+02  0.10127506685E+03  0.17048888280E+03  0.00000000000E+00 0. -1.
          1    1    1    2  502    0  0.65208135984E+02  0.20733886860E+02  0.39148050940E+03  0.39741538005E+03  0.00000000000E+00 0. -1.
         22    1    1    2    0    0 -0.20166840639E+02  0.41489827134E+02  0.12175955649E+03  0.13020559440E+03  0.00000000000E+00 0.  1.
         22    1    1    2    0    0  0.73133821281E+02  0.73784541021E+01  0.29958703970E+02  0.79375823420E+02  0.00000000000E+00 0. -1.
</event>
<event>
 6    1  0.1715574E-005  0.4491295E+02  0.7818608E-02  0.1505176E+00
          2   -1    0    0  502    0  0.00000000000E+00  0.00000000000E+00  0.27457034127E+03  0.27457034127E+03  0.00000000000E+00 0. -1.
          1   -1    0    0  501    0 -0.00000000000E+00 -0.00000000000E+00 -0.20813346288E+03  0.20813346288E+03  0.00000000000E+00 0. -1.
          2    1    1    2  501    0 -0.11427052602E+02  0.49295601702E+02  0.20880937135E+03  0.21485340920E+03  0.00000000000E+00 0. -1.
          1    1    1    2  502    0 -0.32677653561E+02 -0.28492593865E+02 -0.12822738811E+03  0.13535848703E+03  0.00000000000E+00 0. -1.
         22    1    1    2    0    0  0.78473651313E+01 -0.22673720505E+02 -0.65410878736E+02  0.69672532594E+02  0.00000000000E+00 0. -1.
         22    1    1    2    0    0  0.36257341032E+02  0.18707126691E+01  0.51265773887E+02  0.62819375329E+02  0.00000000000E+00 0. -1.
</event>
<event>
 6    1  0.1715574E-005  0.7897413E+02  0.7818608E-02  0.1332540E+00
          2   -1    0    0  502    0  0.00000000000E+00  0.00000000000E+00  0.48739141142E+03  0.48739141142E+03  0.00000000000E+00 0.  1.
          1   -1    0    0  501    0 -0.00000000000E+00 -0.00000000000E+00 -0.24936397201E+02  0.24936397201E+02  0.00000000000E+00 0. -1.
          2    1    1    2  501    0  0.44640746541E+01  0.31981675938E+02  0.18118087726E+03  0.18403604495E+03  0.00000000000E+00 0.  1.
          1    1    1    2  502    0 -0.24484184230E+02 -0.34640892192E+02  0.41270852785E+02  0.59184034831E+02  0.00000000000E+00 0. -1.
         22    1    1    2    0    0  0.29479042158E+02  0.35053652184E+02  0.22911408860E+03  0.23364725133E+03  0.00000000000E+00 0.  1.
         22    1    1    2    0    0 -0.94589325825E+01 -0.32394435929E+02  0.10889195575E+02  0.35460477508E+02  0.00000000000E+00 0.  1.
</event>
<event>
 6    1  0.1715574E-005  0.1074257E+03  0.7818608E-02  0.1313797E+00
          2   -1    0    0  502    0  0.00000000000E+00  0.00000000000E+00  0.17473152002E+03  0.17473152002E+03  0.00000000000E+00 0. -1.
          1   -1    0    0  501    0 -0.00000000000E+00 -0.00000000000E+00 -0.10206008745E+03  0.10206008745E+03  0.00000000000E+00 0. -1.
          2    1    1    2  501    0  0.27492560492E+02 -0.22989402124E+02  0.10580070969E+02  0.37366982674E+02  0.00000000000E+00 0. -1.
          1    1    1    2  502    0 -0.53550032328E+02  0.73033771151E+02  0.17846411648E-01  0.90562343220E+02  0.00000000000E+00 0. -1.
         22    1    1    2    0    0 -0.42590741944E+02 -0.81647242145E+01 -0.56454153014E+01  0.43732193345E+02  0.00000000000E+00 0. -1.
         22    1    1    2    0    0  0.68648213780E+02 -0.41879644813E+02  0.67718930496E+02  0.10513008824E+03  0.00000000000E+00 0. -1.
</event>
<event>
 6    1  0.1715574E-005  0.4556021E+02  0.7818608E-02  0.1549672E+00
          2   -1    0    0  502    0  0.00000000000E+00  0.00000000000E+00  0.17328328862E+03  0.17328328862E+03  0.00000000000E+00 0.  1.
          1   -1    0    0  501    0 -0.00000000000E+00 -0.00000000000E+00 -0.13307980550E+03  0.13307980550E+03  0.00000000000E+00 0.  1.
          2    1    1    2  501    0  0.30843410624E+02 -0.10184472053E+02  0.12402944192E+03  0.12821209737E+03  0.00000000000E+00 0.  1.
          1    1    1    2  502    0 -0.24487211454E+02  0.18097812796E+02 -0.28103719495E+02  0.41436377765E+02  0.00000000000E+00 0.  1.
         22    1    1    2    0    0  0.90812413347E+01 -0.10487262735E+02  0.38644388243E+02  0.41058986429E+02  0.00000000000E+00 0.  1.
         22    1    1    2    0    0 -0.15437440504E+02  0.25739219926E+01 -0.94366627551E+02  0.95655632553E+02  0.00000000000E+00 0.  1.
</event>
<event>
 6    1  0.1715574E-005  0.4241236E+02  0.7818608E-02  0.1548707E+00
          2   -1    0    0  502    0  0.00000000000E+00  0.00000000000E+00  0.75205271629E+02  0.75205271629E+02  0.00000000000E+00 0. -1.
          1   -1    0    0  501    0 -0.00000000000E+00 -0.00000000000E+00 -0.13870695465E+03  0.13870695465E+03  0.00000000000E+00 0. -1.
          2    1    1    2  501    0  0.93346009848E+01 -0.31297824592E+02  0.45945000154E+01  0.32981783307E+02  0.00000000000E+00 0. -1.
          1    1    1    2  502    0  0.82365004507E+01  0.23458155781E+02 -0.49804901999E+02  0.55665548371E+02  0.00000000000E+00 0. -1.
         22    1    1    2    0    0 -0.44185231987E+00  0.17453198420E+02 -0.68847610430E+02  0.71026775448E+02  0.00000000000E+00 0. -1.
         22    1    1    2    0    0 -0.17129249116E+02 -0.96135296091E+01  0.50556329396E+02  0.54238119149E+02  0.00000000000E+00 0. -1.
</event>
<event>
 6    1  0.1715574E-005  0.1355746E+03  0.7818608E-02  0.1230886E+00
          2   -1    0    0  502    0  0.00000000000E+00  0.00000000000E+00  0.53129178113E+03  0.53129178113E+03  0.00000000000E+00 0. -1.
          1   -1    0    0  501    0 -0.00000000000E+00 -0.00000000000E+00 -0.83768493841E+02  0.83768493841E+02  0.00000000000E+00 0. -1.
          2    1    1    2  501    0  0.20208587196E+01 -0.28300570419E+02  0.67746637022E+02  0.73448029135E+02  0.00000000000E+00 0. -1.
          1    1    1    2  502    0 -0.95696693408E+02 -0.57636434968E+01 -0.30254018037E+02  0.10053050444E+03  0.00000000000E+00 0. -1.
         22    1    1    2    0    0  0.10115218505E+03  0.26457124155E+02  0.41594578009E+03  0.42888534124E+03  0.00000000000E+00 0. -1.
         22    1    1    2    0    0 -0.74763503610E+01  0.76070897612E+01 -0.59151117829E+01  0.12196400156E+02  0.00000000000E+00 0.  1.
</event>
<event>
 6    1  0.1715574E-005  0.1453174E+03  0.7818608E-02  0.1332974E+00
          2   -1    0    0  502    0  0.00000000000E+00  0.00000000000E+00  0.13467056798E+03  0.13467056798E+03  0.00000000000E+00 0. -1.
          1   -1    0    0  501    0 -0.00000000000E+00 -0.00000000000E+00 -0.28748849439E+03  0.28748849439E+03  0.00000000000E+00 0. -1.
          2    1    1    2  501    0  0.13526048358E+02 -0.12719824434E+03  0.41684338836E+02  0.13453598571E+03  0.00000000000E+00 0. -1.
          1    1    1    2  502    0 -0.58771041396E+01  0.71698839798E+02 -0.69905146133E+02  0.10030948827E+03  0.00000000000E+00 0. -1.
         22    1    1    2    0    0 -0.10687129564E+02  0.67582295851E+02 -0.14673898787E+03  0.16190710920E+03  0.00000000000E+00 0.  1.
         22    1    1    2    0    0  0.30381853453E+01 -0.12082891312E+02  0.22141868754E+02  0.25406479185E+02  0.00000000000E+00 0.  1.
</event>
<event>
 6    1  0.1715574E-005  0.8492360E+02  0.7818608E-02  0.1413156E+00
          2   -1    0    0  502    0  0.00000000000E+00  0.00000000000E+00  0.56538066050E+02  0.56538066050E+02  0.00000000000E+00 0.  1.
          1   -1    0    0  501    0 -0.00000000000E+00 -0.00000000000E+00 -0.48616889899E+03  0.48616889899E+03  0.00000000000E+00 0. -1.
          2    1    1    2  501    0 -0.22386712427E+02  0.76112984923E+02  0.26957272400E+01  0.79382733088E+02  0.00000000000E+00 0.  1.
          1    1    1    2  502    0  0.41073906481E+01 -0.23634159446E+02 -0.14297911424E+03  0.14497748535E+03  0.00000000000E+00 0. -1.
         22    1    1    2    0    0  0.34755321328E+02 -0.50199376637E+02 -0.29463404026E+03  0.30089388072E+03  0.00000000000E+00 0. -1.
         22    1    1    2    0    0 -0.16475999549E+02 -0.22794488400E+01  0.52865943125E+01  0.17452865885E+02  0.00000000000E+00 0.  1.
</event>
<event>
 6    1  0.1715574E-005  0.9510616E+02  0.7818608E-02  0.1320066E+00
          2   -1    0    0  502    0  0.00000000000E+00  0.00000000000E+00  0.50624709339E+03  0.50624709339E+03  0.00000000000E+00 0.  1.
          1   -1    0    0  501    0 -0.00000000000E+00 -0.00000000000E+00 -0.30836275494E+03  0.30836275494E+03  0.00000000000E+00 0.  1.
          2    1    1    2  501    0 -0.26281987674E+01  0.29242147936E+02  0.42570022337E+03  0.42671148429E+03  0.00000000000E+00 0.  1.
          1    1    1    2  502    0 -0.35275275820E+02 -0.20098211321E+02 -0.25542718913E+03  0.25863358662E+03  0.00000000000E+00 0.  1.
         22    1    1    2    0    0  0.34914763448E+02  0.39474264395E+01  0.73491790208E+02  0.81459598023E+02  0.00000000000E+00 0.  1.
         22    1    1    2    0    0  0.29887111394E+01 -0.13091363054E+02 -0.45880486003E+02  0.47805179393E+02  0.00000000000E+00 0.  1.
</event>
<event>
 6    1  0.1818604E-005  0.1858147E+03  0.7818608E-02  0.1239173E+00
          2   -1    0    0  502    0  0.00000000000E+00  0.00000000000E+00  0.11521866656E+04  0.11521866656E+04  0.00000000000E+00 0. -1.
          1   -1    0    0  501    0 -0.00000000000E+00 -0.00000000000E+00 -0.60068681185E+02  0.60068681185E+02  0.00000000000E+00 0. -1.
          2    1    1    2  501    0 -0.12210249784E+03  0.10197301024E+03  0.75119923636E+03  0.76785923677E+03  0.00000000000E+00 0. -1.
          1    1    1    2  502    0  0.13073679436E+03 -0.98773726305E+02  0.19895793640E+03  0.25774525963E+03  0.00000000000E+00 0. -1.
         22    1    1    2    0    0 -0.12983098864E+01 -0.34972938107E+02 -0.56771058928E+01  0.35454499569E+02  0.00000000000E+00 0.  1.
         22    1    1    2    0    0 -0.73359866264E+01  0.31773654169E+02  0.14763791759E+03  0.15119635085E+03  0.00000000000E+00 0. -1.
</event>
<event>
 6    1  0.1715574E-005  0.4069578E+02  0.7818608E-02  0.1543107E+00
          2   -1    0    0  502    0  0.00000000000E+00  0.00000000000E+00  0.21855987572E+03  0.21855987572E+03  0.00000000000E+00 0.  1.
          1   -1    0    0  501    0 -0.00000000000E+00 -0.00000000000E+00 -0.70582116057E+02  0.70582116057E+02  0.00000000000E+00 0.  1.
          2    1    1    2  501    0 -0.23453947983E+02 -0.91231704902E+01  0.11917198032E+03  0.12180016753E+03  0.00000000000E+00 0.  1.
          1    1    1    2  502    0  0.28685308953E+02  0.27494918392E+02 -0.60348524430E+01  0.40190010340E+02  0.00000000000E+00 0.  1.
         22    1    1    2    0    0 -0.15768127243E+02  0.30828189644E+01  0.77016070633E+02  0.78674091957E+02  0.00000000000E+00 0. -1.
         22    1    1    2    0    0  0.10536766273E+02 -0.21454566866E+02 -0.42175438853E+02  0.48477721949E+02  0.00000000000E+00 0.  1.
</event>
<event>
 6    1  0.1715574E-005  0.1620844E+03  0.7818608E-02  0.1202862E+00
          2   -1    0    0  502    0  0.00000000000E+00  0.00000000000E+00  0.11030762540E+03  0.11030762540E+03  0.00000000000E+00 0.  1.
          1   -1    0    0  501    0 -0.00000000000E+00 -0.00000000000E+00 -0.27842222645E+03  0.27842222645E+03  0.00000000000E+00 0.  1.
          2    1    1    2  501    0  0.61839116429E+02  0.65304137209E+02  0.44080373670E+02  0.10015880391E+03  0.00000000000E+00 0.  1.
          1    1    1    2  502    0 -0.96051705929E+01  0.30575605195E+02 -0.41583255592E+02  0.52500419815E+02  0.00000000000E+00 0.  1.
         22    1    1    2    0    0 -0.58528245776E+02 -0.11611757201E+03 -0.17105867577E+03  0.21487186097E+03  0.00000000000E+00 0.  1.
         22    1    1    2    0    0  0.62942999396E+01  0.20237829605E+02  0.44695664215E+00  0.21198767159E+02  0.00000000000E+00 0.  1.
</event>
<event>
 6    1  0.1827274E-005  0.3337388E+02  0.7818608E-02  0.1587847E+00
          2   -1    0    0  502    0  0.00000000000E+00  0.00000000000E+00  0.19630258324E+04  0.19630258324E+04  0.00000000000E+00 0. -1.
          1   -1    0    0  501    0 -0.00000000000E+00 -0.00000000000E+00 -0.16810574105E+03  0.16810574105E+03  0.00000000000E+00 0.  1.
          2    1    1    2  501    0  0.92749820895E+01  0.59115608289E+02  0.18881076211E+04  0.18890556025E+04  0.00000000000E+00 0. -1.
          1    1    1    2  502    0 -0.35118339755E+01 -0.61996247577E+02 -0.96301369219E+02  0.11458543278E+03  0.00000000000E+00 0.  1.
         22    1    1    2    0    0 -0.58975112042E+01  0.14146159550E+02  0.63877929751E+02  0.65690824151E+02  0.00000000000E+00 0. -1.
         22    1    1    2    0    0  0.13436309031E+00 -0.11265520262E+02 -0.60764090224E+02  0.61799714085E+02  0.00000000000E+00 0. -1.
</event>
<event>
 6    1  0.1715574E-005  0.6762079E+02  0.7818608E-02  0.1396694E+00
          2   -1    0    0  502    0  0.00000000000E+00  0.00000000000E+00  0.26251963839E+03  0.26251963839E+03  0.00000000000E+00 0. -1.
          1   -1    0    0  501    0 -0.00000000000E+00 -0.00000000000E+00 -0.10098874396E+03  0.10098874396E+03  0.00000000000E+00 0.  1.
          2    1    1    2  501    0  0.31406470366E+02  0.42804759209E+02  0.15280041756E+03  0.16176087721E+03  0.00000000000E+00 0. -1.
          1    1    1    2  502    0 -0.49352814666E+02 -0.16679535426E+02 -0.39672860754E+02  0.65481624124E+02  0.00000000000E+00 0.  1.
         22    1    1    2    0    0  0.28769882969E+01  0.13805848233E+02  0.81215514535E+02  0.82430809218E+02  0.00000000000E+00 0. -1.
         22    1    1    2    0    0  0.15069356003E+02 -0.39931072015E+02 -0.32812176906E+02  0.53835071803E+02  0.00000000000E+00 0. -1.
</event>
<event>
 6    1  0.1715574E-005  0.6215567E+02  0.7818608E-02  0.1423674E+00
          2   -1    0    0  502    0  0.00000000000E+00  0.00000000000E+00  0.17282686653E+03  0.17282686653E+03  0.00000000000E+00 0. -1.
          1   -1    0    0  501    0 -0.00000000000E+00 -0.00000000000E+00 -0.32269863549E+03  0.32269863549E+03  0.00000000000E+00 0.  1.
          2    1    1    2  501    0  0.71751221093E+02 -0.62007116361E+01  0.13337226465E+03  0.15157456096E+03  0.00000000000E+00 0. -1.
          1    1    1    2  502    0 -0.30158774655E+02  0.13672935307E+02 -0.17067719460E+03  0.17385972968E+03  0.00000000000E+00 0.  1.
         22    1    1    2    0    0 -0.19614497560E+02  0.21133606268E+02 -0.12774185629E+03  0.13095548739E+03  0.00000000000E+00 0.  1.
         22    1    1    2    0    0 -0.21977948878E+02 -0.28605829939E+02  0.15175017273E+02  0.39135723995E+02  0.00000000000E+00 0.  1.
</event>
<event>
 6    1  0.1715574E-005  0.9666473E+02  0.7818608E-02  0.1311764E+00
          2   -1    0    0  502    0  0.00000000000E+00  0.00000000000E+00  0.38707316207E+03  0.38707316207E+03  0.00000000000E+00 0.  1.
          1   -1    0    0  501    0 -0.00000000000E+00 -0.00000000000E+00 -0.65769402528E+02  0.65769402528E+02  0.00000000000E+00 0. -1.
          2    1    1    2  501    0 -0.35052952299E+02 -0.82232442949E+01  0.24979807842E+03  0.25237949836E+03  0.00000000000E+00 0.  1.
          1    1    1    2  502    0  0.30366367721E+02 -0.16327874793E+02 -0.24099853936E+02  0.42065648022E+02  0.00000000000E+00 0. -1.
         22    1    1    2    0    0  0.13597990941E+02 -0.23637601275E+02 -0.19346392738E+02  0.33435377427E+02  0.00000000000E+00 0. -1.
         22    1    1    2    0    0 -0.89114063625E+01  0.48188720363E+02  0.11495192780E+03  0.12496204079E+03  0.00000000000E+00 0. -1.
</event>
<event>
 6    1  0.1715574E-005  0.7504026E+02  0.7818608E-02  0.1348098E+00
          2   -1    0    0  502    0  0.00000000000E+00  0.00000000000E+00  0.21314704597E+03  0.21314704597E+03  0.00000000000E+00 0.  1.
          1   -1    0    0  501    0 -0.00000000000E+00 -0.00000000000E+00 -0.29197461100E+03  0.29197461100E+03  0.00000000000E+00 0.  1.
          2    1    1    2  501    0  0.43158200114E+02 -0.21489349143E+02  0.13682715566E+03  0.14507271587E+03  0.00000000000E+00 0.  1.
          1    1    1    2  502    0 -0.49767188141E+02  0.19857891034E+02 -0.23168662743E+03  0.23780202309E+03  0.00000000000E+00 0.  1.
         22    1    1    2    0    0 -0.66693869364E+01  0.18395371429E+02 -0.49546117680E+02  0.53269955784E+02  0.00000000000E+00 0.  1.
         22    1    1    2    0    0  0.13278374963E+02 -0.16763913320E+02  0.65578024421E+02  0.68976962230E+02  0.00000000000E+00 0.  1.
</event>
<event>
 6    1  0.1715574E-005  0.1622262E+03  0.7818608E-02  0.1186864E+00
          2   -1    0    0  502    0  0.00000000000E+00  0.00000000000E+00  0.36746168781E+03  0.36746168781E+03  0.00000000000E+00 0.  1.
          1   -1    0    0  501    0 -0.00000000000E+00 -0.00000000000E+00 -0.34160840042E+03  0.34160840042E+03  0.00000000000E+00 0. -1.
          2    1    1    2  501    0 -0.13371997894E+03  0.10583295133E+02  0.26046152359E+03  0.29297311169E+03  0.00000000000E+00 0.  1.
          1    1    1    2  502    0  0.13161183692E+03 -0.15926676052E+02 -0.25250289594E+03  0.28518949330E+03  0.00000000000E+00 0. -1.
         22    1    1    2    0    0 -0.20394527131E+02 -0.13793989950E+02  0.68234352632E+02  0.72540593978E+02  0.00000000000E+00 0. -1.
         22    1    1    2    0    0  0.22502669142E+02  0.19137370869E+02 -0.50339692885E+02  0.58366889262E+02  0.00000000000E+00 0. -1.
</event>
<event>
 6    1  0.1715574E-005  0.7870936E+02  0.7818608E-02  0.1347039E+00
          2   -1    0    0  502    0  0.00000000000E+00  0.00000000000E+00  0.10331126604E+03  0.10331126604E+03  0.00000000000E+00 0.  1.
          1   -1    0    0  501    0 -0.00000000000E+00 -0.00000000000E+00 -0.11675292096E+03  0.11675292096E+03  0.00000000000E+00 0.  1.
          2    1    1    2  501    0 -0.25261583562E+02 -0.14714911638E+02  0.98477763215E+01  0.30848904795E+02  0.00000000000E+00 0.  1.
          1    1    1    2  502    0  0.26728583245E+02  0.45795083457E+00 -0.56760106385E+02  0.62740230778E+02  0.00000000000E+00 0.  1.
         22    1    1    2    0    0 -0.29933834176E+02  0.29452123546E+02  0.67552243883E+02  0.79540981032E+02  0.00000000000E+00 0.  1.
         22    1    1    2    0    0  0.28466834493E+02 -0.15195162743E+02 -0.34081568737E+02  0.46934070402E+02  0.00000000000E+00 0. -1.
</event>
<event>
 6    1  0.1715574E-005  0.9282477E+02  0.7818608E-02  0.1298143E+00
          2   -1    0    0  502    0  0.00000000000E+00  0.00000000000E+00  0.38704656238E+03  0.38704656238E+03  0.00000000000E+00 0. -1.
          1   -1    0    0  501    0 -0.00000000000E+00 -0.00000000000E+00 -0.11790315349E+03  0.11790315349E+03  0.00000000000E+00 0. -1.
          2    1    1    2  501    0 -0.57454474800E+01 -0.71984679338E+02  0.25864275734E+03  0.26853469078E+03  0.00000000000E+00 0. -1.
          1    1    1    2  502    0  0.17258201109E+02  0.64082767000E+02 -0.60700256451E+02  0.89938688367E+02  0.00000000000E+00 0. -1.
         22    1    1    2    0    0  0.20785526734E+01  0.21710371303E+02 -0.33513139892E+02  0.39984886504E+02  0.00000000000E+00 0. -1.
         22    1    1    2    0    0 -0.13591306303E+02 -0.13808458966E+02  0.10471404788E+03  0.10649145022E+03  0.00000000000E+00 0.  1.
</event>
<event>
 6    1  0.1715574E-005  0.1287243E+03  0.7818608E-02  0.1263611E+00
          2   -1    0    0  502    0  0.00000000000E+00  0.00000000000E+00  0.13474891258E+04  0.13474891258E+04  0.00000000000E+00 0. -1.
          1   -1    0    0  501    0 -0.00000000000E+00 -0.00000000000E+00 -0.25377909108E+02  0.25377909108E+02  0.00000000000E+00 0. -1.
          2    1    1    2  501    0 -0.49846174525E+02 -0.11364945706E+03  0.70979294727E+03  0.72056010728E+03  0.00000000000E+00 0. -1.
          1    1    1    2  502    0  0.28771035714E+01  0.81876811585E+02  0.16428961801E+03  0.18358422750E+03  0.00000000000E+00 0. -1.
         22    1    1    2    0    0 -0.15528172174E+02  0.48401749415E+02  0.78110448284E+02  0.93193860359E+02  0.00000000000E+00 0.  1.
         22    1    1    2    0    0  0.62497243128E+02 -0.16629103940E+02  0.36991820310E+03  0.37552883974E+03  0.00000000000E+00 0. -1.
</event>
<event>
 6    1  0.1715574E-005  0.1323029E+03  0.7818608E-02  0.1259856E+00
          2   -1    0    0  502    0  0.00000000000E+00  0.00000000000E+00  0.89496414270E+02  0.89496414270E+02  0.00000000000E+00 0.  1.
          1   -1    0    0  501    0 -0.00000000000E+00 -0.00000000000E+00 -0.21899948297E+03  0.21899948297E+03  0.00000000000E+00 0.  1.
          2    1    1    2  501    0  0.32474615009E+01  0.45084723117E+02 -0.30739203723E+02  0.54663304970E+02  0.00000000000E+00 0.  1.
          1    1    1    2  502    0 -0.29213979702E+02 -0.24490807137E+02 -0.11498160170E+03  0.12113638996E+03  0.00000000000E+00 0.  1.
         22    1    1    2    0    0 -0.24203649303E+02 -0.37060374492E+01 -0.45326718133E+02  0.51517596313E+02  0.00000000000E+00 0.  1.
         22    1    1    2    0    0  0.50170167505E+02 -0.16887878531E+02  0.61544454850E+02  0.81178605997E+02  0.00000000000E+00 0.  1.
</event>
<event>
 6    1  0.1715574E-005  0.5726765E+02  0.7818608E-02  0.1411698E+00
          2   -1    0    0  502    0  0.00000000000E+00  0.00000000000E+00  0.31402692263E+03  0.31402692263E+03  0.00000000000E+00 0. -1.
          1   -1    0    0  501    0 -0.00000000000E+00 -0.00000000000E+00 -0.11407124872E+03  0.11407124872E+03  0.00000000000E+00 0.  1.
          2    1    1    2  501    0  0.41655224737E+02 -0.14916505815E+01  0.25373211748E+03  0.25713298157E+03  0.00000000000E+00 0. -1.
          1    1    1    2  502    0 -0.22317961757E+02  0.76329995427E+01 -0.29790192601E+02  0.37997495631E+02  0.00000000000E+00 0.  1.
         22    1    1    2    0    0  0.12325510446E+02 -0.37356769030E+01  0.50435890550E+02  0.52054323022E+02  0.00000000000E+00 0. -1.
         22    1    1    2    0    0 -0.31662773426E+02 -0.24056720583E+01 -0.74422141520E+02  0.80913371129E+02  0.00000000000E+00 0.  1.
</event>
<event>
 6    1  0.1715574E-005  0.8584888E+02  0.7818608E-02  0.1323157E+00
          2   -1    0    0  502    0  0.00000000000E+00  0.00000000000E+00  0.42294143730E+02  0.42294143730E+02  0.00000000000E+00 0. -1.
          1   -1    0    0  501    0 -0.00000000000E+00 -0.00000000000E+00 -0.22889222552E+03  0.22889222552E+03  0.00000000000E+00 0. -1.
          2    1    1    2  501    0 -0.20195391990E+02 -0.15326959187E+02 -0.17625395833E+02  0.30877566514E+02  0.00000000000E+00 0. -1.
          1    1    1    2  502    0 -0.15965861655E+02  0.37802703633E+02 -0.59822261345E+02  0.72544166497E+02  0.00000000000E+00 0. -1.
         22    1    1    2    0    0  0.36821815733E+02  0.17479985096E+02 -0.11968738411E+03  0.12643759689E+03  0.00000000000E+00 0. -1.
         22    1    1    2    0    0 -0.66056208792E+00 -0.39955729542E+02  0.10536959500E+02  0.41327039344E+02  0.00000000000E+00 0. -1.
</event>
<event>
 6    1  0.1715574E-005  0.1089504E+03  0.7818608E-02  0.1269835E+00
          2   -1    0    0  502    0  0.00000000000E+00  0.00000000000E+00  0.52111114586E+02  0.52111114586E+02  0.00000000000E+00 0.  1.
          1   -1    0    0  501    0 -0.00000000000E+00 -0.00000000000E+00 -0.36116166914E+03  0.36116166914E+03  0.00000000000E+00 0.  1.
          2    1    1    2  501    0 -0.15363151908E+02 -0.62911998949E+02 -0.12375684103E+02  0.65932568623E+02  0.00000000000E+00 0.  1.
          1    1    1    2  502    0  0.36278204455E+02  0.14345371313E+02 -0.12590454433E+03  0.13180990888E+03  0.00000000000E+00 0.  1.
         22    1    1    2    0    0 -0.20382705497E+02 -0.20647794867E+02  0.23273994061E+01  0.29106750150E+02  0.00000000000E+00 0.  1.
         22    1    1    2    0    0 -0.53234705052E+00  0.69214422503E+02 -0.17309772553E+03  0.18642355608E+03  0.00000000000E+00 0.  1.
</event>
<event>
 6    1  0.1715574E-005  0.8148512E+02  0.7818608E-02  0.1335381E+00
          2   -1    0    0  502    0  0.00000000000E+00  0.00000000000E+00  0.23788041891E+02  0.23788041891E+02  0.00000000000E+00 0. -1.
          1   -1    0    0  501    0 -0.00000000000E+00 -0.00000000000E+00 -0.66413468149E+03  0.66413468149E+03  0.00000000000E+00 0. -1.
          2    1    1    2  501    0 -0.21047894891E+02 -0.26611938917E+02 -0.19801718344E+02  0.39285076322E+02  0.00000000000E+00 0. -1.
          1    1    1    2  502    0 -0.89794284913E+01  0.20218662587E+02 -0.32955307721E+03  0.33029480037E+03  0.00000000000E+00 0. -1.
         22    1    1    2    0    0 -0.21795114128E+01 -0.33535961880E+02 -0.13611327142E+02  0.36258505703E+02  0.00000000000E+00 0. -1.
         22    1    1    2    0    0  0.32206834795E+02  0.39929238210E+02 -0.27738051690E+03  0.28208434098E+03  0.00000000000E+00 0.  1.
</event>
<event>
 6    1  0.2092065E-005  0.1785495E+03  0.7818608E-02  0.1232061E+00
          2   -1    0    0  502    0  0.00000000000E+00  0.00000000000E+00  0.57749546020E+03  0.57749546020E+03  0.00000000000E+00 0.  1.
          1   -1    0    0  501    0 -0.00000000000E+00 -0.00000000000E+00 -0.21752500841E+03  0.21752500841E+03  0.00000000000E+00 0.  1.
          2    1    1    2  501    0 -0.13649331646E+03  0.99546775070E+02  0.44873001150E+03  0.47947743335E+03  0.00000000000E+00 0.  1.
          1    1    1    2  502    0  0.15843497559E+03 -0.58876957696E+02 -0.37625616608E+02  0.17315838028E+03  0.00000000000E+00 0.  1.
         22    1    1    2    0    0 -0.10738105806E+02  0.35564820495E+01  0.39407077899E+02  0.40998454476E+02  0.00000000000E+00 0.  1.
         22    1    1    2    0    0 -0.11203553320E+02 -0.44226299423E+02 -0.90541021002E+02  0.10138620050E+03  0.00000000000E+00 0.  1.
</event>
<event>
 6    1  0.1715574E-005  0.4629557E+03  0.7818608E-02  0.1028289E+00
          2   -1    0    0  502    0  0.00000000000E+00  0.00000000000E+00  0.47658577669E+03  0.47658577669E+03  0.00000000000E+00 0.  1.
          1   -1    0    0  501    0 -0.00000000000E+00 -0.00000000000E+00 -0.48510137127E+03  0.48510137127E+03  0.00000000000E+00 0.  1.
          2    1    1    2  501    0  0.34144066791E+03  0.94877839725E+02  0.23755534872E+03  0.42663342331E+03  0.00000000000E+00 0.  1.
          1    1    1    2  502    0 -0.33343612325E+03 -0.61115183973E+02 -0.14760470676E+03  0.36973215097E+03  0.00000000000E+00 0.  1.
         22    1    1    2    0    0 -0.61030605260E+02  0.10003379958E+02 -0.61675136128E+02  0.87341999092E+02  0.00000000000E+00 0.  1.
         22    1    1    2    0    0  0.53026060599E+02 -0.43766035709E+02 -0.36791100420E+02  0.77979574598E+02  0.00000000000E+00 0.  1.
</event>
<event>
 6    1  0.1715574E-005  0.1076883E+03  0.7818608E-02  0.1270786E+00
          2   -1    0    0  502    0  0.00000000000E+00  0.00000000000E+00  0.23545845556E+03  0.23545845556E+03  0.00000000000E+00 0.  1.
          1   -1    0    0  501    0 -0.00000000000E+00 -0.00000000000E+00 -0.12232855563E+03  0.12232855563E+03  0.00000000000E+00 0.  1.
          2    1    1    2  501    0  0.36383069150E+02  0.72440715936E+02  0.15823845991E+03  0.17779424974E+03  0.00000000000E+00 0.  1.
          1    1    1    2  502    0  0.43905492275E+00 -0.40700267826E+02 -0.15788677246E+02  0.43657609869E+02  0.00000000000E+00 0.  1.
         22    1    1    2    0    0 -0.46373848793E+02 -0.42451819853E+02 -0.69471206385E+02  0.93695994457E+02  0.00000000000E+00 0.  1.
         22    1    1    2    0    0  0.95517247199E+01  0.10711371743E+02  0.40151323651E+02  0.42639157129E+02  0.00000000000E+00 0. -1.
</event>
<event>
 6    1  0.1715574E-005  0.4859897E+02  0.7818608E-02  0.1455544E+00
          2   -1    0    0  502    0  0.00000000000E+00  0.00000000000E+00  0.32461524818E+03  0.32461524818E+03  0.00000000000E+00 0.  1.
          1   -1    0    0  501    0 -0.00000000000E+00 -0.00000000000E+00 -0.11699429565E+03  0.11699429565E+03  0.00000000000E+00 0. -1.
          2    1    1    2  501    0  0.20168043035E+02  0.11516735467E+01  0.19046935150E+03  0.19153759467E+03  0.00000000000E+00 0.  1.
          1    1    1    2  502    0 -0.33442571678E+02 -0.65471356181E+00 -0.83255666752E+02  0.89723688604E+02  0.00000000000E+00 0. -1.
         22    1    1    2    0    0  0.25268903186E+02 -0.61350960975E+01  0.12753351401E+03  0.13015742033E+03  0.00000000000E+00 0.  1.
         22    1    1    2    0    0 -0.11994374542E+02  0.56381361126E+01 -0.27126246226E+02  0.30190840230E+02  0.00000000000E+00 0. -1.
</event>
<event>
 6    1  0.1715574E-005  0.2503305E+03  0.7818608E-02  0.1113688E+00
          2   -1    0    0  502    0  0.00000000000E+00  0.00000000000E+00  0.41303292525E+03  0.41303292525E+03  0.00000000000E+00 0. -1.
          1   -1    0    0  501    0 -0.00000000000E+00 -0.00000000000E+00 -0.18831502323E+03  0.18831502323E+03  0.00000000000E+00 0. -1.
          2    1    1    2  501    0 -0.21876438420E+02  0.18918633895E+03 -0.31821271358E+02  0.19308713762E+03  0.00000000000E+00 0. -1.
          1    1    1    2  502    0  0.42180692351E+01 -0.17117421574E+03  0.22152173403E+03  0.27998264748E+03  0.00000000000E+00 0. -1.
         22    1    1    2    0    0 -0.40361457903E+01 -0.67820976078E+02  0.28054837320E+02  0.73505436303E+02  0.00000000000E+00 0.  1.
         22    1    1    2    0    0  0.21694514975E+02  0.49808852862E+02  0.69626020275E+01  0.54772727068E+02  0.00000000000E+00 0. -1.
</event>
<event>
 6    1  0.1715574E-005  0.7060391E+02  0.7818608E-02  0.1358530E+00
          2   -1    0    0  502    0  0.00000000000E+00  0.00000000000E+00  0.22458815166E+02  0.22458815166E+02  0.00000000000E+00 0.  1.
          1   -1    0    0  501    0 -0.00000000000E+00 -0.00000000000E+00 -0.38214955152E+03  0.38214955152E+03  0.00000000000E+00 0. -1.
          2    1    1    2  501    0  0.43392099471E+01  0.29018137778E+02 -0.31847147787E+02  0.43302677576E+02  0.00000000000E+00 0.  1.
          1    1    1    2  502    0  0.20223750140E+01 -0.26825809024E+02 -0.82566553008E+02  0.86838641780E+02  0.00000000000E+00 0. -1.
         22    1    1    2    0    0 -0.47989785828E+00  0.38283016481E+02 -0.15873912231E+02  0.41446359820E+02  0.00000000000E+00 0. -1.
         22    1    1    2    0    0 -0.58816871027E+01 -0.40475345235E+02 -0.22940312332E+03  0.23302068751E+03  0.00000000000E+00 0. -1.
</event>
<event>
 6    1  0.1715574E-005  0.8958305E+02  0.7818608E-02  0.1387958E+00
          2   -1    0    0  502    0  0.00000000000E+00  0.00000000000E+00  0.42633530120E+03  0.42633530120E+03  0.00000000000E+00 0. -1.
          1   -1    0    0  501    0 -0.00000000000E+00 -0.00000000000E+00 -0.11536432915E+03  0.11536432915E+03  0.00000000000E+00 0. -1.
          2    1    1    2  501    0  0.48631023769E+02  0.50466995470E+02  0.34489929221E+03  0.35194803007E+03  0.00000000000E+00 0. -1.
          1    1    1    2  502    0 -0.37113075834E+02 -0.39661498481E+02 -0.37234206220E+02  0.65854392203E+02  0.00000000000E+00 0. -1.
         22    1    1    2    0    0 -0.50403123253E+01 -0.30900081706E+02 -0.54225092394E+02  0.62614538590E+02  0.00000000000E+00 0. -1.
         22    1    1    2    0    0 -0.64776356092E+01  0.20094584717E+02  0.57530978455E+02  0.61282669491E+02  0.00000000000E+00 0. -1.
</event>
<event>
 6    1  0.1715574E-005  0.6421418E+02  0.7818608E-02  0.1383697E+00
          2   -1    0    0  502    0  0.00000000000E+00  0.00000000000E+00  0.19568393687E+03  0.19568393687E+03  0.00000000000E+00 0.  1.
          1   -1    0    0  501    0 -0.00000000000E+00 -0.00000000000E+00 -0.46978628315E+02  0.46978628315E+02  0.00000000000E+00 0. -1.
          2    1    1    2  501    0  0.10176228878E+02  0.24893794838E+02  0.50620252764E+02  0.57320734865E+02  0.00000000000E+00 0.  1.
          1    1    1    2  502    0  0.37585743995E+01 -0.25689686651E+02 -0.28581145037E+01  0.26120024890E+02  0.00000000000E+00 0. -1.
         22    1    1    2    0    0 -0.75372376409E+01 -0.33886403566E+02 -0.15160008025E+02  0.37880392569E+02  0.00000000000E+00 0. -1.
         22    1    1    2    0    0 -0.63975656364E+01  0.34682295379E+02  0.11610317832E+03  0.12134141286E+03  0.00000000000E+00 0.  1.
</event>
<event>
 6    1  0.1715574E-005  0.3934000E+02  0.7818608E-02  0.1550711E+00
          2   -1    0    0  502    0  0.00000000000E+00  0.00000000000E+00  0.88684440421E+02  0.88684440421E+02  0.00000000000E+00 0. -1.
          1   -1    0    0  501    0 -0.00000000000E+00 -0.00000000000E+00 -0.27634485788E+03  0.27634485788E+03  0.00000000000E+00 0. -1.
          2    1    1    2  501    0  0.31574139204E+02 -0.14557069725E+02  0.23368077794E+02  0.41891545749E+02  0.00000000000E+00 0. -1.
          1    1    1    2  502    0 -0.45030483157E+02  0.37347631611E+02 -0.18013495220E+03  0.18939691393E+03  0.00000000000E+00 0. -1.
         22    1    1    2    0    0 -0.34999238321E+01 -0.30766164800E+02  0.45525507262E+02  0.55057952875E+02  0.00000000000E+00 0. -1.
         22    1    1    2    0    0  0.16956267786E+02  0.79756029137E+01 -0.76419050311E+02  0.78682885747E+02  0.00000000000E+00 0. -1.
</event>
<event>
 6    1  0.1715574E-005  0.7092286E+02  0.7818608E-02  0.1366385E+00
          2   -1    0    0  502    0  0.00000000000E+00  0.00000000000E+00  0.71814260348E+02  0.71814260348E+02  0.00000000000E+00 0.  1.
          1   -1    0    0  501    0 -0.00000000000E+00 -0.00000000000E+00 -0.35949284170E+03  0.35949284170E+03  0.00000000000E+00 0.  1.
          2    1    1    2  501    0 -0.20809071581E+02  0.23034752123E+02  0.79272027271E+01  0.32038380242E+02  0.00000000000E+00 0.  1.
          1    1    1    2  502    0  0.41298100122E+02 -0.12406008738E+02 -0.26204150525E+03  0.26556579712E+03  0.00000000000E+00 0.  1.
         22    1    1    2    0    0 -0.34701627260E+02 -0.14043207359E+01  0.43007182251E+02  0.55279225541E+02  0.00000000000E+00 0.  1.
         22    1    1    2    0    0  0.14212598720E+02 -0.92244226497E+01 -0.76571461077E+02  0.78423699142E+02  0.00000000000E+00 0.  1.
</event>
<event>
 6    1  0.1715574E-005  0.5899092E+02  0.7818608E-02  0.1417679E+00
          2   -1    0    0  502    0  0.00000000000E+00  0.00000000000E+00  0.49990147487E+03  0.49990147487E+03  0.00000000000E+00 0.  1.
          1   -1    0    0  501    0 -0.00000000000E+00 -0.00000000000E+00 -0.35491728718E+02  0.35491728718E+02  0.00000000000E+00 0.  1.
          2    1    1    2  501    0 -0.20504457151E+02 -0.48059609981E+01  0.28916475611E+03  0.28993065757E+03  0.00000000000E+00 0.  1.
          1    1    1    2  502    0  0.47759229511E+01  0.20873140190E+02 -0.55619883474E+01  0.22123135759E+02  0.00000000000E+00 0.  1.
         22    1    1    2    0    0  0.17697939950E+02  0.17044860627E+02 -0.12248585723E+02  0.27454912211E+02  0.00000000000E+00 0. -1.
         22    1    1    2    0    0 -0.19694057503E+01 -0.33112039819E+02  0.19305556411E+03  0.19588449804E+03  0.00000000000E+00 0.  1.
</event>
<event>
 6    1  0.1715574E-005  0.2435854E+03  0.7818608E-02  0.1122607E+00
          2   -1    0    0  502    0  0.00000000000E+00  0.00000000000E+00  0.20437892121E+03  0.20437892121E+03  0.00000000000E+00 0. -1.
          1   -1    0    0  501    0 -0.00000000000E+00 -0.00000000000E+00 -0.27384831100E+03  0.27384831100E+03  0.00000000000E+00 0. -1.
          2    1    1    2  501    0  0.65490093199E+01  0.50425019592E+02 -0.92113801248E+02  0.10521656003E+03  0.00000000000E+00 0. -1.
          1    1    1    2  502    0 -0.15245390387E+03 -0.42773747786E+02  0.68236051908E+02  0.17241793725E+03  0.00000000000E+00 0. -1.
         22    1    1    2    0    0 -0.11117037238E+02 -0.12246723669E+02 -0.40134190807E+02  0.43408801288E+02  0.00000000000E+00 0. -1.
         22    1    1    2    0    0  0.15702193179E+03  0.45954518629E+01 -0.54574496419E+01  0.15718393365E+03  0.00000000000E+00 0. -1.
</event>
<event>
 6    1  0.1715574E-005  0.9399159E+02  0.7818608E-02  0.1324735E+00
          2   -1    0    0  502    0  0.00000000000E+00  0.00000000000E+00  0.22586572739E+03  0.22586572739E+03  0.00000000000E+00 0. -1.
          1   -1    0    0  501    0 -0.00000000000E+00 -0.00000000000E+00 -0.11272587522E+03  0.11272587522E+03  0.00000000000E+00 0. -1.
          2    1    1    2  501    0 -0.28133180354E+02  0.36771445788E+01  0.13404639450E+03  0.13701617827E+03  0.00000000000E+00 0. -1.
          1    1    1    2  502    0 -0.79225306311E+01  0.33704275505E+02 -0.54999790667E+02  0.64990165812E+02  0.00000000000E+00 0. -1.
         22    1    1    2    0    0  0.22093396406E+02 -0.48810856417E+02  0.74828745420E+02  0.92032380226E+02  0.00000000000E+00 0. -1.
         22    1    1    2    0    0  0.13962314579E+02  0.11429436333E+02 -0.40735497081E+02  0.44552878311E+02  0.00000000000E+00 0. -1.
</event>
<event>
 6    1  0.1715574E-005  0.1234125E+03  0.7818608E-02  0.1240444E+00
          2   -1    0    0  502    0  0.00000000000E+00  0.00000000000E+00  0.43700734301E+03  0.43700734301E+03  0.00000000000E+00 0. -1.
          1   -1    0    0  501    0 -0.00000000000E+00 -0.00000000000E+00 -0.47883189482E+02  0.47883189482E+02  0.00000000000E+00 0. -1.
          2    1    1    2  501    0 -0.41001532144E+01 -0.84174074124E+02  0.17274628545E+03  0.19220656895E+03  0.00000000000E+00 0. -1.
          1    1    1    2  502    0 -0.10077148238E+02  0.44928943838E+02  0.12978525469E+02  0.47839325187E+02  0.00000000000E+00 0. -1.
         22    1    1    2    0    0  0.29798931326E+01 -0.28972038550E+02  0.16129152125E+03  0.16390001101E+03  0.00000000000E+00 0. -1.
         22    1    1    2    0    0  0.11197408320E+02  0.68217168835E+02  0.42107821358E+02  0.80944627348E+02  0.00000000000E+00 0. -1.
</event>
<event>
 6    1  0.1715574E-005  0.3057237E+03  0.7818608E-02  0.1190040E+00
          2   -1    0    0  502    0  0.00000000000E+00  0.00000000000E+00  0.15972248045E+04  0.15972248045E+04  0.00000000000E+00 0. -1.
          1   -1    0    0  501    0 -0.00000000000E+00 -0.00000000000E+00 -0.10591397439E+03  0.10591397439E+03  0.00000000000E+00 0. -1.
          2    1    1    2  501    0  0.11689486987E+03  0.23959903002E+03  0.12490756713E+03  0.29440449405E+03  0.00000000000E+00 0. -1.
          1    1    1    2  502    0 -0.12366658532E+03 -0.10678452153E+03  0.67071647902E+03  0.69033104637E+03  0.00000000000E+00 0. -1.
         22    1    1    2    0    0  0.14817121921E+02 -0.15357325036E+03  0.64208977846E+03  0.66036624227E+03  0.00000000000E+00 0. -1.
         22    1    1    2    0    0 -0.80454064757E+01  0.20758741866E+02  0.53597005514E+02  0.58036996212E+02  0.00000000000E+00 0. -1.
</event>
<event>
 6    1  0.1715574E-005  0.7523923E+02  0.7818608E-02  0.1431413E+00
          2   -1    0    0  502    0  0.00000000000E+00  0.00000000000E+00  0.25496256948E+03  0.25496256948E+03  0.00000000000E+00 0.  1.
          1   -1    0    0  501    0 -0.00000000000E+00 -0.00000000000E+00 -0.12529859225E+03  0.12529859225E+03  0.00000000000E+00 0. -1.
          2    1    1    2  501    0 -0.28490931655E+02  0.98508331450E+01  0.10948380055E+03  0.11355824357E+03  0.00000000000E+00 0.  1.
          1    1    1    2  502    0  0.78769055065E+02 -0.24791790764E+02 -0.66908244504E+02  0.10628221915E+03  0.00000000000E+00 0. -1.
         22    1    1    2    0    0 -0.43767327086E+02 -0.19244893371E+01  0.11729945294E+03  0.12521359447E+03  0.00000000000E+00 0.  1.
         22    1    1    2    0    0 -0.65107963236E+01  0.16865446956E+02 -0.30211031756E+02  0.35207104532E+02  0.00000000000E+00 0.  1.
</event>
<event>
 6    1  0.1715574E-005  0.9593589E+02  0.7818608E-02  0.1290317E+00
          2   -1    0    0  502    0  0.00000000000E+00  0.00000000000E+00  0.34443872908E+03  0.34443872908E+03  0.00000000000E+00 0. -1.
          1   -1    0    0  501    0 -0.00000000000E+00 -0.00000000000E+00 -0.50124827211E+02  0.50124827211E+02  0.00000000000E+00 0. -1.
          2    1    1    2  501    0  0.31022508606E+02  0.80612796281E+01  0.61697197381E+02  0.69526429753E+02  0.00000000000E+00 0. -1.
          1    1    1    2  502    0 -0.66352055583E+02 -0.18085077585E+02  0.14564233118E+02  0.70297810760E+02  0.00000000000E+00 0. -1.
         22    1    1    2    0    0 -0.23388664422E+02 -0.17685554072E+01 -0.48324939789E+01  0.23948077370E+02  0.00000000000E+00 0. -1.
         22    1    1    2    0    0  0.58718211399E+02  0.11792353364E+02  0.22288496535E+03  0.23079123841E+03  0.00000000000E+00 0. -1.
</event>
<event>
 6    1  0.1715574E-005  0.2563010E+03  0.7818608E-02  0.1120683E+00
          2   -1    0    0  502    0  0.00000000000E+00  0.00000000000E+00  0.68406518148E+03  0.68406518148E+03  0.00000000000E+00 0. -1.
          1   -1    0    0  501    0 -0.00000000000E+00 -0.00000000000E+00 -0.41331039403E+03  0.41331039403E+03  0.00000000000E+00 0. -1.
          2    1    1    2  501    0  0.18172928555E+03  0.35252110606E+03  0.37739983563E+02  0.39839800426E+03  0.00000000000E+00 0. -1.
          1    1    1    2  502    0 -0.74387423623E+02 -0.21130617649E+03  0.37791732201E+03  0.43932367486E+03  0.00000000000E+00 0. -1.
         22    1    1    2    0    0 -0.21537382242E+01  0.20266544302E+02 -0.36322171873E+01  0.20701797216E+02  0.00000000000E+00 0. -1.
         22    1    1    2    0    0 -0.10518812370E+03 -0.16148147387E+03 -0.14127030094E+03  0.23895209917E+03  0.00000000000E+00 0. -1.
</event>
<event>
 6    1  0.1715574E-005  0.2608611E+03  0.7818608E-02  0.1228970E+00
          2   -1    0    0  502    0  0.00000000000E+00  0.00000000000E+00  0.52039956324E+03  0.52039956324E+03  0.00000000000E+00 0.  1.
          1   -1    0    0  501    0 -0.00000000000E+00 -0.00000000000E+00 -0.14556273247E+03  0.14556273247E+03  0.00000000000E+00 0.  1.
          2    1    1    2  501    0  0.16398997374E+03  0.15935216468E+03  0.24626008214E+03  0.33605037112E+03  0.00000000000E+00 0.  1.
          1    1    1    2  502    0 -0.11912735593E+03 -0.67837739981E+02  0.92959429696E+02  0.16563436076E+03  0.00000000000E+00 0.  1.
         22    1    1    2    0    0 -0.60351570246E+02 -0.89717024146E+02 -0.16948957804E+02  0.10944735549E+03  0.00000000000E+00 0. -1.
         22    1    1    2    0    0  0.15488952429E+02 -0.17974005528E+01  0.52566276738E+02  0.54830208336E+02  0.00000000000E+00 0.  1.
</event>
<event>
 6    1  0.1715574E-005  0.1227258E+03  0.7818608E-02  0.1238722E+00
          2   -1    0    0  502    0  0.00000000000E+00  0.00000000000E+00  0.20516120954E+03  0.20516120954E+03  0.00000000000E+00 0. -1.
          1   -1    0    0  501    0 -0.00000000000E+00 -0.00000000000E+00 -0.57564438108E+03  0.57564438108E+03  0.00000000000E+00 0.  1.
          2    1    1    2  501    0  0.70039133619E+02  0.41727601983E+02  0.10373546081E+03  0.13193831451E+03  0.00000000000E+00 0. -1.
          1    1    1    2  502    0 -0.99291969072E+02 -0.41498394098E+02 -0.50521632243E+03  0.51655062123E+03  0.00000000000E+00 0.  1.
         22    1    1    2    0    0  0.38186577144E+02  0.10649420837E+02  0.75698865544E+02  0.85451407729E+02  0.00000000000E+00 0. -1.
         22    1    1    2    0    0 -0.89337416915E+01 -0.10878628723E+02 -0.44701175465E+02  0.46865247161E+02  0.00000000000E+00 0.  1.
</event>
<event>
 6    1  0.1715574E-005  0.3498273E+03  0.7818608E-02  0.1064615E+00
          2   -1    0    0  502    0  0.00000000000E+00  0.00000000000E+00  0.62223225711E+03  0.62223225711E+03  0.00000000000E+00 0.  1.
          1   -1    0    0  501    0 -0.00000000000E+00 -0.00000000000E+00 -0.22718359375E+03  0.22718359375E+03  0.00000000000E+00 0.  1.
          2    1    1    2  501    0  0.19212501217E+03 -0.22997807965E+03  0.32931408177E+03  0.44525240244E+03  0.00000000000E+00 0.  1.
          1    1    1    2  502    0 -0.17715685307E+03  0.20191082151E+03  0.63655591417E+02  0.27605174289E+03  0.00000000000E+00 0.  1.
         22    1    1    2    0    0 -0.17541543290E+02  0.59417035290E+02 -0.41352661217E+02  0.74485786653E+02  0.00000000000E+00 0.  1.
         22    1    1    2    0    0  0.25733841954E+01 -0.31349777149E+02  0.43431651391E+02  0.53625918883E+02  0.00000000000E+00 0.  1.
</event>
<event>
 6    1  0.1715574E-005  0.5529010E+02  0.7818608E-02  0.1449567E+00
          2   -1    0    0  502    0  0.00000000000E+00  0.00000000000E+00  0.13105918405E+03  0.13105918405E+03  0.00000000000E+00 0. -1.
          1   -1    0    0  501    0 -0.00000000000E+00 -0.00000000000E+00 -0.26469458041E+03  0.26469458041E+03  0.00000000000E+00 0. -1.
          2    1    1    2  501    0  0.35872382813E+01 -0.74725777511E+02 -0.34102490481E+01  0.74889517969E+02  0.00000000000E+00 0. -1.
          1    1    1    2  502    0 -0.62848852304E+02  0.58639919501E+02 -0.15933285238E+03  0.18104026139E+03  0.00000000000E+00 0. -1.
         22    1    1    2    0    0  0.48008175949E+02 -0.13851867144E+02 -0.39783894039E+02  0.63870317098E+02  0.00000000000E+00 0.  1.
         22    1    1    2    0    0  0.11253438074E+02  0.29937725154E+02  0.68891599104E+02  0.75953668002E+02  0.00000000000E+00 0. -1.
</event>
<event>
 6    1  0.1715574E-005  0.6498975E+02  0.7818608E-02  0.1389810E+00
          2   -1    0    0  502    0  0.00000000000E+00  0.00000000000E+00  0.48414915701E+02  0.48414915701E+02  0.00000000000E+00 0.  1.
          1   -1    0    0  501    0 -0.00000000000E+00 -0.00000000000E+00 -0.28428077800E+03  0.28428077800E+03  0.00000000000E+00 0. -1.
          2    1    1    2  501    0  0.34085436879E+02  0.13618388496E+02  0.12949970267E+02  0.38922734261E+02  0.00000000000E+00 0.  1.
          1    1    1    2  502    0 -0.19874305457E+02  0.11064609867E+02 -0.65051775732E+02  0.68914056148E+02  0.00000000000E+00 0. -1.
         22    1    1    2    0    0 -0.29385736314E+02 -0.27411547199E+02 -0.19909850336E+03  0.20311358512E+03  0.00000000000E+00 0. -1.
         22    1    1    2    0    0  0.15174604892E+02  0.27285488362E+01  0.15334446524E+02  0.21745318176E+02  0.00000000000E+00 0.  1.
</event>
<event>
 6    1  0.1715574E-005  0.7040436E+02  0.7818608E-02  0.1360682E+00
          2   -1    0    0  502    0  0.00000000000E+00  0.00000000000E+00  0.29157604521E+03  0.29157604521E+03  0.00000000000E+00 0. -1.
          1   -1    0    0  501    0 -0.00000000000E+00 -0.00000000000E+00 -0.13983006762E+03  0.13983006762E+03  0.00000000000E+00 0.  1.
          2    1    1    2  501    0 -0.21005168450E+02  0.44305696158E+02  0.17808719392E+03  0.18471399636E+03  0.00000000000E+00 0. -1.
          1    1    1    2  502    0  0.83424362032E+01 -0.50123514173E+02 -0.93686390674E+02  0.10657909135E+03  0.00000000000E+00 0.  1.
         22    1    1    2    0    0  0.15530731843E+02 -0.11869599713E+02 -0.32905540634E+02  0.38273563113E+02  0.00000000000E+00 0. -1.
         22    1    1    2    0    0 -0.28679995961E+01  0.17687417728E+02  0.10025071498E+03  0.10183946201E+03  0.00000000000E+00 0. -1.
</event>
<event>
 6    1  0.1715574E-005  0.1287615E+03  0.7818608E-02  0.1241883E+00
          2   -1    0    0  502    0  0.00000000000E+00  0.00000000000E+00  0.87537306572E+03  0.87537306572E+03  0.00000000000E+00 0.  1.
          1   -1    0    0  501    0 -0.00000000000E+00 -0.00000000000E+00 -0.60499311985E+02  0.60499311985E+02  0.00000000000E+00 0.  1.
          2    1    1    2  501    0  0.73037468870E+02 -0.10927021178E+03  0.39280317258E+03  0.41420862308E+03  0.00000000000E+00 0.  1.
          1    1    1    2  502    0  0.91143223450E+01  0.10506014754E+03  0.41766705775E+02  0.11342470270E+03  0.00000000000E+00 0.  1.
         22    1    1    2    0    0  0.15418672073E+02  0.23950206331E+02  0.20968984036E+02  0.35370130383E+02  0.00000000000E+00 0.  1.
         22    1    1    2    0    0 -0.97570463288E+02 -0.19740142089E+02  0.35933489134E+03  0.37286892154E+03  0.00000000000E+00 0.  1.
</event>
<event>
 6    1  0.1715574E-005  0.2012723E+03  0.7818608E-02  0.1160913E+00
          2   -1    0    0  502    0  0.00000000000E+00  0.00000000000E+00  0.86685197895E+03  0.86685197895E+03  0.00000000000E+00 0. -1.
          1   -1    0    0  501    0 -0.00000000000E+00 -0.00000000000E+00 -0.10945524703E+03  0.10945524703E+03  0.00000000000E+00 0. -1.
          2    1    1    2  501    0 -0.17976801110E+03 -0.45530283524E+01  0.12949174884E+03  0.22159733956E+03  0.00000000000E+00 0. -1.
          1    1    1    2  502    0  0.17830740592E+03  0.14434336295E+03  0.37298934287E+03  0.43789220971E+03  0.00000000000E+00 0. -1.
         22    1    1    2    0    0  0.36156718139E+02  0.71302692276E+01  0.43034158256E+02  0.56657636579E+02  0.00000000000E+00 0. -1.
         22    1    1    2    0    0 -0.34696112961E+02 -0.14692060382E+03  0.21188148196E+03  0.26016004013E+03  0.00000000000E+00 0. -1.
</event>
<event>
 6    1  0.1715574E-005  0.7804971E+02  0.7818608E-02  0.1352418E+00
          2   -1    0    0  502    0  0.00000000000E+00  0.00000000000E+00  0.93955952106E+02  0.93955952106E+02  0.00000000000E+00 0. -1.
          1   -1    0    0  501    0 -0.00000000000E+00 -0.00000000000E+00 -0.34350180618E+03  0.34350180618E+03  0.00000000000E+00 0. -1.
          2    1    1    2  501    0  0.16525126901E+02  0.36948078505E+02  0.58974682855E+02  0.71527991319E+02  0.00000000000E+00 0. -1.
          1    1    1    2  502    0 -0.31858135592E+02 -0.17560573858E+02 -0.19341599565E+03  0.19680716941E+03  0.00000000000E+00 0. -1.
         22    1    1    2    0    0 -0.13108414627E+01  0.16877468916E+02  0.21181715938E+02  0.27115168309E+02  0.00000000000E+00 0.  1.
         22    1    1    2    0    0  0.16643850153E+02 -0.36264973563E+02 -0.13628625722E+03  0.14200742925E+03  0.00000000000E+00 0. -1.
</event>
<event>
 6    1  0.1715574E-005  0.1792650E+03  0.7818608E-02  0.1184553E+00
          2   -1    0    0  502    0  0.00000000000E+00  0.00000000000E+00  0.86913419002E+03  0.86913419002E+03  0.00000000000E+00 0.  1.
          1   -1    0    0  501    0 -0.00000000000E+00 -0.00000000000E+00 -0.69123055558E+03  0.69123055558E+03  0.00000000000E+00 0. -1.
          2    1    1    2  501    0 -0.11258434036E+03  0.35777261264E+01  0.71759848866E+03  0.72638531424E+03  0.00000000000E+00 0.  1.
          1    1    1    2  502    0  0.15708327156E+02  0.17930143104E+03 -0.56122411502E+03  0.58937955681E+03  0.00000000000E+00 0. -1.
         22    1    1    2    0    0 -0.94759891306E+01 -0.38697489188E+01  0.34491159728E+02  0.35977901913E+02  0.00000000000E+00 0. -1.
         22    1    1    2    0    0  0.10635200234E+03 -0.17900940824E+03 -0.12961898923E+02  0.20862197263E+03  0.00000000000E+00 0. -1.
</event>
<event>
 6    1  0.1715574E-005  0.5190753E+02  0.7818608E-02  0.1476079E+00
          2   -1    0    0  502    0  0.00000000000E+00  0.00000000000E+00  0.11613449018E+03  0.11613449018E+03  0.00000000000E+00 0. -1.
          1   -1    0    0  501    0 -0.00000000000E+00 -0.00000000000E+00 -0.21619764523E+03  0.21619764523E+03  0.00000000000E+00 0. -1.
          2    1    1    2  501    0  0.20296853346E+02  0.38562036054E+02  0.14219052156E+02  0.45838568091E+02  0.00000000000E+00 0. -1.
          1    1    1    2  502    0  0.71742065067E+01 -0.37246534299E+02 -0.14604537460E+03  0.15089077175E+03  0.00000000000E+00 0. -1.
         22    1    1    2    0    0 -0.25008405786E+02  0.13884561199E+02  0.80004140092E+02  0.84963897224E+02  0.00000000000E+00 0. -1.
         22    1    1    2    0    0 -0.24626540667E+01 -0.15200062954E+02 -0.48240972702E+02  0.50638898350E+02  0.00000000000E+00 0. -1.
</event>
<event>
 6    1  0.1715574E-005  0.9338885E+02  0.7818608E-02  0.1316027E+00
          2   -1    0    0  502    0  0.00000000000E+00  0.00000000000E+00  0.22009617221E+03  0.22009617221E+03  0.00000000000E+00 0. -1.
          1   -1    0    0  501    0 -0.00000000000E+00 -0.00000000000E+00 -0.65199735371E+02  0.65199735371E+02  0.00000000000E+00 0.  1.
          2    1    1    2  501    0 -0.36712957858E+02 -0.77923139956E+01  0.53227898052E+02  0.65128876569E+02  0.00000000000E+00 0. -1.
          1    1    1    2  502    0  0.27324914308E+01  0.43114789065E+02 -0.92717830683E+01  0.44185037137E+02  0.00000000000E+00 0.  1.
         22    1    1    2    0    0  0.28344655226E+02 -0.44360518922E+02  0.13757156982E+03  0.14729973503E+03  0.00000000000E+00 0. -1.
         22    1    1    2    0    0  0.56358112010E+01  0.90380438532E+01 -0.26631247959E+02  0.28682258844E+02  0.00000000000E+00 0.  1.
</event>
<event>
 6    1  0.1715574E-005  0.6242139E+02  0.7818608E-02  0.1480493E+00
          2   -1    0    0  502    0  0.00000000000E+00  0.00000000000E+00  0.44977357750E+03  0.44977357750E+03  0.00000000000E+00 0.  1.
          1   -1    0    0  501    0 -0.00000000000E+00 -0.00000000000E+00 -0.29321496112E+03  0.29321496112E+03  0.00000000000E+00 0.  1.
          2    1    1    2  501    0 -0.68965761041E+02 -0.27396710937E+02  0.32043891278E+03  0.32891937126E+03  0.00000000000E+00 0.  1.
          1    1    1    2  502    0  0.41905145225E+02 -0.31329841975E+02 -0.24783260651E+03  0.25329548169E+03  0.00000000000E+00 0.  1.
         22    1    1    2    0    0  0.29536204716E+02  0.43474561324E+02  0.11480720140E+03  0.12626606181E+03  0.00000000000E+00 0. -1.
         22    1    1    2    0    0 -0.24755889006E+01  0.15251991588E+02 -0.30854891299E+02  0.34507623866E+02  0.00000000000E+00 0.  1.
</event>
<event>
 6    1  0.1715574E-005  0.9327299E+02  0.7818608E-02  0.1295239E+00
          2   -1    0    0  502    0  0.00000000000E+00  0.00000000000E+00  0.58810768847E+02  0.58810768847E+02  0.00000000000E+00 0. -1.
          1   -1    0    0  501    0 -0.00000000000E+00 -0.00000000000E+00 -0.30027926505E+03  0.30027926505E+03  0.00000000000E+00 0. -1.
          2    1    1    2  501    0 -0.41813316463E+02  0.17499317160E+02  0.20711514498E+02  0.49835192059E+02  0.00000000000E+00 0. -1.
          1    1    1    2  502    0  0.38341009496E+02 -0.18959302368E+01 -0.82431674419E+02  0.90931889390E+02  0.00000000000E+00 0. -1.
         22    1    1    2    0    0  0.40315717628E+02 -0.34890854883E+02 -0.16626584321E+03  0.17460543938E+03  0.00000000000E+00 0. -1.
         22    1    1    2    0    0 -0.36843410661E+02  0.19287467960E+02 -0.13482493073E+02  0.43717513068E+02  0.00000000000E+00 0. -1.
</event>
<event>
 6    1  0.1715574E-005  0.1632188E+03  0.7818608E-02  0.1187962E+00
          2   -1    0    0  502    0  0.00000000000E+00  0.00000000000E+00  0.28504864160E+02  0.28504864160E+02  0.00000000000E+00 0. -1.
          1   -1    0    0  501    0 -0.00000000000E+00 -0.00000000000E+00 -0.89419752354E+03  0.89419752354E+03  0.00000000000E+00 0. -1.
          2    1    1    2  501    0  0.19320075025E+02 -0.11926441370E+03 -0.34045616188E+03  0.36125844466E+03  0.00000000000E+00 0. -1.
          1    1    1    2  502    0 -0.27805684515E+02  0.35981657458E+02 -0.10972059724E+03  0.11877055705E+03  0.00000000000E+00 0. -1.
         22    1    1    2    0    0 -0.25681481541E+02  0.10458318404E+03 -0.24773759824E+03  0.27013163173E+03  0.00000000000E+00 0. -1.
         22    1    1    2    0    0  0.34167091031E+02 -0.21300427803E+02 -0.16777830201E+03  0.17254175425E+03  0.00000000000E+00 0. -1.
</event>
<event>
 6    1  0.1715574E-005  0.2414565E+03  0.7818608E-02  0.1204373E+00
          2   -1    0    0  502    0  0.00000000000E+00  0.00000000000E+00  0.97030727955E+03  0.97030727955E+03  0.00000000000E+00 0. -1.
          1   -1    0    0  501    0 -0.00000000000E+00 -0.00000000000E+00 -0.90681669648E+02  0.90681669648E+02  0.00000000000E+00 0. -1.
          2    1    1    2  501    0  0.77348927809E+02 -0.16350688302E+03  0.44790669167E+03  0.48305047549E+03  0.00000000000E+00 0. -1.
          1    1    1    2  502    0 -0.59105185480E+02  0.22765999274E+03  0.21223568030E+03  0.31680669064E+03  0.00000000000E+00 0. -1.
         22    1    1    2    0    0 -0.32197900967E+02 -0.74715009819E+01 -0.98342073925E+00  0.33068040007E+02  0.00000000000E+00 0.  1.
         22    1    1    2    0    0  0.13954158637E+02 -0.56681608736E+02  0.22046665868E+03  0.22806374307E+03  0.00000000000E+00 0.  1.
</event>
<event>
 6    1  0.1715574E-005  0.1454118E+03  0.7818608E-02  0.1230344E+00
          2   -1    0    0  502    0  0.00000000000E+00  0.00000000000E+00  0.41663580622E+03  0.41663580622E+03  0.00000000000E+00 0.  1.
          1   -1    0    0  501    0 -0.00000000000E+00 -0.00000000000E+00 -0.18624105751E+03  0.18624105751E+03  0.00000000000E+00 0. -1.
          2    1    1    2  501    0 -0.13791139467E+03  0.51563688722E+01  0.27964448377E+03  0.31184479829E+03  0.00000000000E+00 0.  1.
          1    1    1    2  502    0  0.11462797302E+03  0.70406739347E+02 -0.31905671826E+02  0.13825575228E+03  0.00000000000E+00 0. -1.
         22    1    1    2    0    0  0.31778658715E+02 -0.81528473590E+02 -0.61798948356E+02  0.10712555798E+03  0.00000000000E+00 0. -1.
         22    1    1    2    0    0 -0.84952370610E+01  0.59653653712E+01  0.44454885124E+02  0.45650755176E+02  0.00000000000E+00 0.  1.
</event>
<event>
 6    1  0.1715574E-005  0.2821563E+02  0.7818608E-02  0.1623133E+00
          2   -1    0    0  502    0  0.00000000000E+00  0.00000000000E+00  0.13618032281E+03  0.13618032281E+03  0.00000000000E+00 0.  1.
          1   -1    0    0  501    0 -0.00000000000E+00 -0.00000000000E+00 -0.30294833969E+03  0.30294833969E+03  0.00000000000E+00 0. -1.
          2    1    1    2  501    0  0.28141320376E+01  0.39657747178E+02  0.87627925782E+02  0.96225306584E+02  0.00000000000E+00 0.  1.
          1    1    1    2  502    0  0.19892849353E+02 -0.14634765213E+02 -0.19862672326E+03  0.20015613156E+03  0.00000000000E+00 0. -1.
         22    1    1    2    0    0 -0.20252710203E+02 -0.52295563650E+01  0.39884313701E+02  0.45036418705E+02  0.00000000000E+00 0.  1.
         22    1    1    2    0    0 -0.24542711880E+01 -0.19793425600E+02 -0.95653533102E+02  0.97710805640E+02  0.00000000000E+00 0. -1.
</event>
<event>
 6    1  0.1715574E-005  0.5271333E+02  0.7818608E-02  0.1443099E+00
          2   -1    0    0  502    0  0.00000000000E+00  0.00000000000E+00  0.40331265554E+02  0.40331265554E+02  0.00000000000E+00 0. -1.
          1   -1    0    0  501    0 -0.00000000000E+00 -0.00000000000E+00 -0.29051179266E+03  0.29051179266E+03  0.00000000000E+00 0. -1.
          2    1    1    2  501    0 -0.20152615581E+02  0.76956140478E+01  0.85475025971E+01  0.23203667619E+02  0.00000000000E+00 0. -1.
          1    1    1    2  502    0  0.25205182451E+02  0.27046192653E+01 -0.12001639705E+03  0.12266438664E+03  0.00000000000E+00 0. -1.
         22    1    1    2    0    0  0.12035892189E+02 -0.24323987487E+02 -0.15513226373E+03  0.15748821644E+03  0.00000000000E+00 0.  1.
         22    1    1    2    0    0 -0.17088459059E+02  0.13923754174E+02  0.16420631074E+02  0.27486787520E+02  0.00000000000E+00 0. -1.
</event>
<event>
 6    1  0.1715574E-005  0.7453116E+02  0.7818608E-02  0.1346231E+00
          2   -1    0    0  502    0  0.00000000000E+00  0.00000000000E+00  0.14176334601E+03  0.14176334601E+03  0.00000000000E+00 0. -1.
          1   -1    0    0  501    0 -0.00000000000E+00 -0.00000000000E+00 -0.36795624320E+03  0.36795624320E+03  0.00000000000E+00 0.  1.
          2    1    1    2  501    0  0.44453604533E+02  0.23225984113E+02  0.73748361105E+02  0.89187387335E+02  0.00000000000E+00 0. -1.
          1    1    1    2  502    0 -0.44838237538E+02 -0.22810780070E+02 -0.28996459391E+03  0.29429621974E+03  0.00000000000E+00 0.  1.
         22    1    1    2    0    0 -0.19862670185E+02 -0.75933021398E+01 -0.64350206378E+02  0.67772656471E+02  0.00000000000E+00 0.  1.
         22    1    1    2    0    0  0.20247303191E+02  0.71780980965E+01  0.54373541990E+02  0.58463325661E+02  0.00000000000E+00 0. -1.
</event>
<event>
 6    1  0.1715574E-005  0.1207283E+03  0.7818608E-02  0.1242834E+00
          2   -1    0    0  502    0  0.00000000000E+00  0.00000000000E+00  0.79919479662E+02  0.79919479662E+02  0.00000000000E+00 0.  1.
          1   -1    0    0  501    0 -0.00000000000E+00 -0.00000000000E+00 -0.88374402387E+03  0.88374402387E+03  0.00000000000E+00 0. -1.
          2    1    1    2  501    0 -0.11436419981E+03  0.59488430657E+02 -0.73716360375E+01  0.12912158843E+03  0.00000000000E+00 0.  1.
          1    1    1    2  502    0 -0.62594108298E+01 -0.71597361991E+02 -0.24403653680E+03  0.25439967327E+03  0.00000000000E+00 0. -1.
         22    1    1    2    0    0  0.11204005180E+03  0.55248345165E+02 -0.31841965646E+03  0.34204740968E+03  0.00000000000E+00 0.  1.
         22    1    1    2    0    0  0.85835588390E+01 -0.43139413830E+02 -0.23399671491E+03  0.23809483215E+03  0.00000000000E+00 0.  1.
</event>
<event>
 6    1  0.1715574E-005  0.3450034E+02  0.7818608E-02  0.1608127E+00
          2   -1    0    0  502    0  0.00000000000E+00  0.00000000000E+00  0.17048478939E+03  0.17048478939E+03  0.00000000000E+00 0.  1.
          1   -1    0    0  501    0 -0.00000000000E+00 -0.00000000000E+00 -0.90308001981E+02  0.90308001981E+02  0.00000000000E+00 0. -1.
          2    1    1    2  501    0  0.39261787579E+02 -0.22849610388E+02  0.87078308739E+02  0.98215194912E+02  0.00000000000E+00 0.  1.
          1    1    1    2  502    0 -0.28315638089E+02  0.12738604900E+02 -0.11108954179E+02  0.32976601980E+02  0.00000000000E+00 0. -1.
         22    1    1    2    0    0  0.12680442151E+02  0.90285020421E+00  0.63686113530E+02  0.64942511564E+02  0.00000000000E+00 0.  1.
         22    1    1    2    0    0 -0.23626591640E+02  0.92081552839E+01 -0.59478680685E+02  0.64658482911E+02  0.00000000000E+00 0. -1.
</event>
<event>
 6    1  0.1715574E-005  0.1821694E+03  0.7818608E-02  0.1170765E+00
          2   -1    0    0  502    0  0.00000000000E+00  0.00000000000E+00  0.42627548635E+03  0.42627548635E+03  0.00000000000E+00 0.  1.
          1   -1    0    0  501    0 -0.00000000000E+00 -0.00000000000E+00 -0.79782319660E+02  0.79782319660E+02  0.00000000000E+00 0.  1.
          2    1    1    2  501    0 -0.26921065004E+02  0.79863615481E+01  0.14127975437E+02  0.31434462007E+02  0.00000000000E+00 0.  1.
          1    1    1    2  502    0  0.96052630019E+02  0.10112368911E+03  0.73108103270E+02  0.15747032418E+03  0.00000000000E+00 0.  1.
         22    1    1    2    0    0 -0.89342057516E+02 -0.11440201949E+03  0.25823652206E+03  0.29623626826E+03  0.00000000000E+00 0.  1.
         22    1    1    2    0    0  0.20210492501E+02  0.52919688298E+01  0.10205659183E+01  0.20916751565E+02  0.00000000000E+00 0.  1.
</event>
<event>
 6    1  0.1715574E-005  0.6982415E+02  0.7818608E-02  0.1361367E+00
          2   -1    0    0  502    0  0.00000000000E+00  0.00000000000E+00  0.20350065594E+03  0.20350065594E+03  0.00000000000E+00 0. -1.
          1   -1    0    0  501    0 -0.00000000000E+00 -0.00000000000E+00 -0.11299025318E+03  0.11299025318E+03  0.00000000000E+00 0. -1.
          2    1    1    2  501    0  0.49259488969E+02  0.30030564751E+02  0.13723042839E+03  0.14886410766E+03  0.00000000000E+00 0. -1.
          1    1    1    2  502    0 -0.21453830085E+02 -0.61061692588E+01 -0.30886706122E+02  0.38099091110E+02  0.00000000000E+00 0. -1.
         22    1    1    2    0    0 -0.36334966724E+02 -0.29388618502E+02 -0.64593750594E+02  0.79726239847E+02  0.00000000000E+00 0. -1.
         22    1    1    2    0    0  0.85293078395E+01  0.54642230097E+01  0.48760431079E+02  0.49801470504E+02  0.00000000000E+00 0.  1.
</event>
<event>
 6    1  0.1715574E-005  0.6357188E+03  0.7818608E-02  0.9836005E-01
          2   -1    0    0  502    0  0.00000000000E+00  0.00000000000E+00  0.14936021857E+04  0.14936021857E+04  0.00000000000E+00 0. -1.
          1   -1    0    0  501    0 -0.00000000000E+00 -0.00000000000E+00 -0.27151271915E+03  0.27151271915E+03  0.00000000000E+00 0. -1.
          2    1    1    2  501    0 -0.46320443684E+03 -0.20494997576E+03  0.62353644323E+03  0.80334335057E+03  0.00000000000E+00 0. -1.
          1    1    1    2  502    0  0.55422761189E+03  0.21237913791E+03  0.51332998895E+03  0.78471703279E+03  0.00000000000E+00 0. -1.
         22    1    1    2    0    0 -0.11721919055E+03 -0.27214683026E+02  0.78108920033E+02  0.14346421503E+03  0.00000000000E+00 0.  1.
         22    1    1    2    0    0  0.26196015495E+02  0.19785520869E+02  0.71141143201E+01  0.33590306435E+02  0.00000000000E+00 0. -1.
</event>
<event>
 6    1  0.1715574E-005  0.7329960E+02  0.7818608E-02  0.1475531E+00
          2   -1    0    0  502    0  0.00000000000E+00  0.00000000000E+00  0.16391067249E+03  0.16391067249E+03  0.00000000000E+00 0. -1.
          1   -1    0    0  501    0 -0.00000000000E+00 -0.00000000000E+00 -0.74619247016E+03  0.74619247016E+03  0.00000000000E+00 0. -1.
          2    1    1    2  501    0 -0.44395422275E+02  0.70178217891E+00  0.69759667585E+02  0.82691337144E+02  0.00000000000E+00 0. -1.
          1    1    1    2  502    0  0.70219210311E+02 -0.10446489090E+02 -0.68720481509E+03  0.69086201554E+03  0.00000000000E+00 0. -1.
         22    1    1    2    0    0 -0.25101844142E+02 -0.46737596289E+00  0.83473224457E+02  0.87167082209E+02  0.00000000000E+00 0. -1.
         22    1    1    2    0    0 -0.72194389327E+00  0.10212082874E+02 -0.48309874621E+02  0.49382707758E+02  0.00000000000E+00 0.  1.
</event>
<event>
 6    1  0.1715574E-005  0.3101147E+02  0.7818608E-02  0.1631669E+00
          2   -1    0    0  502    0  0.00000000000E+00  0.00000000000E+00  0.11861106174E+03  0.11861106174E+03  0.00000000000E+00 0. -1.
          1   -1    0    0  501    0 -0.00000000000E+00 -0.00000000000E+00 -0.14749040381E+03  0.14749040381E+03  0.00000000000E+00 0. -1.
          2    1    1    2  501    0  0.21697473656E+02 -0.26790579484E+02  0.39720003240E+02  0.52594621109E+02  0.00000000000E+00 0. -1.
          1    1    1    2  502    0 -0.32209567937E+02  0.23624231804E+02 -0.79047802530E+02  0.88567012369E+02  0.00000000000E+00 0. -1.
         22    1    1    2    0    0 -0.88531554339E+01 -0.10615610314E+02 -0.54265796025E+02  0.55998626427E+02  0.00000000000E+00 0.  1.
         22    1    1    2    0    0  0.19365249715E+02  0.13781957994E+02  0.64714253244E+02  0.68941205643E+02  0.00000000000E+00 0. -1.
</event>
<event>
 6    1  0.1715574E-005  0.6550203E+02  0.7818608E-02  0.1382695E+00
          2   -1    0    0  502    0  0.00000000000E+00  0.00000000000E+00  0.35129934608E+03  0.35129934608E+03  0.00000000000E+00 0.  1.
          1   -1    0    0  501    0 -0.00000000000E+00 -0.00000000000E+00 -0.50078123547E+02  0.50078123547E+02  0.00000000000E+00 0. -1.
          2    1    1    2  501    0  0.25475281312E+02  0.66170704377E+01  0.16385310779E+03  0.16595365773E+03  0.00000000000E+00 0.  1.
          1    1    1    2  502    0 -0.34027909188E+02  0.58231451510E+01 -0.17500996241E+02  0.38705199813E+02  0.00000000000E+00 0. -1.
         22    1    1    2    0    0 -0.24394561909E+01  0.24144981573E+02 -0.10901026552E+02  0.26603824191E+02  0.00000000000E+00 0.  1.
         22    1    1    2    0    0  0.10992084067E+02 -0.36585197162E+02  0.16577013754E+03  0.17011478790E+03  0.00000000000E+00 0. -1.
</event>
<event>
 6    1  0.1715574E-005  0.8069313E+02  0.7818608E-02  0.1329625E+00
          2   -1    0    0  502    0  0.00000000000E+00  0.00000000000E+00  0.56220467295E+02  0.56220467295E+02  0.00000000000E+00 0. -1.
          1   -1    0    0  501    0 -0.00000000000E+00 -0.00000000000E+00 -0.28473513712E+03  0.28473513712E+03  0.00000000000E+00 0. -1.
          2    1    1    2  501    0  0.52366687956E+01 -0.23153902074E+02  0.29302321395E+02  0.37711429573E+02  0.00000000000E+00 0. -1.
          1    1    1    2  502    0 -0.71472270104E+01  0.30608901311E+02 -0.54373943685E+02  0.62805361596E+02  0.00000000000E+00 0. -1.
         22    1    1    2    0    0  0.23212835788E+01  0.36050846087E+02 -0.19211287226E+03  0.19547994155E+03  0.00000000000E+00 0. -1.
         22    1    1    2    0    0 -0.41072536401E+00 -0.43505845324E+02 -0.11330175282E+02  0.44958871701E+02  0.00000000000E+00 0.  1.
</event>
<event>
 6    1  0.1715574E-005  0.9410210E+02  0.7818608E-02  0.1337614E+00
          2   -1    0    0  502    0  0.00000000000E+00  0.00000000000E+00  0.24933599765E+03  0.24933599765E+03  0.00000000000E+00 0. -1.
          1   -1    0    0  501    0 -0.00000000000E+00 -0.00000000000E+00 -0.19410205322E+03  0.19410205322E+03  0.00000000000E+00 0. -1.
          2    1    1    2  501    0  0.29144993351E+02 -0.74780175734E+02  0.17080136369E+03  0.18871833816E+03  0.00000000000E+00 0. -1.
          1    1    1    2  502    0  0.11511976891E+02  0.77760369881E+02 -0.97895944666E+02  0.12555005662E+03  0.00000000000E+00 0. -1.
         22    1    1    2    0    0  0.14152137997E-01 -0.14651699630E+02  0.48478712457E+02  0.50644427766E+02  0.00000000000E+00 0.  1.
         22    1    1    2    0    0 -0.40671122380E+02  0.11671505483E+02 -0.66150187046E+02  0.78525228316E+02  0.00000000000E+00 0. -1.
</event>
<event>
 6    1  0.3643240E-005  0.1418265E+03  0.7818608E-02  0.1286260E+00
          2   -1    0    0  502    0  0.00000000000E+00  0.00000000000E+00  0.16207491089E+04  0.16207491089E+04  0.00000000000E+00 0.  1.
          1   -1    0    0  501    0 -0.00000000000E+00 -0.00000000000E+00 -0.16461858600E+03  0.16461858600E+03  0.00000000000E+00 0. -1.
          2    1    1    2  501    0 -0.67311318702E+02  0.10671051657E+03  0.14151686635E+04  0.14207815786E+04  0.00000000000E+00 0.  1.
          1    1    1    2  502    0  0.83886527082E+02 -0.95251638140E+02 -0.11006251423E+03  0.16799875307E+03  0.00000000000E+00 0. -1.
         22    1    1    2    0    0 -0.30559687885E+02 -0.68163213969E+01  0.16983247801E+03  0.17269460718E+03  0.00000000000E+00 0.  1.
         22    1    1    2    0    0  0.13984479506E+02 -0.46425570377E+01 -0.18808104362E+02  0.23892756069E+02  0.00000000000E+00 0.  1.
</event>
<event>
 6    1  0.1715574E-005  0.4980609E+02  0.7818608E-02  0.1480236E+00
          2   -1    0    0  502    0  0.00000000000E+00  0.00000000000E+00  0.11888035412E+03  0.11888035412E+03  0.00000000000E+00 0. -1.
          1   -1    0    0  501    0 -0.00000000000E+00 -0.00000000000E+00 -0.22558982686E+03  0.22558982686E+03  0.00000000000E+00 0. -1.
          2    1    1    2  501    0 -0.15515472941E+02  0.33800190328E+02  0.33249801099E+02  0.49887193145E+02  0.00000000000E+00 0. -1.
          1    1    1    2  502    0  0.37428063892E+02 -0.13438865240E+02 -0.15827955691E+03  0.16319890073E+03  0.00000000000E+00 0. -1.
         22    1    1    2    0    0 -0.28399576549E+02 -0.11199562301E+02  0.71124728258E+02  0.77399567916E+02  0.00000000000E+00 0. -1.
         22    1    1    2    0    0  0.64869855981E+01 -0.91617627871E+01 -0.52804445189E+02  0.53984519181E+02  0.00000000000E+00 0.  1.
</event>
<event>
 6    1  0.1715574E-005  0.1391368E+03  0.7818608E-02  0.1220162E+00
          2   -1    0    0  502    0  0.00000000000E+00  0.00000000000E+00  0.17453804801E+03  0.17453804801E+03  0.00000000000E+00 0. -1.
          1   -1    0    0  501    0 -0.00000000000E+00 -0.00000000000E+00 -0.11858990374E+03  0.11858990374E+03  0.00000000000E+00 0.  1.
          2    1    1    2  501    0 -0.87148472590E+02 -0.16118213723E+02  0.66563730466E+02  0.11083944831E+03  0.00000000000E+00 0. -1.
          1    1    1    2  502    0  0.34326161460E+02  0.44420283889E+01  0.25026610854E+02  0.42712389627E+02  0.00000000000E+00 0.  1.
         22    1    1    2    0    0 -0.29832310287E+02  0.17457592851E+02  0.19844604794E+02  0.39856525496E+02  0.00000000000E+00 0. -1.
         22    1    1    2    0    0  0.82654621417E+02 -0.57814075170E+01 -0.55486801852E+02  0.99719588317E+02  0.00000000000E+00 0.  1.
</event>
<event>
 6    1  0.1715574E-005  0.1204146E+03  0.7818608E-02  0.1268674E+00
          2   -1    0    0  502    0  0.00000000000E+00  0.00000000000E+00  0.10376380083E+03  0.10376380083E+03  0.00000000000E+00 0. -1.
          1   -1    0    0  501    0 -0.00000000000E+00 -0.00000000000E+00 -0.30076694756E+03  0.30076694756E+03  0.00000000000E+00 0. -1.
          2    1    1    2  501    0  0.50327035536E+01  0.21031812759E+02 -0.30933669924E+02  0.37743306532E+02  0.00000000000E+00 0. -1.
          1    1    1    2  502    0  0.16093484673E+02 -0.51980977699E+02 -0.21977674421E+03  0.22641298458E+03  0.00000000000E+00 0. -1.
         22    1    1    2    0    0  0.41294234901E+01  0.15316237031E+02 -0.39490781119E+02  0.42557737822E+02  0.00000000000E+00 0. -1.
         22    1    1    2    0    0 -0.25255611717E+02  0.15632927909E+02  0.93198048518E+02  0.97816719459E+02  0.00000000000E+00 0. -1.
</event>
<event>
 6    1  0.1715574E-005  0.1219060E+03  0.7818608E-02  0.1241512E+00
          2   -1    0    0  502    0  0.00000000000E+00  0.00000000000E+00  0.93651115047E+02  0.93651115047E+02  0.00000000000E+00 0.  1.
          1   -1    0    0  501    0 -0.00000000000E+00 -0.00000000000E+00 -0.23903223763E+03  0.23903223763E+03  0.00000000000E+00 0. -1.
          2    1    1    2  501    0 -0.28374163307E+02 -0.57922391511E+01  0.16191381330E+02  0.33178366553E+02  0.00000000000E+00 0.  1.
          1    1    1    2  502    0  0.87392181700E+02 -0.25288209388E+02 -0.11703800984E+03  0.14823893788E+03  0.00000000000E+00 0. -1.
         22    1    1    2    0    0 -0.84106183947E+02  0.34553508157E+02  0.96661239824E+01  0.91439756435E+02  0.00000000000E+00 0.  1.
         22    1    1    2    0    0  0.25088165555E+02 -0.34730596172E+01 -0.54200618063E+02  0.59826291816E+02  0.00000000000E+00 0. -1.
</event>
<event>
 6    1  0.1715574E-005  0.5857974E+02  0.7818608E-02  0.1410446E+00
          2   -1    0    0  502    0  0.00000000000E+00  0.00000000000E+00  0.30080642738E+02  0.30080642738E+02  0.00000000000E+00 0. -1.
          1   -1    0    0  501    0 -0.00000000000E+00 -0.00000000000E+00 -0.29831677815E+03  0.29831677815E+03  0.00000000000E+00 0. -1.
          2    1    1    2  501    0 -0.18166243028E+02 -0.18532417273E+02 -0.97072477380E+01  0.27707283057E+02  0.00000000000E+00 0. -1.
          1    1    1    2  502    0  0.87136288194E+00  0.21887960853E+02 -0.79394322650E+02  0.82360795119E+02  0.00000000000E+00 0. -1.
         22    1    1    2    0    0 -0.16067069580E+02 -0.16140658250E+02  0.10699467130E+02  0.25162475444E+02  0.00000000000E+00 0. -1.
         22    1    1    2    0    0  0.33361949727E+02  0.12785114669E+02 -0.18983403216E+03  0.19316686727E+03  0.00000000000E+00 0. -1.
</event>
<event>
 6    1  0.1715574E-005  0.3779581E+02  0.7818608E-02  0.1546600E+00
          2   -1    0    0  502    0  0.00000000000E+00  0.00000000000E+00  0.22707878112E+03  0.22707878112E+03  0.00000000000E+00 0.  1.
          1   -1    0    0  501    0 -0.00000000000E+00 -0.00000000000E+00 -0.59906148831E+02  0.59906148831E+02  0.00000000000E+00 0.  1.
          2    1    1    2  501    0 -0.12858587520E+02  0.46264303797E+02  0.70266365321E+02  0.85106352138E+02  0.00000000000E+00 0.  1.
          1    1    1    2  502    0  0.57670827094E-01 -0.38845461690E+02 -0.20533068065E+01  0.38899733787E+02  0.00000000000E+00 0.  1.
         22    1    1    2    0    0 -0.18688319066E+02 -0.13664885034E+02 -0.25502323692E+02  0.34443444459E+02  0.00000000000E+00 0.  1.
         22    1    1    2    0    0  0.31489235759E+02  0.62460429276E+01  0.12446189747E+03  0.12853539957E+03  0.00000000000E+00 0.  1.
</event>
<event>
 6    1  0.2536950E-005  0.4886279E+02  0.7818608E-02  0.1468554E+00
          2   -1    0    0  502    0  0.00000000000E+00  0.00000000000E+00  0.98536253698E+02  0.98536253698E+02  0.00000000000E+00 0.  1.
          1   -1    0    0  501    0 -0.00000000000E+00 -0.00000000000E+00 -0.54910765360E+03  0.54910765360E+03  0.00000000000E+00 0. -1.
          2    1    1    2  501    0 -0.54994433076E+02 -0.41088153944E+02 -0.21744692241E+02  0.72010108350E+02  0.00000000000E+00 0.  1.
          1    1    1    2  502    0  0.81272812263E+02  0.38686975019E+02 -0.44207108619E+03  0.45114165990E+03  0.00000000000E+00 0. -1.
         22    1    1    2    0    0 -0.60258496330E+01  0.20090983958E+02 -0.50838753537E+02  0.54995794034E+02  0.00000000000E+00 0.  1.
         22    1    1    2    0    0 -0.20252529554E+02 -0.17689805033E+02  0.64083132066E+02  0.69496345018E+02  0.00000000000E+00 0.  1.
</event>
<event>
 6    1  0.1715574E-005  0.5796560E+02  0.7818608E-02  0.1431590E+00
          2   -1    0    0  502    0  0.00000000000E+00  0.00000000000E+00  0.14528775299E+03  0.14528775299E+03  0.00000000000E+00 0. -1.
          1   -1    0    0  501    0 -0.00000000000E+00 -0.00000000000E+00 -0.75103294780E+02  0.75103294780E+02  0.00000000000E+00 0.  1.
          2    1    1    2  501    0 -0.22212319725E+02 -0.33500500868E+01  0.32070711487E+02  0.39155338313E+02  0.00000000000E+00 0. -1.
          1    1    1    2  502    0  0.15434048813E+02 -0.17387647195E+02 -0.29100049437E+02  0.37247188015E+02  0.00000000000E+00 0.  1.
         22    1    1    2    0    0 -0.31126103868E+01  0.31925589815E+02  0.10157666798E+03  0.10652112986E+03  0.00000000000E+00 0. -1.
         22    1    1    2    0    0  0.98908812995E+01 -0.11187892533E+02 -0.34362871821E+02  0.37467391582E+02  0.00000000000E+00 0. -1.
</event>
<event>
 6    1  0.1715574E-005  0.1277620E+03  0.7818608E-02  0.1252928E+00
          2   -1    0    0  502    0  0.00000000000E+00  0.00000000000E+00  0.20799849350E+03  0.20799849350E+03  0.00000000000E+00 0.  1.
          1   -1    0    0  501    0 -0.00000000000E+00 -0.00000000000E+00 -0.10764229247E+03  0.10764229247E+03  0.00000000000E+00 0.  1.
          2    1    1    2  501    0 -0.17365059121E+00  0.31397773366E+02 -0.81545929312E+01  0.32439909259E+02  0.00000000000E+00 0.  1.
          1    1    1    2  502    0  0.10808700545E+02 -0.53505761762E+02 -0.53859850670E+02  0.76684927224E+02  0.00000000000E+00 0.  1.
         22    1    1    2    0    0 -0.30234536838E+02  0.54817692082E+01  0.17514138164E+03  0.17781642380E+03  0.00000000000E+00 0.  1.
         22    1    1    2    0    0  0.19599486884E+02  0.16626219187E+02 -0.12770737011E+02  0.28699525682E+02  0.00000000000E+00 0.  1.
</event>
<event>
 6    1  0.1715574E-005  0.1096726E+03  0.7818608E-02  0.1288035E+00
          2   -1    0    0  502    0  0.00000000000E+00  0.00000000000E+00  0.62493356107E+03  0.62493356107E+03  0.00000000000E+00 0. -1.
          1   -1    0    0  501    0 -0.00000000000E+00 -0.00000000000E+00 -0.47167810527E+02  0.47167810527E+02  0.00000000000E+00 0. -1.
          2    1    1    2  501    0 -0.69308791823E+02 -0.26252126944E+02  0.29259415378E+03  0.30183475880E+03  0.00000000000E+00 0. -1.
          1    1    1    2  502    0  0.71264501098E+02  0.69638511934E+02  0.15585621919E+03  0.18498462780E+03  0.00000000000E+00 0. -1.
         22    1    1    2    0    0  0.38816850851E+02 -0.52745380326E+02  0.20374438402E+02  0.68585281190E+02  0.00000000000E+00 0. -1.
         22    1    1    2    0    0 -0.40772560126E+02  0.93589953364E+01  0.10894093917E+03  0.11669670381E+03  0.00000000000E+00 0. -1.
</event>
<event>
 6    1  0.1715574E-005  0.1033024E+03  0.7818608E-02  0.1274818E+00
          2   -1    0    0  502    0  0.00000000000E+00  0.00000000000E+00  0.96743687296E+03  0.96743687296E+03  0.00000000000E+00 0.  1.
          1   -1    0    0  501    0 -0.00000000000E+00 -0.00000000000E+00 -0.43200284109E+02  0.43200284109E+02  0.00000000000E+00 0.  1.
          2    1    1    2  501    0  0.11761309420E+03  0.71903502629E+02  0.29819486896E+03  0.32851656502E+03  0.00000000000E+00 0.  1.
          1    1    1    2  502    0 -0.76380321138E+02  0.20813172457E+02  0.78617963901E+02  0.11157027316E+03  0.00000000000E+00 0.  1.
         22    1    1    2    0    0 -0.22950078277E+02 -0.99241940157E+02  0.54038481988E+03  0.54990128418E+03  0.00000000000E+00 0.  1.
         22    1    1    2    0    0 -0.18282694790E+02  0.65252650710E+01  0.70389361062E+01  0.20649034712E+02  0.00000000000E+00 0. -1.
</event>
<event>
 6    1  0.1715574E-005  0.6462882E+02  0.7818608E-02  0.1391932E+00
          2   -1    0    0  502    0  0.00000000000E+00  0.00000000000E+00  0.22612570323E+03  0.22612570323E+03  0.00000000000E+00 0. -1.
          1   -1    0    0  501    0 -0.00000000000E+00 -0.00000000000E+00 -0.15825565780E+03  0.15825565780E+03  0.00000000000E+00 0. -1.
          2    1    1    2  501    0 -0.10498601682E+03  0.50471791978E+02  0.43969506077E+02  0.12451017218E+03  0.00000000000E+00 0. -1.
          1    1    1    2  502    0  0.11901357797E+03 -0.50891121604E+02  0.39715639683E+02  0.13539375922E+03  0.00000000000E+00 0. -1.
         22    1    1    2    0    0  0.91984955509E+01  0.26241392973E+02  0.45897075978E+02  0.53663438288E+02  0.00000000000E+00 0. -1.
         22    1    1    2    0    0 -0.23226056709E+02 -0.25822063348E+02 -0.61712176307E+02  0.70813991345E+02  0.00000000000E+00 0. -1.
</event>
<event>
 6    1  0.1715574E-005  0.7705679E+02  0.7818608E-02  0.1343369E+00
          2   -1    0    0  502    0  0.00000000000E+00  0.00000000000E+00  0.22625030053E+03  0.22625030053E+03  0.00000000000E+00 0. -1.
          1   -1    0    0  501    0 -0.00000000000E+00 -0.00000000000E+00 -0.64232161003E+02  0.64232161003E+02  0.00000000000E+00 0.  1.
          2    1    1    2  501    0 -0.30715958965E+02 -0.16607599893E+02  0.96030378751E+02  0.10218177994E+03  0.00000000000E+00 0. -1.
          1    1    1    2  502    0  0.25710515662E+02 -0.13516652449E+02 -0.15848491331E+02  0.33089351558E+02  0.00000000000E+00 0.  1.
         22    1    1    2    0    0 -0.34647165077E+02  0.35595692169E+01  0.98642052845E+02  0.10461047352E+03  0.00000000000E+00 0. -1.
         22    1    1    2    0    0  0.39652608380E+02  0.26564683126E+02 -0.16805800740E+02  0.50600856508E+02  0.00000000000E+00 0.  1.
</event>
<event>
 6    1  0.1715574E-005  0.6605623E+02  0.7818608E-02  0.1397481E+00
          2   -1    0    0  502    0  0.00000000000E+00  0.00000000000E+00  0.10834373340E+04  0.10834373340E+04  0.00000000000E+00 0.  1.
          1   -1    0    0  501    0 -0.00000000000E+00 -0.00000000000E+00 -0.31223953412E+03  0.31223953412E+03  0.00000000000E+00 0. -1.
          2    1    1    2  501    0 -0.53971800766E+02  0.15119819587E+02  0.96120978392E+03  0.96284256913E+03  0.00000000000E+00 0.  1.
          1    1    1    2  502    0  0.27542598889E+02 -0.45992463930E+02 -0.27095717481E+03  0.27620950757E+03  0.00000000000E+00 0. -1.
         22    1    1    2    0    0  0.20439314308E+02  0.40331848503E+02  0.11351264960E+03  0.12218651804E+03  0.00000000000E+00 0. -1.
         22    1    1    2    0    0  0.59898875685E+01 -0.94592041599E+01 -0.32567458853E+02  0.34438273368E+02  0.00000000000E+00 0.  1.
</event>
<event>
 6    1  0.1715574E-005  0.3810665E+02  0.7818608E-02  0.1592749E+00
          2   -1    0    0  502    0  0.00000000000E+00  0.00000000000E+00  0.21056104307E+03  0.21056104307E+03  0.00000000000E+00 0. -1.
          1   -1    0    0  501    0 -0.00000000000E+00 -0.00000000000E+00 -0.40253215167E+03  0.40253215167E+03  0.00000000000E+00 0.  1.
          2    1    1    2  501    0 -0.23408034837E+02  0.11168567390E+02  0.15151861326E+03  0.15372235737E+03  0.00000000000E+00 0. -1.
          1    1    1    2  502    0  0.26694622071E+02  0.20688778214E+01 -0.33442224886E+03  0.33549236002E+03  0.00000000000E+00 0.  1.
         22    1    1    2    0    0  0.87328053042E+01 -0.12945120661E+02 -0.64907166075E+02  0.66759106085E+02  0.00000000000E+00 0.  1.
         22    1    1    2    0    0 -0.12019392538E+02 -0.29232455045E+00  0.55839693072E+02  0.57119371259E+02  0.00000000000E+00 0. -1.
</event>
<event>
 6    1  0.1715574E-005  0.8059288E+02  0.7818608E-02  0.1370531E+00
          2   -1    0    0  502    0  0.00000000000E+00  0.00000000000E+00  0.97802909906E+02  0.97802909906E+02  0.00000000000E+00 0. -1.
          1   -1    0    0  501    0 -0.00000000000E+00 -0.00000000000E+00 -0.12725705461E+03  0.12725705461E+03  0.00000000000E+00 0. -1.
          2    1    1    2  501    0 -0.20825609473E+02 -0.20187523627E+01  0.27099642018E+02  0.34236997072E+02  0.00000000000E+00 0. -1.
          1    1    1    2  502    0 -0.20397149849E+02  0.96374498331E+01 -0.49731455889E+02  0.54608990707E+02  0.00000000000E+00 0. -1.
         22    1    1    2    0    0  0.54450311402E+02 -0.90999142386E+01 -0.59919542218E+02  0.81473900057E+02  0.00000000000E+00 0. -1.
         22    1    1    2    0    0 -0.13227552081E+02  0.14812167682E+01  0.53097211389E+02  0.54740076675E+02  0.00000000000E+00 0. -1.
</event>
<event>
 6    1  0.1715574E-005  0.2112145E+03  0.7818608E-02  0.1142673E+00
          2   -1    0    0  502    0  0.00000000000E+00  0.00000000000E+00  0.26242615816E+02  0.26242615816E+02  0.00000000000E+00 0. -1.
          1   -1    0    0  501    0 -0.00000000000E+00 -0.00000000000E+00 -0.16563707140E+04  0.16563707140E+04  0.00000000000E+00 0. -1.
          2    1    1    2  501    0  0.17550130802E+02  0.17830498842E+03 -0.61646592620E+03  0.64197423168E+03  0.00000000000E+00 0. -1.
          1    1    1    2  502    0  0.15413483922E+02 -0.18334908858E+02 -0.46074421748E+02  0.51928765717E+02  0.00000000000E+00 0. -1.
         22    1    1    2    0    0 -0.51289328218E+02 -0.17003711442E+03 -0.91576834926E+03  0.93283164878E+03  0.00000000000E+00 0. -1.
         22    1    1    2    0    0  0.18325713494E+02  0.10067034862E+02 -0.51819400975E+02  0.55878683623E+02  0.00000000000E+00 0.  1.
</event>
<event>
 6    1  0.1715574E-005  0.1129838E+03  0.7818608E-02  0.1344005E+00
          2   -1    0    0  502    0  0.00000000000E+00  0.00000000000E+00  0.32704759236E+03  0.32704759236E+03  0.00000000000E+00 0. -1.
          1   -1    0    0  501    0 -0.00000000000E+00 -0.00000000000E+00 -0.13140909735E+03  0.13140909735E+03  0.00000000000E+00 0. -1.
          2    1    1    2  501    0 -0.56294728971E+02 -0.10618600968E+03  0.20010450954E+03  0.23342317772E+03  0.00000000000E+00 0. -1.
          1    1    1    2  502    0  0.20238479407E+02  0.58684474441E+02 -0.49539832808E+02  0.79420769473E+02  0.00000000000E+00 0. -1.
         22    1    1    2    0    0 -0.57173135789E+01  0.21127666399E+02  0.81400598303E+02  0.84291893833E+02  0.00000000000E+00 0. -1.
         22    1    1    2    0    0  0.41773563144E+02  0.26373868838E+02 -0.36326780022E+02  0.61320848673E+02  0.00000000000E+00 0. -1.
</event>
<event>
 6    1  0.1715574E-005  0.8529246E+02  0.7818608E-02  0.1326550E+00
          2   -1    0    0  502    0  0.00000000000E+00  0.00000000000E+00  0.51847858162E+03  0.51847858162E+03  0.00000000000E+00 0.  1.
          1   -1    0    0  501    0 -0.00000000000E+00 -0.00000000000E+00 -0.77622836799E+02  0.77622836799E+02  0.00000000000E+00 0.  1.
          2    1    1    2  501    0  0.11397738790E+02 -0.99706052983E+02  0.22713082994E+03  0.24831355049E+03  0.00000000000E+00 0.  1.
          1    1    1    2  502    0 -0.96906532019E+02  0.74870515725E+02  0.75692215027E+02  0.14396451469E+03  0.00000000000E+00 0.  1.
         22    1    1    2    0    0  0.59494154333E+02 -0.20467982942E+02  0.13790769233E+03  0.15158174142E+03  0.00000000000E+00 0.  1.
         22    1    1    2    0    0  0.26014638895E+02  0.45303520200E+02  0.12500752486E+00  0.52241611827E+02  0.00000000000E+00 0.  1.
</event>
<event>
 6    1  0.1715574E-005  0.9649176E+02  0.7818608E-02  0.1288523E+00
          2   -1    0    0  502    0  0.00000000000E+00  0.00000000000E+00  0.38305387376E+03  0.38305387376E+03  0.00000000000E+00 0.  1.
          1   -1    0    0  501    0 -0.00000000000E+00 -0.00000000000E+00 -0.72650400176E+03  0.72650400176E+03  0.00000000000E+00 0. -1.
          2    1    1    2  501    0  0.33662015849E+02  0.73441895802E+02  0.34867579079E+03  0.35791290903E+03  0.00000000000E+00 0.  1.
          1    1    1    2  502    0 -0.33965823628E+02 -0.62513116001E+02 -0.58460125766E+03  0.58891442273E+03  0.00000000000E+00 0. -1.
         22    1    1    2    0    0 -0.47162182562E+01 -0.22562790988E+02 -0.13262506898E+03  0.13461326522E+03  0.00000000000E+00 0. -1.
         22    1    1    2    0    0  0.50200260352E+01  0.11634011187E+02  0.25100407851E+02  0.28117278531E+02  0.00000000000E+00 0. -1.
</event>
<event>
 6    1  0.1715574E-005  0.8845717E+02  0.7818608E-02  0.1313563E+00
          2   -1    0    0  502    0  0.00000000000E+00  0.00000000000E+00  0.81711063838E+02  0.81711063838E+02  0.00000000000E+00 0.  1.
          1   -1    0    0  501    0 -0.00000000000E+00 -0.00000000000E+00 -0.10800166174E+03  0.10800166174E+03  0.00000000000E+00 0.  1.
          2    1    1    2  501    0 -0.20121140909E+02 -0.13507469564E+02 -0.85646700057E+01  0.25703416462E+02  0.00000000000E+00 0.  1.
          1    1    1    2  502    0  0.25197463218E+02  0.18368750083E+02  0.85682813670E+01  0.32337881467E+02  0.00000000000E+00 0.  1.
         22    1    1    2    0    0 -0.56932783184E+02 -0.53089001413E+01  0.21557802575E+02  0.61108633380E+02  0.00000000000E+00 0. -1.
         22    1    1    2    0    0  0.51856460875E+02  0.44761962237E+00 -0.47852011835E+02  0.70562794265E+02  0.00000000000E+00 0.  1.
</event>
<event>
 6    1  0.1715574E-005  0.5693037E+02  0.7818608E-02  0.1484206E+00
          2   -1    0    0  502    0  0.00000000000E+00  0.00000000000E+00  0.66805118915E+02  0.66805118915E+02  0.00000000000E+00 0. -1.
          1   -1    0    0  501    0 -0.00000000000E+00 -0.00000000000E+00 -0.22679470997E+03  0.22679470997E+03  0.00000000000E+00 0. -1.
          2    1    1    2  501    0  0.37320940755E+02 -0.19240018446E+02  0.13806345150E+02  0.44200068949E+02  0.00000000000E+00 0. -1.
          1    1    1    2  502    0 -0.30607858065E+02  0.12574929175E+02 -0.98031640216E+02  0.10346580258E+03  0.00000000000E+00 0. -1.
         22    1    1    2    0    0 -0.24894683107E+02  0.10120518527E+00 -0.10663953517E+03  0.10950683062E+03  0.00000000000E+00 0. -1.
         22    1    1    2    0    0  0.18181600417E+02  0.65638840858E+01  0.30875239186E+02  0.36427126744E+02  0.00000000000E+00 0. -1.
</event>
<event>
 6    1  0.1715574E-005  0.1184848E+03  0.7818608E-02  0.1248158E+00
          2   -1    0    0  502    0  0.00000000000E+00  0.00000000000E+00  0.18951479102E+03  0.18951479102E+03  0.00000000000E+00 0.  1.
          1   -1    0    0  501    0 -0.00000000000E+00 -0.00000000000E+00 -0.89532540909E+02  0.89532540909E+02  0.00000000000E+00 0.  1.
          2    1    1    2  501    0  0.67853887156E+02 -0.23543980220E+02  0.54984112553E+02  0.90452869717E+02  0.00000000000E+00 0.  1.
          1    1    1    2  502    0 -0.55131633572E+02 -0.25186471880E+01  0.99247251902E+01  0.56074421746E+02  0.00000000000E+00 0.  1.
         22    1    1    2    0    0  0.37028090276E+02 -0.50835599345E+01  0.58419010568E+02  0.69352021217E+02  0.00000000000E+00 0.  1.
         22    1    1    2    0    0 -0.49750343859E+02  0.31146187343E+02 -0.23345598204E+02  0.63168019247E+02  0.00000000000E+00 0.  1.
</event>
<event>
 6    1  0.1715574E-005  0.4749413E+02  0.7818608E-02  0.1460094E+00
          2   -1    0    0  502    0  0.00000000000E+00  0.00000000000E+00  0.14928496001E+03  0.14928496001E+03  0.00000000000E+00 0. -1.
          1   -1    0    0  501    0 -0.00000000000E+00 -0.00000000000E+00 -0.12808988594E+03  0.12808988594E+03  0.00000000000E+00 0.  1.
          2    1    1    2  501    0  0.17735894879E+02 -0.20012338430E+02  0.99826982488E+02  0.10334641788E+03  0.00000000000E+00 0. -1.
          1    1    1    2  502    0 -0.14935264931E+02  0.14657250512E+02 -0.42641506538E+02  0.47499423269E+02  0.00000000000E+00 0.  1.
         22    1    1    2    0    0 -0.12805548528E+02  0.21758393657E+02 -0.77112151160E+02  0.81139963176E+02  0.00000000000E+00 0. -1.
         22    1    1    2    0    0  0.10004918580E+02 -0.16403305739E+02  0.41121749287E+02  0.45389041622E+02  0.00000000000E+00 0. -1.
</event>
<event>
 6    1  0.2281120E-005  0.1116960E+03  0.7818608E-02  0.1355069E+00
          2   -1    0    0  502    0  0.00000000000E+00  0.00000000000E+00  0.22458532241E+03  0.22458532241E+03  0.00000000000E+00 0.  1.
          1   -1    0    0  501    0 -0.00000000000E+00 -0.00000000000E+00 -0.26446644501E+03  0.26446644501E+03  0.00000000000E+00 0.  1.
          2    1    1    2  501    0  0.66495832201E+02 -0.69971618222E+02  0.15839044994E+03  0.18548654315E+03  0.00000000000E+00 0.  1.
          1    1    1    2  502    0 -0.68695859085E+02  0.60254435130E+02 -0.13762748201E+03  0.16520000549E+03  0.00000000000E+00 0.  1.
         22    1    1    2    0    0 -0.13889290244E+02  0.12601079169E+02 -0.96845534624E+02  0.98644600239E+02  0.00000000000E+00 0. -1.
         22    1    1    2    0    0  0.16089317128E+02 -0.28838960761E+01  0.36201444101E+02  0.39720618540E+02  0.00000000000E+00 0. -1.
</event>
<event>
 6    1  0.1715574E-005  0.2432293E+03  0.7818608E-02  0.1118389E+00
          2   -1    0    0  502    0  0.00000000000E+00  0.00000000000E+00  0.40482290463E+03  0.40482290463E+03  0.00000000000E+00 0.  1.
          1   -1    0    0  501    0 -0.00000000000E+00 -0.00000000000E+00 -0.16331008609E+03  0.16331008609E+03  0.00000000000E+00 0.  1.
          2    1    1    2  501    0 -0.92550237297E+02 -0.86697909425E+02  0.84103749282E+02  0.15216936146E+03  0.00000000000E+00 0.  1.
          1    1    1    2  502    0  0.17214287703E+03  0.12915075995E+03  0.28081809643E+02  0.21702920758E+03  0.00000000000E+00 0.  1.
         22    1    1    2    0    0 -0.96326944198E+02 -0.55976320883E+02  0.13655518929E+03  0.17623719358E+03  0.00000000000E+00 0.  1.
         22    1    1    2    0    0  0.16734304463E+02  0.13523470354E+02 -0.72279296736E+01  0.22697228105E+02  0.00000000000E+00 0. -1.
</event>
<event>
 6    1  0.1715574E-005  0.1016874E+03  0.7818608E-02  0.1278854E+00
          2   -1    0    0  502    0  0.00000000000E+00  0.00000000000E+00  0.30080699186E+03  0.30080699186E+03  0.00000000000E+00 0. -1.
          1   -1    0    0  501    0 -0.00000000000E+00 -0.00000000000E+00 -0.10214681049E+03  0.10214681049E+03  0.00000000000E+00 0. -1.
          2    1    1    2  501    0  0.81708500028E+02  0.32584503119E+01  0.19424192968E+03  0.21075299220E+03  0.00000000000E+00 0. -1.
          1    1    1    2  502    0 -0.42023146387E+02  0.17977831763E+02 -0.24497434679E+02  0.51858187136E+02  0.00000000000E+00 0. -1.
         22    1    1    2    0    0  0.11771375910E+02 -0.16471433381E+00  0.70141680983E+02  0.71122765924E+02  0.00000000000E+00 0. -1.
         22    1    1    2    0    0 -0.51456729551E+02 -0.21071567741E+02 -0.41225994615E+02  0.69219857087E+02  0.00000000000E+00 0. -1.
</event>
<event>
 6    1  0.1715574E-005  0.1018123E+03  0.7818608E-02  0.1362393E+00
          2   -1    0    0  502    0  0.00000000000E+00  0.00000000000E+00  0.31458458153E+03  0.31458458153E+03  0.00000000000E+00 0. -1.
          1   -1    0    0  501    0 -0.00000000000E+00 -0.00000000000E+00 -0.16371064986E+03  0.16371064986E+03  0.00000000000E+00 0.  1.
          2    1    1    2  501    0 -0.38058537882E+01  0.57668703941E+02  0.15455431145E+03  0.16500666388E+03  0.00000000000E+00 0. -1.
          1    1    1    2  502    0  0.15824634324E+02 -0.80513476237E+02 -0.11819631116E+03  0.14388608995E+03  0.00000000000E+00 0.  1.
         22    1    1    2    0    0  0.20320912229E+02 -0.81368520717E+01 -0.18744064550E+02  0.28818185080E+02  0.00000000000E+00 0. -1.
         22    1    1    2    0    0 -0.32339692765E+02  0.30981624368E+02  0.13325999594E+03  0.14058429249E+03  0.00000000000E+00 0. -1.
</event>
<event>
 6    1  0.1715574E-005  0.1598075E+03  0.7818608E-02  0.1189481E+00
          2   -1    0    0  502    0  0.00000000000E+00  0.00000000000E+00  0.26876190806E+03  0.26876190806E+03  0.00000000000E+00 0. -1.
          1   -1    0    0  501    0 -0.00000000000E+00 -0.00000000000E+00 -0.40819445218E+03  0.40819445218E+03  0.00000000000E+00 0.  1.
          2    1    1    2  501    0 -0.26682998721E+02 -0.43130731127E+02  0.10280588422E+03  0.11463547539E+03  0.00000000000E+00 0. -1.
          1    1    1    2  502    0  0.93676659371E+02  0.11314618218E+03 -0.34201401243E+03  0.37222434063E+03  0.00000000000E+00 0.  1.
         22    1    1    2    0    0  0.78859204895E+00  0.10892201480E+02 -0.24633669416E+02  0.26945864235E+02  0.00000000000E+00 0.  1.
         22    1    1    2    0    0 -0.67782252700E+02 -0.80907652537E+02  0.12440925352E+03  0.16315067999E+03  0.00000000000E+00 0. -1.
</event>
<event>
 6    1  0.1715574E-005  0.1193850E+03  0.7818608E-02  0.1357332E+00
          2   -1    0    0  502    0  0.00000000000E+00  0.00000000000E+00  0.78176845490E+03  0.78176845490E+03  0.00000000000E+00 0. -1.
          1   -1    0    0  501    0 -0.00000000000E+00 -0.00000000000E+00 -0.22584279632E+03  0.22584279632E+03  0.00000000000E+00 0. -1.
          2    1    1    2  501    0  0.51167240394E+02  0.89857565869E+02  0.72783627228E+03  0.73514495705E+03  0.00000000000E+00 0. -1.
          1    1    1    2  502    0 -0.42792878485E+02 -0.44384838697E+02 -0.10739778635E+03  0.12383670242E+03  0.00000000000E+00 0. -1.
         22    1    1    2    0    0  0.11790867958E+02  0.89154028208E+01  0.32440055445E+02  0.35649209976E+02  0.00000000000E+00 0.  1.
         22    1    1    2    0    0 -0.20165229867E+02 -0.54388129993E+02 -0.96952882807E+02  0.11298038177E+03  0.00000000000E+00 0.  1.
</event>
<event>
 6    1  0.1715574E-005  0.2012722E+03  0.7818608E-02  0.1149112E+00
          2   -1    0    0  502    0  0.00000000000E+00  0.00000000000E+00  0.32576031421E+03  0.32576031421E+03  0.00000000000E+00 0.  1.
          1   -1    0    0  501    0 -0.00000000000E+00 -0.00000000000E+00 -0.22592156432E+03  0.22592156432E+03  0.00000000000E+00 0. -1.
          2    1    1    2  501    0  0.48926155554E+02 -0.14400535167E+03  0.20371206994E+03  0.25422414804E+03  0.00000000000E+00 0.  1.
          1    1    1    2  502    0 -0.59050876186E+02  0.12647034885E+03 -0.93326521646E+02  0.16790352813E+03  0.00000000000E+00 0. -1.
         22    1    1    2    0    0  0.38139113914E+01 -0.43827970085E+02  0.32187440570E+02  0.54511175114E+02  0.00000000000E+00 0.  1.
         22    1    1    2    0    0  0.63108092402E+01  0.61362972911E+02 -0.42734238970E+02  0.75043027245E+02  0.00000000000E+00 0. -1.
</event>
<event>
 6    1  0.1715574E-005  0.1069578E+03  0.7818608E-02  0.1360055E+00
          2   -1    0    0  502    0  0.00000000000E+00  0.00000000000E+00  0.97851432586E+02  0.97851432586E+02  0.00000000000E+00 0. -1.
          1   -1    0    0  501    0 -0.00000000000E+00 -0.00000000000E+00 -0.34323497007E+03  0.34323497007E+03  0.00000000000E+00 0. -1.
          2    1    1    2  501    0  0.85824737982E+02 -0.24547403850E+02 -0.12274868794E+02  0.90106232245E+02  0.00000000000E+00 0. -1.
          1    1    1    2  502    0 -0.71432991271E+02  0.11231318844E+02 -0.20782456211E+03  0.22004513942E+03  0.00000000000E+00 0. -1.
         22    1    1    2    0    0 -0.33968370784E+02  0.14828775815E+02 -0.71602525353E+02  0.80626698077E+02  0.00000000000E+00 0. -1.
         22    1    1    2    0    0  0.19576624074E+02 -0.15126908083E+01  0.46318418771E+02  0.50308332919E+02  0.00000000000E+00 0. -1.
</event>
<event>
 6    1  0.3171332E-005  0.4394494E+02  0.7818608E-02  0.1513058E+00
          2   -1    0    0  502    0  0.00000000000E+00  0.00000000000E+00  0.12591938439E+04  0.12591938439E+04  0.00000000000E+00 0. -1.
          1   -1    0    0  501    0 -0.00000000000E+00 -0.00000000000E+00 -0.23649343625E+03  0.23649343625E+03  0.00000000000E+00 0. -1.
          2    1    1    2  501    0 -0.15994633304E+02  0.96285365290E+02  0.11485050404E+04  0.11526450137E+04  0.00000000000E+00 0. -1.
          1    1    1    2  502    0 -0.44812360888E+01 -0.11082305311E+03 -0.17792025597E+03  0.20966031589E+03  0.00000000000E+00 0. -1.
         22    1    1    2    0    0  0.11186745746E+02 -0.15108060703E+00 -0.39026068503E+02  0.40598031092E+02  0.00000000000E+00 0. -1.
         22    1    1    2    0    0  0.92891236469E+01  0.14688768427E+02  0.91141691694E+02  0.92783919409E+02  0.00000000000E+00 0. -1.
</event>
<event>
 6    1  0.1715574E-005  0.2934118E+02  0.7818608E-02  0.1607668E+00
          2   -1    0    0  502    0  0.00000000000E+00  0.00000000000E+00  0.11157971488E+03  0.11157971488E+03  0.00000000000E+00 0.  1.
          1   -1    0    0  501    0 -0.00000000000E+00 -0.00000000000E+00 -0.11693898542E+03  0.11693898542E+03  0.00000000000E+00 0. -1.
          2    1    1    2  501    0  0.43159498464E+02 -0.14634544885E+02  0.29584309768E+02  0.54333632274E+02  0.00000000000E+00 0.  1.
          1    1    1    2  502    0 -0.44359499582E+02  0.22554248766E+02 -0.67019910190E+01  0.50213305250E+02  0.00000000000E+00 0. -1.
         22    1    1    2    0    0 -0.15853725118E+02 -0.61938453660E+01 -0.73568679334E+02  0.75511952031E+02  0.00000000000E+00 0. -1.
         22    1    1    2    0    0  0.17053726237E+02 -0.17258585144E+01  0.45327090038E+02  0.48459810745E+02  0.00000000000E+00 0. -1.
</event>
<event>
 6    1  0.1715574E-005  0.1174100E+03  0.7818608E-02  0.1281249E+00
          2   -1    0    0  502    0  0.00000000000E+00  0.00000000000E+00  0.88014858341E+02  0.88014858341E+02  0.00000000000E+00 0. -1.
          1   -1    0    0  501    0 -0.00000000000E+00 -0.00000000000E+00 -0.62477729763E+03  0.62477729763E+03  0.00000000000E+00 0.  1.
          2    1    1    2  501    0  0.15770755318E+02  0.11547103732E+03  0.12816464911E+02  0.11724563513E+03  0.00000000000E+00 0. -1.
          1    1    1    2  502    0  0.31787640382E+02 -0.48249624844E+02 -0.29889688285E+03  0.30443033186E+03  0.00000000000E+00 0.  1.
         22    1    1    2    0    0 -0.59903015673E+02 -0.96546755561E+01 -0.40763291019E+02  0.73097400374E+02  0.00000000000E+00 0. -1.
         22    1    1    2    0    0  0.12344619973E+02 -0.57566736925E+02 -0.20991873033E+03  0.21801878861E+03  0.00000000000E+00 0.  1.
</event>
<event>
 6    1  0.1715574E-005  0.1948047E+03  0.7818608E-02  0.1155354E+00
          2   -1    0    0  502    0  0.00000000000E+00  0.00000000000E+00  0.68256229199E+02  0.68256229199E+02  0.00000000000E+00 0. -1.
          1   -1    0    0  501    0 -0.00000000000E+00 -0.00000000000E+00 -0.70837595377E+03  0.70837595377E+03  0.00000000000E+00 0. -1.
          2    1    1    2  501    0 -0.22809492830E+02 -0.25751092980E+02 -0.13873620150E+03  0.14293748759E+03  0.00000000000E+00 0. -1.
          1    1    1    2  502    0  0.74081207810E+02  0.14337507936E+03 -0.91137264307E+02  0.18533871608E+03  0.00000000000E+00 0. -1.
         22    1    1    2    0    0  0.23204867004E+02  0.14666574034E+02 -0.43599390120E+02  0.51521656275E+02  0.00000000000E+00 0.  1.
         22    1    1    2    0    0 -0.74476581983E+02 -0.13229056042E+03 -0.36664686864E+03  0.39683432302E+03  0.00000000000E+00 0.  1.
</event>
<event>
 6    1  0.1715574E-005  0.8585878E+02  0.7818608E-02  0.1313478E+00
          2   -1    0    0  502    0  0.00000000000E+00  0.00000000000E+00  0.73392987681E+02  0.73392987681E+02  0.00000000000E+00 0.  1.
          1   -1    0    0  501    0 -0.00000000000E+00 -0.00000000000E+00 -0.47310653382E+03  0.47310653382E+03  0.00000000000E+00 0. -1.
          2    1    1    2  501    0  0.32896010024E+02 -0.15805201645E+02  0.12494251067E+02  0.38575357215E+02  0.00000000000E+00 0.  1.
          1    1    1    2  502    0 -0.49246853453E+02  0.38376380169E+02 -0.36999279559E+03  0.37522349063E+03  0.00000000000E+00 0. -1.
         22    1    1    2    0    0 -0.11310739967E+02  0.17520577146E+02 -0.72436244614E+02  0.75378465068E+02  0.00000000000E+00 0. -1.
         22    1    1    2    0    0  0.27661583396E+02 -0.40091755669E+02  0.30221243002E+02  0.57322208586E+02  0.00000000000E+00 0.  1.
</event>
<event>
 6    1  0.1715574E-005  0.4096125E+03  0.7818608E-02  0.1091771E+00
          2   -1    0    0  502    0  0.00000000000E+00  0.00000000000E+00  0.21078792337E+04  0.21078792337E+04  0.00000000000E+00 0. -1.
          1   -1    0    0  501    0 -0.00000000000E+00 -0.00000000000E+00 -0.24773278781E+03  0.24773278781E+03  0.00000000000E+00 0. -1.
          2    1    1    2  501    0  0.44156195931E+03 -0.95991644661E+02  0.83338056131E+03  0.94800554836E+03  0.00000000000E+00 0. -1.
          1    1    1    2  502    0 -0.35418377079E+03  0.13211531730E+03  0.11465707459E+04  0.12072800321E+04  0.00000000000E+00 0. -1.
         22    1    1    2    0    0 -0.95881914571E+02 -0.25141943059E+02 -0.14257982334E+03  0.17365040992E+03  0.00000000000E+00 0. -1.
         22    1    1    2    0    0  0.85037260526E+01 -0.10981729576E+02  0.22774962059E+02  0.26676031152E+02  0.00000000000E+00 0.  1.
</event>
<event>
 6    1  0.1715574E-005  0.1585516E+03  0.7818608E-02  0.1297741E+00
          2   -1    0    0  502    0  0.00000000000E+00  0.00000000000E+00  0.33704989183E+03  0.33704989183E+03  0.00000000000E+00 0.  1.
          1   -1    0    0  501    0 -0.00000000000E+00 -0.00000000000E+00 -0.45736730371E+03  0.45736730371E+03  0.00000000000E+00 0.  1.
          2    1    1    2  501    0 -0.11824451687E+03  0.76706603326E+02  0.29203367223E+03  0.32426738116E+03  0.00000000000E+00 0.  1.
          1    1    1    2  502    0  0.82888084033E+02 -0.43306732804E+02 -0.19463341144E+03  0.21593534317E+03  0.00000000000E+00 0.  1.
         22    1    1    2    0    0 -0.17334869690E+02 -0.51601110917E+01  0.86766653230E+01  0.20060133967E+02  0.00000000000E+00 0.  1.
         22    1    1    2    0    0  0.52691302524E+02 -0.28239759430E+02 -0.22639433800E+03  0.23415433725E+03  0.00000000000E+00 0. -1.
</event>
<event>
 6    1  0.1715574E-005  0.2637729E+02  0.7818608E-02  0.1643972E+00
          2   -1    0    0  502    0  0.00000000000E+00  0.00000000000E+00  0.17281146407E+03  0.17281146407E+03  0.00000000000E+00 0. -1.
          1   -1    0    0  501    0 -0.00000000000E+00 -0.00000000000E+00 -0.14444912836E+03  0.14444912836E+03  0.00000000000E+00 0. -1.
          2    1    1    2  501    0  0.30885628179E+02  0.27427938669E+02  0.10624733869E+03  0.11399434559E+03  0.00000000000E+00 0. -1.
          1    1    1    2  502    0 -0.23421101271E+02 -0.26322169844E+02 -0.74680226891E+02  0.82574456695E+02  0.00000000000E+00 0. -1.
         22    1    1    2    0    0 -0.64611038002E+00 -0.22709928853E+02  0.54313026352E+02  0.58873280515E+02  0.00000000000E+00 0. -1.
         22    1    1    2    0    0 -0.68184165276E+01  0.21604160028E+02 -0.57517802443E+02  0.61818509626E+02  0.00000000000E+00 0. -1.
</event>
<event>
 6    1  0.1715574E-005  0.7288499E+02  0.7818608E-02  0.1390925E+00
          2   -1    0    0  502    0  0.00000000000E+00  0.00000000000E+00  0.31674345615E+03  0.31674345615E+03  0.00000000000E+00 0.  1.
          1   -1    0    0  501    0 -0.00000000000E+00 -0.00000000000E+00 -0.42386014735E+02  0.42386014735E+02  0.00000000000E+00 0. -1.
          2    1    1    2  501    0  0.40525695423E+02 -0.34486898668E+02  0.15410656917E+03  0.16303531161E+03  0.00000000000E+00 0.  1.
          1    1    1    2  502    0 -0.17446799973E+02  0.17729078011E+02  0.53996586541E+01  0.25453238497E+02  0.00000000000E+00 0. -1.
         22    1    1    2    0    0 -0.11713885805E+02  0.52363089751E+02  0.41694857579E+01  0.53819075618E+02  0.00000000000E+00 0. -1.
         22    1    1    2    0    0 -0.11365009646E+02 -0.35605269094E+02  0.11068172784E+03  0.11682184517E+03  0.00000000000E+00 0.  1.
</event>
<event>
 6    1  0.1715574E-005  0.5893463E+02  0.7818608E-02  0.1469634E+00
          2   -1    0    0  502    0  0.00000000000E+00  0.00000000000E+00  0.46446177153E+02  0.46446177153E+02  0.00000000000E+00 0. -1.
          1   -1    0    0  501    0 -0.00000000000E+00 -0.00000000000E+00 -0.40079941140E+03  0.40079941140E+03  0.00000000000E+00 0. -1.
          2    1    1    2  501    0  0.25324618504E+02 -0.29061571808E+02 -0.50459288647E+02  0.63498433596E+02  0.00000000000E+00 0. -1.
          1    1    1    2  502    0 -0.24817786660E+02  0.36649276769E+02 -0.23149935711E+03  0.23569269052E+03  0.00000000000E+00 0. -1.
         22    1    1    2    0    0  0.19956393100E+02 -0.77993676919E+01  0.33738104341E+02  0.39966829327E+02  0.00000000000E+00 0. -1.
         22    1    1    2    0    0 -0.20463224944E+02  0.21166273158E+00 -0.10613269284E+03  0.10808763512E+03  0.00000000000E+00 0.  1.
</event>
<event>
 6    1  0.1715574E-005  0.6071806E+02  0.7818608E-02  0.1459147E+00
          2   -1    0    0  502    0  0.00000000000E+00  0.00000000000E+00  0.38244525638E+03  0.38244525638E+03  0.00000000000E+00 0.  1.
          1   -1    0    0  501    0 -0.00000000000E+00 -0.00000000000E+00 -0.12237381003E+03  0.12237381003E+03  0.00000000000E+00 0.  1.
          2    1    1    2  501    0 -0.32728877136E+02  0.22473052424E+02  0.29642247217E+03  0.29906938909E+03  0.00000000000E+00 0.  1.
          1    1    1    2  502    0  0.37569854402E+02 -0.19841770299E+02 -0.67022316847E+02  0.79354777827E+02  0.00000000000E+00 0.  1.
         22    1    1    2    0    0  0.17508036002E+02  0.18614749974E+01 -0.44492884449E+02  0.47849902616E+02  0.00000000000E+00 0. -1.
         22    1    1    2    0    0 -0.22349013268E+02 -0.44927571224E+01  0.75164175465E+02  0.78544996874E+02  0.00000000000E+00 0.  1.
</event>
<event>
 6    1  0.1715574E-005  0.5277790E+02  0.7818608E-02  0.1482985E+00
          2   -1    0    0  502    0  0.00000000000E+00  0.00000000000E+00  0.19777460023E+03  0.19777460023E+03  0.00000000000E+00 0.  1.
          1   -1    0    0  501    0 -0.00000000000E+00 -0.00000000000E+00 -0.13139244190E+03  0.13139244190E+03  0.00000000000E+00 0.  1.
          2    1    1    2  501    0 -0.25056818241E+02  0.11125372822E+02  0.14379834862E+03  0.14638846650E+03  0.00000000000E+00 0.  1.
          1    1    1    2  502    0  0.22239166146E+02 -0.24967656926E+01 -0.42243255718E+02  0.47804884724E+02  0.00000000000E+00 0.  1.
         22    1    1    2    0    0 -0.23618134008E+02  0.71650155974E+01  0.43763417834E+02  0.50243312421E+02  0.00000000000E+00 0.  1.
         22    1    1    2    0    0  0.26435786102E+02 -0.15793622727E+02 -0.78936352402E+02  0.84730378473E+02  0.00000000000E+00 0.  1.
</event>
<event>
 6    1  0.1715574E-005  0.6559220E+02  0.7818608E-02  0.1382238E+00
          2   -1    0    0  502    0  0.00000000000E+00  0.00000000000E+00  0.50383166681E+03  0.50383166681E+03  0.00000000000E+00 0. -1.
          1   -1    0    0  501    0 -0.00000000000E+00 -0.00000000000E+00 -0.16046798022E+03  0.16046798022E+03  0.00000000000E+00 0. -1.
          2    1    1    2  501    0  0.24700216818E+01 -0.43894540693E+02  0.39070924628E+03  0.39317495704E+03  0.00000000000E+00 0. -1.
          1    1    1    2  502    0  0.45910563061E+01  0.11403850410E+03  0.93459720353E+01  0.11451290499E+03  0.00000000000E+00 0. -1.
         22    1    1    2    0    0 -0.14150540115E+01 -0.11275746117E+02  0.40927914812E+02  0.42476335049E+02  0.00000000000E+00 0.  1.
         22    1    1    2    0    0 -0.56460239764E+01 -0.58868217290E+02 -0.97619446541E+02  0.11413544996E+03  0.00000000000E+00 0. -1.
</event>
<event>
 6    1  0.1715574E-005  0.7478057E+02  0.7818608E-02  0.1386386E+00
          2   -1    0    0  502    0  0.00000000000E+00  0.00000000000E+00  0.37095782301E+03  0.37095782301E+03  0.00000000000E+00 0. -1.
          1   -1    0    0  501    0 -0.00000000000E+00 -0.00000000000E+00 -0.12541435665E+03  0.12541435665E+03  0.00000000000E+00 0.  1.
          2    1    1    2  501    0 -0.42222406935E+02  0.31785546692E+02  0.22096252782E+03  0.22719483120E+03  0.00000000000E+00 0. -1.
          1    1    1    2  502    0  0.74004477731E+02 -0.21349823635E+02 -0.75748996941E+02  0.10802957110E+03  0.00000000000E+00 0.  1.
         22    1    1    2    0    0 -0.22270940813E+02 -0.29831945586E+02 -0.17654322456E+02  0.41202122318E+02  0.00000000000E+00 0.  1.
         22    1    1    2    0    0 -0.95111299827E+01  0.19396222529E+02  0.11798425794E+03  0.11994565504E+03  0.00000000000E+00 0. -1.
</event>
<event>
 6    1  0.1715574E-005  0.1687060E+03  0.7818608E-02  0.1202688E+00
          2   -1    0    0  502    0  0.00000000000E+00  0.00000000000E+00  0.36793721629E+03  0.36793721629E+03  0.00000000000E+00 0. -1.
          1   -1    0    0  501    0 -0.00000000000E+00 -0.00000000000E+00 -0.50536961790E+02  0.50536961790E+02  0.00000000000E+00 0. -1.
          2    1    1    2  501    0  0.15460068366E+02  0.38617103564E+02 -0.63052791307E+01  0.42071973408E+02  0.00000000000E+00 0. -1.
          1    1    1    2  502    0 -0.49628328410E+02  0.93083225137E+01  0.13220083175E+03  0.14151563788E+03  0.00000000000E+00 0. -1.
         22    1    1    2    0    0  0.35502378499E+02 -0.83452205580E+02  0.17172864760E+03  0.19420457745E+03  0.00000000000E+00 0. -1.
         22    1    1    2    0    0 -0.13341184556E+01  0.35526779502E+02  0.19776054274E+02  0.40681989338E+02  0.00000000000E+00 0. -1.
</event>
<event>
 6    1  0.1715574E-005  0.1005872E+03  0.7818608E-02  0.1280361E+00
          2   -1    0    0  502    0  0.00000000000E+00  0.00000000000E+00  0.12445114753E+03  0.12445114753E+03  0.00000000000E+00 0. -1.
          1   -1    0    0  501    0 -0.00000000000E+00 -0.00000000000E+00 -0.66789581333E+03  0.66789581333E+03  0.00000000000E+00 0. -1.
          2    1    1    2  501    0  0.82895695799E+02 -0.16085006578E+02  0.94036738279E+02  0.12638564778E+03  0.00000000000E+00 0. -1.
          1    1    1    2  502    0 -0.29206399952E+02  0.21816058832E+02 -0.30934788870E+03  0.31148847565E+03  0.00000000000E+00 0. -1.
         22    1    1    2    0    0  0.80389949729E+01 -0.96140837417E+01  0.65372703838E+01  0.14134778047E+02  0.00000000000E+00 0.  1.
         22    1    1    2    0    0 -0.61728290820E+02  0.38830314878E+01 -0.33467078577E+03  0.34033805939E+03  0.00000000000E+00 0. -1.
</event>
<event>
 6    1  0.1715574E-005  0.1142922E+03  0.7818608E-02  0.1258331E+00
          2   -1    0    0  502    0  0.00000000000E+00  0.00000000000E+00  0.40664847833E+03  0.40664847833E+03  0.00000000000E+00 0. -1.
          1   -1    0    0  501    0 -0.00000000000E+00 -0.00000000000E+00 -0.51736117213E+02  0.51736117213E+02  0.00000000000E+00 0. -1.
          2    1    1    2  501    0  0.25659420810E-01  0.36137253739E+02 -0.18881392122E+02  0.40772646893E+02  0.00000000000E+00 0. -1.
          1    1    1    2  502    0 -0.52760523831E+01 -0.54754491305E+02  0.18382729009E+03  0.19188111847E+03  0.00000000000E+00 0. -1.
         22    1    1    2    0    0 -0.27054062139E+02  0.53183247411E+02  0.49556889943E+02  0.77564588726E+02  0.00000000000E+00 0. -1.
         22    1    1    2    0    0  0.32304455102E+02 -0.34566009845E+02  0.14040957321E+03  0.14816624145E+03  0.00000000000E+00 0. -1.
</event>
<event>
 6    1  0.1715574E-005  0.1646061E+03  0.7818608E-02  0.1187547E+00
          2   -1    0    0  502    0  0.00000000000E+00  0.00000000000E+00  0.34087636726E+03  0.34087636726E+03  0.00000000000E+00 0.  1.
          1   -1    0    0  501    0 -0.00000000000E+00 -0.00000000000E+00 -0.84787790437E+02  0.84787790437E+02  0.00000000000E+00 0.  1.
          2    1    1    2  501    0  0.10758874188E+02  0.88700336185E+02  0.10363252042E+03  0.13683275303E+03  0.00000000000E+00 0.  1.
          1    1    1    2  502    0  0.11995576477E+01 -0.11168719402E+03  0.55234545866E+02  0.12460466807E+03  0.00000000000E+00 0.  1.
         22    1    1    2    0    0  0.24722573169E+02  0.54560979063E+02  0.99094247952E+02  0.11579195152E+03  0.00000000000E+00 0. -1.
         22    1    1    2    0    0 -0.36681005004E+02 -0.31574121224E+02 -0.18727374207E+01  0.48434785069E+02  0.00000000000E+00 0.  1.
</event>
<event>
 6    1  0.1715574E-005  0.5017199E+02  0.7818608E-02  0.1522818E+00
          2   -1    0    0  502    0  0.00000000000E+00  0.00000000000E+00  0.26801553719E+03  0.26801553719E+03  0.00000000000E+00 0.  1.
          1   -1    0    0  501    0 -0.00000000000E+00 -0.00000000000E+00 -0.86093478107E+02  0.86093478107E+02  0.00000000000E+00 0.  1.
          2    1    1    2  501    0  0.23128288874E+02  0.25538511152E+02  0.15953902480E+03  0.16321713676E+03  0.00000000000E+00 0.  1.
          1    1    1    2  502    0 -0.37827739032E+02 -0.14786231785E+02 -0.35495004348E+02  0.53939464442E+02  0.00000000000E+00 0.  1.
         22    1    1    2    0    0  0.14792994456E+02  0.59008713586E+01  0.94968573413E+02  0.96294770906E+02  0.00000000000E+00 0.  1.
         22    1    1    2    0    0 -0.93544297767E-01 -0.16653150725E+02 -0.37090534779E+02  0.40657643191E+02  0.00000000000E+00 0.  1.
</event>
<event>
 6    1  0.1715574E-005  0.1036033E+03  0.7818608E-02  0.1282562E+00
          2   -1    0    0  502    0  0.00000000000E+00  0.00000000000E+00  0.42789410695E+02  0.42789410695E+02  0.00000000000E+00 0. -1.
          1   -1    0    0  501    0 -0.00000000000E+00 -0.00000000000E+00 -0.55544250432E+03  0.55544250432E+03  0.00000000000E+00 0.  1.
          2    1    1    2  501    0 -0.97831469977E+01 -0.39180969356E+02 -0.56180351670E+02  0.69188801396E+02  0.00000000000E+00 0. -1.
          1    1    1    2  502    0 -0.64095939824E+01  0.54407076696E+02 -0.37239263330E+03  0.37640069902E+03  0.00000000000E+00 0.  1.
         22    1    1    2    0    0 -0.99796516599E+01 -0.26469476749E+02  0.26312546396E+02  0.38633880784E+02  0.00000000000E+00 0. -1.
         22    1    1    2    0    0  0.26172392640E+02  0.11243369409E+02 -0.11039265505E+03  0.11400853381E+03  0.00000000000E+00 0.  1.
</event>
<event>
 6    1  0.1715574E-005  0.2650309E+02  0.7818608E-02  0.1645755E+00
          2   -1    0    0  502    0  0.00000000000E+00  0.00000000000E+00  0.18510676683E+03  0.18510676683E+03  0.00000000000E+00 0. -1.
          1   -1    0    0  501    0 -0.00000000000E+00 -0.00000000000E+00 -0.89061444503E+02  0.89061444503E+02  0.00000000000E+00 0. -1.
          2    1    1    2  501    0  0.53876780000E+01  0.22046931234E+02  0.71955428124E+02  0.75449836895E+02  0.00000000000E+00 0. -1.
          1    1    1    2  502    0 -0.22619327473E+01 -0.25576698525E+02 -0.48314374577E+02  0.54713459386E+02  0.00000000000E+00 0. -1.
         22    1    1    2    0    0 -0.20710904154E+02 -0.39860753741E+01 -0.31745967875E+02  0.38113473000E+02  0.00000000000E+00 0. -1.
         22    1    1    2    0    0  0.17585158901E+02  0.75158426656E+01  0.10415023665E+03  0.10589144205E+03  0.00000000000E+00 0. -1.
</event>
<event>
 6    1  0.1715574E-005  0.1130578E+03  0.7818608E-02  0.1288956E+00
          2   -1    0    0  502    0  0.00000000000E+00  0.00000000000E+00  0.86025241585E+02  0.86025241585E+02  0.00000000000E+00 0.  1.
          1   -1    0    0  501    0 -0.00000000000E+00 -0.00000000000E+00 -0.11815350633E+03  0.11815350633E+03  0.00000000000E+00 0.  1.
          2    1    1    2  501    0 -0.80246580647E+01  0.25745728342E+02  0.85485483491E+01  0.28289845241E+02  0.00000000000E+00 0.  1.
          1    1    1    2  502    0 -0.28334214785E+02  0.14186020621E+02 -0.11908259862E+02  0.33850813306E+02  0.00000000000E+00 0.  1.
         22    1    1    2    0    0  0.41361373073E+02 -0.68741813547E+02 -0.59299593303E+02  0.99762928376E+02  0.00000000000E+00 0.  1.
         22    1    1    2    0    0 -0.50025002237E+01  0.28810064584E+02  0.30531040065E+02  0.42275160997E+02  0.00000000000E+00 0. -1.
</event>
<event>
 6    1  0.1715574E-005  0.4836796E+02  0.7818608E-02  0.1477052E+00
          2   -1    0    0  502    0  0.00000000000E+00  0.00000000000E+00  0.11051881994E+03  0.11051881994E+03  0.00000000000E+00 0. -1.
          1   -1    0    0  501    0 -0.00000000000E+00 -0.00000000000E+00 -0.15271563584E+03  0.15271563584E+03  0.00000000000E+00 0. -1.
          2    1    1    2  501    0 -0.22215011021E+02  0.68320280982E+01  0.47261442323E+02  0.52667136367E+02  0.00000000000E+00 0. -1.
          1    1    1    2  502    0 -0.57375659555E+01 -0.49889288216E+02 -0.41757891333E+02  0.65311424961E+02  0.00000000000E+00 0. -1.
         22    1    1    2    0    0  0.35787431505E+02  0.36723048573E+02 -0.89016510167E+02  0.10272906907E+03  0.00000000000E+00 0. -1.
         22    1    1    2    0    0 -0.78348545287E+01  0.63342115454E+01  0.41316143281E+02  0.42526825382E+02  0.00000000000E+00 0.  1.
</event>
<event>
 6    1  0.1715574E-005  0.3172613E+02  0.7818608E-02  0.1647532E+00
          2   -1    0    0  502    0  0.00000000000E+00  0.00000000000E+00  0.38907627808E+02  0.38907627808E+02  0.00000000000E+00 0. -1.
          1   -1    0    0  501    0 -0.00000000000E+00 -0.00000000000E+00 -0.53385108975E+03  0.53385108975E+03  0.00000000000E+00 0.  1.
          2    1    1    2  501    0  0.19856752563E+02 -0.22580200074E+02 -0.40502298917E+01  0.30340738619E+02  0.00000000000E+00 0. -1.
          1    1    1    2  502    0 -0.25464425885E+02  0.45054095854E+02 -0.34240676175E+03  0.34629568151E+03  0.00000000000E+00 0.  1.
         22    1    1    2    0    0  0.10994472965E+02  0.75537871548E+01  0.20470534125E+02  0.24433192660E+02  0.00000000000E+00 0. -1.
         22    1    1    2    0    0 -0.53867996433E+01 -0.30027682934E+02 -0.16895700443E+03  0.17168910478E+03  0.00000000000E+00 0.  1.
</event>
<event>
 6    1  0.1715574E-005  0.3067238E+02  0.7818608E-02  0.1611464E+00
          2   -1    0    0  502    0  0.00000000000E+00  0.00000000000E+00  0.12852841527E+03  0.12852841527E+03  0.00000000000E+00 0. -1.
          1   -1    0    0  501    0 -0.00000000000E+00 -0.00000000000E+00 -0.28460232242E+03  0.28460232242E+03  0.00000000000E+00 0. -1.
          2    1    1    2  501    0  0.28022304388E+02  0.30486753158E+02  0.75587876369E+02  0.86187114555E+02  0.00000000000E+00 0. -1.
          1    1    1    2  502    0 -0.30965933122E+02 -0.26549124762E+02 -0.18621339710E+03  0.19062836698E+03  0.00000000000E+00 0. -1.
         22    1    1    2    0    0  0.16764943177E+02 -0.10283172486E+02  0.42622294929E+02  0.46941101192E+02  0.00000000000E+00 0. -1.
         22    1    1    2    0    0 -0.13821314443E+02  0.63455440895E+01 -0.88070681351E+02  0.89374154969E+02  0.00000000000E+00 0. -1.
</event>
<event>
 6    1  0.1715574E-005  0.1835992E+03  0.7818608E-02  0.1249093E+00
          2   -1    0    0  502    0  0.00000000000E+00  0.00000000000E+00  0.14626699098E+03  0.14626699098E+03  0.00000000000E+00 0.  1.
          1   -1    0    0  501    0 -0.00000000000E+00 -0.00000000000E+00 -0.35197157575E+03  0.35197157575E+03  0.00000000000E+00 0. -1.
          2    1    1    2  501    0  0.44858581204E+02  0.67870117375E+02 -0.10695088170E+03  0.13437684412E+03  0.00000000000E+00 0.  1.
          1    1    1    2  502    0 -0.33221911660E+02 -0.15882857423E+03  0.29084156810E+02  0.16485175032E+03  0.00000000000E+00 0. -1.
         22    1    1    2    0    0 -0.11507731849E+02 -0.27379907037E+02 -0.47349712476E+02  0.55893492226E+02  0.00000000000E+00 0. -1.
         22    1    1    2    0    0 -0.12893769507E+00  0.11833836389E+03 -0.80488147400E+02  0.14311648006E+03  0.00000000000E+00 0.  1.
</event>
<event>
 6    1  0.1715574E-005  0.8307301E+02  0.7818608E-02  0.1325451E+00
          2   -1    0    0  502    0  0.00000000000E+00  0.00000000000E+00  0.67129029402E+02  0.67129029402E+02  0.00000000000E+00 0. -1.
          1   -1    0    0  501    0 -0.00000000000E+00 -0.00000000000E+00 -0.26767190991E+03  0.26767190991E+03  0.00000000000E+00 0.  1.
          2    1    1    2  501    0  0.23203837300E+02  0.15839615885E+02  0.41071721737E+02  0.49761408976E+02  0.00000000000E+00 0. -1.
          1    1    1    2  502    0 -0.14630866541E+02 -0.21606563591E+02 -0.28425683953E+02  0.38586595524E+02  0.00000000000E+00 0.  1.
         22    1    1    2    0    0  0.32071649545E+02  0.11378455819E+02 -0.51634795689E+01  0.34419783303E+02  0.00000000000E+00 0.  1.
         22    1    1    2    0    0 -0.40644620303E+02 -0.56115081129E+01 -0.20802543872E+03  0.21203315151E+03  0.00000000000E+00 0.  1.
</event>
<event>
 6    1  0.1715574E-005  0.8884322E+02  0.7818608E-02  0.1347127E+00
          2   -1    0    0  502    0  0.00000000000E+00  0.00000000000E+00  0.10716204679E+04  0.10716204679E+04  0.00000000000E+00 0.  1.
          1   -1    0    0  501    0 -0.00000000000E+00 -0.00000000000E+00 -0.75232636505E+02  0.75232636505E+02  0.00000000000E+00 0.  1.
          2    1    1    2  501    0  0.16887671890E+02  0.15844511610E+02  0.98592841745E+03  0.98620032770E+03  0.00000000000E+00 0.  1.
          1    1    1    2  502    0 -0.46063016958E+01 -0.21637692155E+02 -0.16741251623E+02  0.27743057564E+02  0.00000000000E+00 0.  1.
         22    1    1    2    0    0 -0.15703150766E+02  0.17267036483E+02  0.77638197455E+02  0.81070519900E+02  0.00000000000E+00 0. -1.
         22    1    1    2    0    0  0.34217805713E+01 -0.11473855939E+02 -0.50437531902E+02  0.51839199230E+02  0.00000000000E+00 0.  1.
</event>
<event>
 6    1  0.1715574E-005  0.1132515E+03  0.7818608E-02  0.1256766E+00
          2   -1    0    0  502    0  0.00000000000E+00  0.00000000000E+00  0.10416108103E+03  0.10416108103E+03  0.00000000000E+00 0. -1.
          1   -1    0    0  501    0 -0.00000000000E+00 -0.00000000000E+00 -0.24986452492E+03  0.24986452492E+03  0.00000000000E+00 0.  1.
          2    1    1    2  501    0 -0.13081416846E+02 -0.22973497158E+02 -0.42237636524E+01  0.26772097746E+02  0.00000000000E+00 0. -1.
          1    1    1    2  502    0  0.40754862448E+02  0.83694196724E+02 -0.15538670990E+03  0.18113726008E+03  0.00000000000E+00 0.  1.
         22    1    1    2    0    0  0.46550625314E+01  0.11916047919E+02 -0.45245333547E+02  0.47019166442E+02  0.00000000000E+00 0.  1.
         22    1    1    2    0    0 -0.32328508134E+02 -0.72636747485E+02  0.59152363210E+02  0.99097081675E+02  0.00000000000E+00 0. -1.
</event>
<event>
 6    1  0.1715574E-005  0.4995080E+02  0.7818608E-02  0.1533061E+00
          2   -1    0    0  502    0  0.00000000000E+00  0.00000000000E+00  0.35843041684E+03  0.35843041684E+03  0.00000000000E+00 0. -1.
          1   -1    0    0  501    0 -0.00000000000E+00 -0.00000000000E+00 -0.13982321289E+03  0.13982321289E+03  0.00000000000E+00 0.  1.
          2    1    1    2  501    0 -0.23993179787E+02  0.22336061223E+02  0.25787985709E+03  0.25995498264E+03  0.00000000000E+00 0. -1.
          1    1    1    2  502    0  0.35037486842E+02 -0.24160311984E+02 -0.93360787104E+02  0.10260400932E+03  0.00000000000E+00 0.  1.
         22    1    1    2    0    0 -0.52217812997E+01 -0.13780744418E+02 -0.38706523626E+02  0.41417036203E+02  0.00000000000E+00 0.  1.
         22    1    1    2    0    0 -0.58225257553E+01  0.15604995179E+02  0.92794657586E+02  0.94277601567E+02  0.00000000000E+00 0.  1.
</event>
<event>
 6    1  0.1715574E-005  0.9172808E+02  0.7818608E-02  0.1335788E+00
          2   -1    0    0  502    0  0.00000000000E+00  0.00000000000E+00  0.22199470071E+03  0.22199470071E+03  0.00000000000E+00 0.  1.
          1   -1    0    0  501    0 -0.00000000000E+00 -0.00000000000E+00 -0.12874317961E+03  0.12874317961E+03  0.00000000000E+00 0. -1.
          2    1    1    2  501    0  0.73308234227E+02 -0.18680877998E+02  0.14155062974E+03  0.16049814076E+03  0.00000000000E+00 0.  1.
          1    1    1    2  502    0 -0.49898765425E+02  0.25995590547E+02 -0.67574172180E+01  0.56668511594E+02  0.00000000000E+00 0. -1.
         22    1    1    2    0    0  0.22534424692E+02 -0.17953009137E+02  0.33970032602E+02  0.44542944988E+02  0.00000000000E+00 0.  1.
         22    1    1    2    0    0 -0.45943893493E+02  0.10638296587E+02 -0.75511724023E+02  0.89028282970E+02  0.00000000000E+00 0. -1.
</event>
<event>
 6    1  0.1715574E-005  0.8348662E+02  0.7818608E-02  0.1329626E+00
          2   -1    0    0  502    0  0.00000000000E+00  0.00000000000E+00  0.32828092813E+03  0.32828092813E+03  0.00000000000E+00 0.  1.
          1   -1    0    0  501    0 -0.00000000000E+00 -0.00000000000E+00 -0.17567548909E+03  0.17567548909E+03  0.00000000000E+00 0.  1.
          2    1    1    2  501    0 -0.10478728027E+03 -0.65106355015E+02  0.21221394480E+03  0.24546684081E+03  0.00000000000E+00 0.  1.
          1    1    1    2  502    0  0.78680889177E+02 -0.39420313374E+02 -0.35768160363E+02  0.94994761560E+02  0.00000000000E+00 0.  1.
         22    1    1    2    0    0 -0.14253048064E+02  0.53688543782E+02  0.43057139858E+02  0.70281764387E+02  0.00000000000E+00 0.  1.
         22    1    1    2    0    0  0.40359439159E+02  0.50838124607E+02 -0.66897485256E+02  0.93213050462E+02  0.00000000000E+00 0.  1.
</event>
<event>
 6    1  0.1715574E-005  0.1395150E+03  0.7818608E-02  0.1214174E+00
          2   -1    0    0  502    0  0.00000000000E+00  0.00000000000E+00  0.56099493890E+03  0.56099493890E+03  0.00000000000E+00 0. -1.
          1   -1    0    0  501    0 -0.00000000000E+00 -0.00000000000E+00 -0.16542157463E+03  0.16542157463E+03  0.00000000000E+00 0.  1.
          2    1    1    2  501    0  0.57895990475E+02 -0.10697379645E+03  0.44780583459E+03  0.46403168462E+03  0.00000000000E+00 0. -1.
          1    1    1    2  502    0 -0.52461623536E+02  0.95644134242E+02 -0.83520954480E+02  0.13738912692E+03  0.00000000000E+00 0.  1.
         22    1    1    2    0    0 -0.23030586756E+02  0.13953108118E+02 -0.41827877045E+02  0.49746039546E+02  0.00000000000E+00 0.  1.
         22    1    1    2    0    0  0.17596219818E+02 -0.26234459097E+01  0.73116361208E+02  0.75249662435E+02  0.00000000000E+00 0.  1.
</event>
<event>
 6    1  0.1715574E-005  0.1569645E+03  0.7818608E-02  0.1211049E+00
          2   -1    0    0  502    0  0.00000000000E+00  0.00000000000E+00  0.75241929028E+02  0.75241929028E+02  0.00000000000E+00 0.  1.
          1   -1    0    0  501    0 -0.00000000000E+00 -0.00000000000E+00 -0.76670351798E+03  0.76670351798E+03  0.00000000000E+00 0.  1.
          2    1    1    2  501    0 -0.89008179482E+02 -0.20386744607E+02  0.24205947878E+02  0.94466942805E+02  0.00000000000E+00 0.  1.
          1    1    1    2  502    0  0.19466827599E+02  0.63477132977E+02 -0.24194989360E+03  0.25089450931E+03  0.00000000000E+00 0.  1.
         22    1    1    2    0    0 -0.10574856862E+02 -0.73501701364E+01  0.18340980154E+01  0.13008324804E+02  0.00000000000E+00 0.  1.
         22    1    1    2    0    0  0.80116208745E+02 -0.35740218233E+02 -0.47555174125E+03  0.48357567010E+03  0.00000000000E+00 0.  1.
</event>
<event>
 6    1  0.1715574E-005  0.5163313E+02  0.7818608E-02  0.1496642E+00
          2   -1    0    0  502    0  0.00000000000E+00  0.00000000000E+00  0.21664671668E+03  0.21664671668E+03  0.00000000000E+00 0. -1.
          1   -1    0    0  501    0 -0.00000000000E+00 -0.00000000000E+00 -0.28404841197E+03  0.28404841197E+03  0.00000000000E+00 0. -1.
          2    1    1    2  501    0 -0.15322471128E+02 -0.53899156378E+02  0.16158630704E+03  0.17102640674E+03  0.00000000000E+00 0. -1.
          1    1    1    2  502    0 -0.57109066831E+01  0.62396171048E+02 -0.19080075967E+03  0.20082536321E+03  0.00000000000E+00 0. -1.
         22    1    1    2    0    0 -0.14864033164E+02  0.61583486466E+01 -0.74200572914E+02  0.75924895526E+02  0.00000000000E+00 0. -1.
         22    1    1    2    0    0  0.35897410975E+02 -0.14655363317E+02  0.36013330251E+02  0.52918463171E+02  0.00000000000E+00 0.  1.
</event>
<event>
 6    1  0.1715574E-005  0.2039454E+03  0.7818608E-02  0.1147784E+00
          2   -1    0    0  502    0  0.00000000000E+00  0.00000000000E+00  0.43330488295E+03  0.43330488295E+03  0.00000000000E+00 0.  1.
          1   -1    0    0  501    0 -0.00000000000E+00 -0.00000000000E+00 -0.20226532904E+03  0.20226532904E+03  0.00000000000E+00 0. -1.
          2    1    1    2  501    0 -0.35820238474E+02  0.10347380555E+03  0.18883591046E+03  0.21828632344E+03  0.00000000000E+00 0.  1.
          1    1    1    2  502    0  0.18423948150E+02 -0.18168647051E+03 -0.10504293567E+03  0.21067376146E+03  0.00000000000E+00 0. -1.
         22    1    1    2    0    0  0.20868502164E+02  0.92110091984E+02  0.16106108088E+03  0.18670949414E+03  0.00000000000E+00 0. -1.
         22    1    1    2    0    0 -0.34722118407E+01 -0.13897427023E+02 -0.13814501760E+02  0.19900632950E+02  0.00000000000E+00 0. -1.
</event>
<event>
 6    1  0.1715574E-005  0.1177809E+03  0.7818608E-02  0.1249023E+00
          2   -1    0    0  502    0  0.00000000000E+00  0.00000000000E+00  0.84723509411E+03  0.84723509411E+03  0.00000000000E+00 0. -1.
          1   -1    0    0  501    0 -0.00000000000E+00 -0.00000000000E+00 -0.16697551971E+02  0.16697551971E+02  0.00000000000E+00 0.  1.
          2    1    1    2  501    0  0.35467749625E+02  0.50682014538E+02  0.31013370268E+03  0.31624285194E+03  0.00000000000E+00 0. -1.
          1    1    1    2  502    0 -0.29753274217E+02 -0.30598936124E+02  0.18512269915E+03  0.18997885661E+03  0.00000000000E+00 0.  1.
         22    1    1    2    0    0  0.41475891817E+02  0.28284278676E+02  0.20366666281E+03  0.20976262670E+03  0.00000000000E+00 0. -1.
         22    1    1    2    0    0 -0.47190367225E+02 -0.48367357090E+02  0.13161447750E+03  0.14794831083E+03  0.00000000000E+00 0.  1.
</event>
<event>
 6    1  0.1715574E-005  0.7702437E+02  0.7818608E-02  0.1375533E+00
          2   -1    0    0  502    0  0.00000000000E+00  0.00000000000E+00  0.32087145562E+03  0.32087145562E+03  0.00000000000E+00 0. -1.
          1   -1    0    0  501    0 -0.00000000000E+00 -0.00000000000E+00 -0.12067844833E+03  0.12067844833E+03  0.00000000000E+00 0.  1.
          2    1    1    2  501    0  0.20820456185E+02 -0.10951147894E+03  0.85397446836E+02  0.14042428331E+03  0.00000000000E+00 0. -1.
          1    1    1    2  502    0 -0.18143383725E+02  0.51521651585E+02 -0.59951394164E+02  0.81103838487E+02  0.00000000000E+00 0.  1.
         22    1    1    2    0    0  0.24068122036E+01  0.17652660937E+02 -0.16631527946E+02  0.24372462021E+02  0.00000000000E+00 0. -1.
         22    1    1    2    0    0 -0.50838846638E+01  0.40337166420E+02  0.19137848257E+03  0.19564932013E+03  0.00000000000E+00 0. -1.
</event>
<event>
 6    1  0.1715574E-005  0.1570850E+03  0.7818608E-02  0.1200759E+00
          2   -1    0    0  502    0  0.00000000000E+00  0.00000000000E+00  0.10424461411E+03  0.10424461411E+03  0.00000000000E+00 0. -1.
          1   -1    0    0  501    0 -0.00000000000E+00 -0.00000000000E+00 -0.72747852235E+03  0.72747852235E+03  0.00000000000E+00 0. -1.
          2    1    1    2  501    0 -0.10243815970E+02  0.11350861851E+03  0.44232570232E+02  0.12225245401E+03  0.00000000000E+00 0. -1.
          1    1    1    2  502    0  0.54895842159E+02 -0.55196367991E+02 -0.36617887147E+03  0.37436233576E+03  0.00000000000E+00 0. -1.
         22    1    1    2    0    0 -0.99984529838E+01  0.12256249219E+02  0.67494010368E+01  0.17197067231E+02  0.00000000000E+00 0.  1.
         22    1    1    2    0    0 -0.34653573205E+02 -0.70568499739E+02 -0.30803700804E+03  0.31791127947E+03  0.00000000000E+00 0. -1.
</event>
<event>
 6    1  0.1715574E-005  0.9575227E+02  0.7818608E-02  0.1290001E+00
          2   -1    0    0  502    0  0.00000000000E+00  0.00000000000E+00  0.32995819577E+03  0.32995819577E+03  0.00000000000E+00 0. -1.
          1   -1    0    0  501    0 -0.00000000000E+00 -0.00000000000E+00 -0.44699989546E+02  0.44699989546E+02  0.00000000000E+00 0. -1.
          2    1    1    2  501    0  0.46615115810E+02  0.25856667376E+01  0.16060225619E+03  0.16725052881E+03  0.00000000000E+00 0. -1.
          1    1    1    2  502    0 -0.32774274677E+02 -0.18556989876E+02  0.17410350652E+02  0.41492592877E+02  0.00000000000E+00 0. -1.
         22    1    1    2    0    0  0.42236033244E+02  0.19766205642E+02  0.98570186280E+02  0.10904433508E+03  0.00000000000E+00 0. -1.
         22    1    1    2    0    0 -0.56076874377E+02 -0.37948825040E+01  0.86754131031E+01  0.56870728548E+02  0.00000000000E+00 0. -1.
</event>
<event>
 6    1  0.1715574E-005  0.1479534E+03  0.7818608E-02  0.1221925E+00
          2   -1    0    0  502    0  0.00000000000E+00  0.00000000000E+00  0.19199927210E+03  0.19199927210E+03  0.00000000000E+00 0. -1.
          1   -1    0    0  501    0 -0.00000000000E+00 -0.00000000000E+00 -0.28269966950E+03  0.28269966950E+03  0.00000000000E+00 0. -1.
          2    1    1    2  501    0 -0.40053495331E+02 -0.42987698560E+02 -0.10119696385E+03  0.11701730730E+03  0.00000000000E+00 0. -1.
          1    1    1    2  502    0  0.74111778098E+02 -0.28850775124E+02  0.14002218865E+03  0.16103147578E+03  0.00000000000E+00 0. -1.
         22    1    1    2    0    0  0.17794859670E+02 -0.70668659251E+00  0.17325179211E+02  0.24845890431E+02  0.00000000000E+00 0.  1.
         22    1    1    2    0    0 -0.51853142437E+02  0.72545160277E+02 -0.14685080141E+03  0.17180426810E+03  0.00000000000E+00 0. -1.
</event>
<event>
 6    1  0.1715574E-005  0.4220752E+03  0.7818608E-02  0.1041983E+00
          2   -1    0    0  502    0  0.00000000000E+00  0.00000000000E+00  0.27203412839E+04  0.27203412839E+04  0.00000000000E+00 0. -1.
          1   -1    0    0  501    0 -0.00000000000E+00 -0.00000000000E+00 -0.94065968018E+02  0.94065968018E+02  0.00000000000E+00 0. -1.
          2    1    1    2  501    0 -0.22200176259E+02 -0.23256111748E+03  0.18504427995E+03  0.29802501025E+03  0.00000000000E+00 0. -1.
          1    1    1    2  502    0  0.64904625323E+01  0.37511899916E+03  0.20187317685E+04  0.20532984057E+04  0.00000000000E+00 0. -1.
         22    1    1    2    0    0  0.37976842712E+02 -0.27519725628E+02  0.25121740689E+03  0.25555774573E+03  0.00000000000E+00 0. -1.
         22    1    1    2    0    0 -0.22267128985E+02 -0.11503815605E+03  0.17128186050E+03  0.20752609021E+03  0.00000000000E+00 0. -1.
</event>
<event>
 6    1  0.1715574E-005  0.1079627E+03  0.7818608E-02  0.1294857E+00
          2   -1    0    0  502    0  0.00000000000E+00  0.00000000000E+00  0.56028322028E+03  0.56028322028E+03  0.00000000000E+00 0.  1.
          1   -1    0    0  501    0 -0.00000000000E+00 -0.00000000000E+00 -0.23334900414E+02  0.23334900414E+02  0.00000000000E+00 0.  1.
          2    1    1    2  501    0 -0.16887783246E+02 -0.14548081176E+02  0.26170370782E+03  0.26265124133E+03  0.00000000000E+00 0.  1.
          1    1    1    2  502    0  0.28888464419E+02 -0.49431414703E+01  0.95723867765E+02  0.10011012378E+03  0.00000000000E+00 0.  1.
         22    1    1    2    0    0  0.26092553454E+02 -0.20045306347E+02  0.15880278352E+03  0.16217570627E+03  0.00000000000E+00 0. -1.
         22    1    1    2    0    0 -0.38093234627E+02  0.39536528993E+02  0.20717960766E+02  0.58681049304E+02  0.00000000000E+00 0.  1.
</event>
<event>
 6    1  0.1715574E-005  0.6533239E+02  0.7818608E-02  0.1433450E+00
          2   -1    0    0  502    0  0.00000000000E+00  0.00000000000E+00  0.20429566267E+03  0.20429566267E+03  0.00000000000E+00 0.  1.
          1   -1    0    0  501    0 -0.00000000000E+00 -0.00000000000E+00 -0.80264892162E+02  0.80264892162E+02  0.00000000000E+00 0. -1.
          2    1    1    2  501    0  0.24584120041E+02  0.36472961061E+02  0.91886850077E+02  0.10187172848E+03  0.00000000000E+00 0.  1.
          1    1    1    2  502    0 -0.34783161619E+02 -0.28679828740E+02 -0.16180007353E+02  0.47897740517E+02  0.00000000000E+00 0. -1.
         22    1    1    2    0    0 -0.27134801561E+01 -0.26638323057E+02 -0.37444081949E+02  0.46032841569E+02  0.00000000000E+00 0. -1.
         22    1    1    2    0    0  0.12912521733E+02  0.18845190736E+02  0.85768009735E+02  0.88758244266E+02  0.00000000000E+00 0.  1.
</event>
<event>
 6    1  0.1715574E-005  0.4868545E+02  0.7818608E-02  0.1508964E+00
          2   -1    0    0  502    0  0.00000000000E+00  0.00000000000E+00  0.24293685857E+03  0.24293685857E+03  0.00000000000E+00 0.  1.
          1   -1    0    0  501    0 -0.00000000000E+00 -0.00000000000E+00 -0.13741395414E+03  0.13741395414E+03  0.00000000000E+00 0. -1.
          2    1    1    2  501    0  0.43341809405E+02  0.71209705652E+01  0.16175530295E+03  0.16761264480E+03  0.00000000000E+00 0.  1.
          1    1    1    2  502    0 -0.16709770861E+02 -0.16546994203E+02 -0.76210537522E+02  0.79756288083E+02  0.00000000000E+00 0. -1.
         22    1    1    2    0    0 -0.21380326062E+02 -0.11895411613E+02 -0.52139830098E+02  0.57594974109E+02  0.00000000000E+00 0. -1.
         22    1    1    2    0    0 -0.52517124821E+01  0.21321435251E+02  0.72117969102E+02  0.75386905710E+02  0.00000000000E+00 0. -1.
</event>
<event>
 6    1  0.1715574E-005  0.8142866E+02  0.7818608E-02  0.1327909E+00
          2   -1    0    0  502    0  0.00000000000E+00  0.00000000000E+00  0.40986516526E+03  0.40986516526E+03  0.00000000000E+00 0.  1.
          1   -1    0    0  501    0 -0.00000000000E+00 -0.00000000000E+00 -0.12242716578E+03  0.12242716578E+03  0.00000000000E+00 0.  1.
          2    1    1    2  501    0 -0.38047370823E+02 -0.53599383501E+02  0.33547814619E+03  0.34185681639E+03  0.00000000000E+00 0.  1.
          1    1    1    2  502    0  0.28170819347E+02  0.11856302385E+02 -0.50811879121E+02  0.59295986616E+02  0.00000000000E+00 0.  1.
         22    1    1    2    0    0 -0.11179054523E+02 -0.33289501751E+01  0.56631568146E+02  0.57820305083E+02  0.00000000000E+00 0.  1.
         22    1    1    2    0    0  0.21055605999E+02  0.45072031292E+02 -0.53859835741E+02  0.73319222956E+02  0.00000000000E+00 0.  1.
</event>
<event>
 6    1  0.1715574E-005  0.2741224E+03  0.7818608E-02  0.1102403E+00
          2   -1    0    0  502    0  0.00000000000E+00  0.00000000000E+00  0.38573393259E+03  0.38573393259E+03  0.00000000000E+00 0.  1.
          1   -1    0    0  501    0 -0.00000000000E+00 -0.00000000000E+00 -0.17958621910E+03  0.17958621910E+03  0.00000000000E+00 0.  1.
          2    1    1    2  501    0  0.19751360899E+03 -0.10122593440E+03  0.79890768700E+02  0.23588312881E+03  0.00000000000E+00 0.  1.
          1    1    1    2  502    0 -0.87962606881E+02  0.10695416629E+03  0.60051207423E+02  0.15093959523E+03  0.00000000000E+00 0.  1.
         22    1    1    2    0    0  0.25675483798E+02  0.20511024160E+01 -0.37833982229E+01  0.26033662660E+02  0.00000000000E+00 0.  1.
         22    1    1    2    0    0 -0.13522648591E+03 -0.77793343029E+01  0.69989135591E+02  0.15246376499E+03  0.00000000000E+00 0.  1.
</event>
<event>
 6    1  0.1715574E-005  0.3724336E+02  0.7818608E-02  0.1618194E+00
          2   -1    0    0  502    0  0.00000000000E+00  0.00000000000E+00  0.75582012921E+02  0.75582012921E+02  0.00000000000E+00 0.  1.
          1   -1    0    0  501    0 -0.00000000000E+00 -0.00000000000E+00 -0.20518720571E+03  0.20518720571E+03  0.00000000000E+00 0.  1.
          2    1    1    2  501    0  0.84786709790E+01  0.24012291764E+02  0.25770531989E+02  0.36229799010E+02  0.00000000000E+00 0.  1.
          1    1    1    2  502    0 -0.77720267994E+01 -0.20483034123E+02 -0.10439289745E+03  0.10666694017E+03  0.00000000000E+00 0.  1.
         22    1    1    2    0    0  0.14010790772E+01 -0.15689210475E+02 -0.92874488672E+02  0.94200769604E+02  0.00000000000E+00 0. -1.
         22    1    1    2    0    0 -0.21077232568E+01  0.12159952834E+02  0.41891661347E+02  0.43671709843E+02  0.00000000000E+00 0.  1.
</event>
<event>
 6    1  0.1715574E-005  0.3696138E+02  0.7818608E-02  0.1586639E+00
          2   -1    0    0  502    0  0.00000000000E+00  0.00000000000E+00  0.73873817621E+02  0.73873817621E+02  0.00000000000E+00 0.  1.
          1   -1    0    0  501    0 -0.00000000000E+00 -0.00000000000E+00 -0.20217632831E+03  0.20217632831E+03  0.00000000000E+00 0.  1.
          2    1    1    2  501    0  0.13361303140E+02  0.40723660927E+02  0.16501375619E+02  0.45926423529E+02  0.00000000000E+00 0.  1.
          1    1    1    2  502    0  0.85489338393E+01 -0.41890161039E+02 -0.63192431785E+02  0.76296482859E+02  0.00000000000E+00 0.  1.
         22    1    1    2    0    0 -0.25514932193E+02 -0.12288836584E+02 -0.11458459377E+03  0.11803243791E+03  0.00000000000E+00 0.  1.
         22    1    1    2    0    0  0.36046952138E+01  0.13455336696E+02  0.32973139240E+02  0.35794801641E+02  0.00000000000E+00 0.  1.
</event>
<event>
 6    1  0.1715574E-005  0.4671799E+02  0.7818608E-02  0.1477879E+00
          2   -1    0    0  502    0  0.00000000000E+00  0.00000000000E+00  0.19871735842E+03  0.19871735842E+03  0.00000000000E+00 0. -1.
          1   -1    0    0  501    0 -0.00000000000E+00 -0.00000000000E+00 -0.73243503585E+02  0.73243503585E+02  0.00000000000E+00 0.  1.
          2    1    1    2  501    0  0.97441655651E+01 -0.19001462726E+02  0.66941300640E+02  0.70264799720E+02  0.00000000000E+00 0. -1.
          1    1    1    2  502    0 -0.21545490876E+02 -0.16258760445E+00 -0.36289143658E+02  0.42203513589E+02  0.00000000000E+00 0.  1.
         22    1    1    2    0    0 -0.11259110246E+02  0.12328309886E+02 -0.28942468992E+02  0.33412891217E+02  0.00000000000E+00 0.  1.
         22    1    1    2    0    0  0.23060435557E+02  0.68357404451E+01  0.12376416685E+03  0.12607965748E+03  0.00000000000E+00 0. -1.
</event>
<event>
 6    1  0.1715574E-005  0.1105360E+03  0.7818608E-02  0.1261148E+00
          2   -1    0    0  502    0  0.00000000000E+00  0.00000000000E+00  0.27300612231E+02  0.27300612231E+02  0.00000000000E+00 0. -1.
          1   -1    0    0  501    0 -0.00000000000E+00 -0.00000000000E+00 -0.44866290361E+03  0.44866290361E+03  0.00000000000E+00 0. -1.
          2    1    1    2  501    0  0.30876609161E+02  0.36015072984E+02 -0.14427149232E+03  0.15187071466E+03  0.00000000000E+00 0. -1.
          1    1    1    2  502    0 -0.59100450319E+01 -0.35559260760E+02 -0.64523518559E+02  0.73909905326E+02  0.00000000000E+00 0. -1.
         22    1    1    2    0    0  0.31242494854E+02  0.47776554069E+02 -0.10617925434E+03  0.12055175924E+03  0.00000000000E+00 0. -1.
         22    1    1    2    0    0 -0.56209058982E+02 -0.48232366293E+02 -0.10638802616E+03  0.12963113661E+03  0.00000000000E+00 0. -1.
</event>
<event>
 6    1  0.1715574E-005  0.7196412E+02  0.7818608E-02  0.1425195E+00
          2   -1    0    0  502    0  0.00000000000E+00  0.00000000000E+00  0.45348963616E+02  0.45348963616E+02  0.00000000000E+00 0.  1.
          1   -1    0    0  501    0 -0.00000000000E+00 -0.00000000000E+00 -0.26579868951E+03  0.26579868951E+03  0.00000000000E+00 0.  1.
          2    1    1    2  501    0  0.15457665301E+02  0.24172988514E+02 -0.11921526616E+02  0.31070815681E+02  0.00000000000E+00 0.  1.
          1    1    1    2  502    0 -0.21395031782E+02 -0.46887852798E+02 -0.94602095533E+02  0.10773010073E+03  0.00000000000E+00 0.  1.
         22    1    1    2    0    0  0.14808735758E+01  0.44981987580E+02  0.10210578624E+02  0.46150060769E+02  0.00000000000E+00 0.  1.
         22    1    1    2    0    0  0.44564929056E+01 -0.22267123295E+02 -0.12413668236E+03  0.12619667594E+03  0.00000000000E+00 0. -1.
</event>
<event>
 6    1  0.1715574E-005  0.8707710E+02  0.7818608E-02  0.1312311E+00
          2   -1    0    0  502    0  0.00000000000E+00  0.00000000000E+00  0.10518831222E+03  0.10518831222E+03  0.00000000000E+00 0. -1.
          1   -1    0    0  501    0 -0.00000000000E+00 -0.00000000000E+00 -0.74589246478E+03  0.74589246478E+03  0.00000000000E+00 0. -1.
          2    1    1    2  501    0  0.21539636257E+02  0.27554593007E+02  0.41573188795E+02  0.54328091743E+02  0.00000000000E+00 0. -1.
          1    1    1    2  502    0 -0.50671447749E+02 -0.41789415139E+02 -0.66114964737E+03  0.66440409921E+03  0.00000000000E+00 0. -1.
         22    1    1    2    0    0  0.42056601267E+02  0.23734574806E+02  0.43965975746E+02  0.65307693074E+02  0.00000000000E+00 0. -1.
         22    1    1    2    0    0 -0.12924789776E+02 -0.94997526741E+01 -0.65093669726E+02  0.67040892969E+02  0.00000000000E+00 0.  1.
</event>
<event>
 6    1  0.1715574E-005  0.1186899E+03  0.7818608E-02  0.1324690E+00
          2   -1    0    0  502    0  0.00000000000E+00  0.00000000000E+00  0.23845325475E+03  0.23845325475E+03  0.00000000000E+00 0.  1.
          1   -1    0    0  501    0 -0.00000000000E+00 -0.00000000000E+00 -0.28864829493E+03  0.28864829493E+03  0.00000000000E+00 0.  1.
          2    1    1    2  501    0 -0.14904851173E+03  0.53597073021E+02 -0.30136489087E+02  0.16123372184E+03  0.00000000000E+00 0.  1.
          1    1    1    2  502    0  0.20775457034E+03 -0.72249349815E+02 -0.50370152085E+02  0.22565256983E+03  0.00000000000E+00 0.  1.
         22    1    1    2    0    0  0.15138300861E+02 -0.82540470868E+01 -0.34353971416E+02  0.38438168509E+02  0.00000000000E+00 0.  1.
         22    1    1    2    0    0 -0.73844359477E+02  0.26906323880E+02  0.64665572407E+02  0.10177708949E+03  0.00000000000E+00 0.  1.
</event>
<event>
 6    1  0.1715574E-005  0.5674715E+02  0.7818608E-02  0.1512647E+00
          2   -1    0    0  502    0  0.00000000000E+00  0.00000000000E+00  0.15234176917E+03  0.15234176917E+03  0.00000000000E+00 0. -1.
          1   -1    0    0  501    0 -0.00000000000E+00 -0.00000000000E+00 -0.35517938317E+03  0.35517938317E+03  0.00000000000E+00 0. -1.
          2    1    1    2  501    0 -0.24456363892E+02  0.28155610862E+01  0.12308464427E+03  0.12552239153E+03  0.00000000000E+00 0. -1.
          1    1    1    2  502    0 -0.31074112316E+02  0.37942929047E+02 -0.14978481086E+03  0.15760950442E+03  0.00000000000E+00 0. -1.
         22    1    1    2    0    0  0.66143686740E+02 -0.32923413237E+02 -0.19083566025E+03  0.20463916453E+03  0.00000000000E+00 0. -1.
         22    1    1    2    0    0 -0.10613210531E+02 -0.78350768970E+01  0.14698212837E+02  0.19750091857E+02  0.00000000000E+00 0. -1.
</event>
<event>
 6    1  0.1715574E-005  0.1158145E+03  0.7818608E-02  0.1258879E+00
          2   -1    0    0  502    0  0.00000000000E+00  0.00000000000E+00  0.28766258206E+03  0.28766258206E+03  0.00000000000E+00 0. -1.
          1   -1    0    0  501    0 -0.00000000000E+00 -0.00000000000E+00 -0.41405274302E+02  0.41405274302E+02  0.00000000000E+00 0. -1.
          2    1    1    2  501    0 -0.26116012453E+02 -0.39274046118E+02  0.17529753840E+02  0.50316886575E+02  0.00000000000E+00 0. -1.
          1    1    1    2  502    0 -0.90255524055E+00  0.32609827911E+02  0.70431784158E+02  0.77619918204E+02  0.00000000000E+00 0. -1.
         22    1    1    2    0    0  0.60614756809E-01 -0.31341713775E+02  0.15069439305E+03  0.15391915668E+03  0.00000000000E+00 0. -1.
         22    1    1    2    0    0  0.26957952936E+02  0.38005931982E+02  0.76013767102E+01  0.47211894902E+02  0.00000000000E+00 0. -1.
</event>
<event>
 6    1  0.1715574E-005  0.1283084E+03  0.7818608E-02  0.1250120E+00
          2   -1    0    0  502    0  0.00000000000E+00  0.00000000000E+00  0.56077794019E+03  0.56077794019E+03  0.00000000000E+00 0.  1.
          1   -1    0    0  501    0 -0.00000000000E+00 -0.00000000000E+00 -0.62121933552E+02  0.62121933552E+02  0.00000000000E+00 0. -1.
          2    1    1    2  501    0 -0.70748020207E+01 -0.20075464261E+02  0.29046873424E+03  0.29124759683E+03  0.00000000000E+00 0.  1.
          1    1    1    2  502    0  0.68689534756E+02 -0.16457287999E+02 -0.10265057748E+02  0.71375527486E+02  0.00000000000E+00 0. -1.
         22    1    1    2    0    0 -0.73663807464E+02  0.39847821478E+02  0.22905632711E+03  0.24388728215E+03  0.00000000000E+00 0.  1.
         22    1    1    2    0    0  0.12049074728E+02 -0.33150692173E+01 -0.10603996967E+02  0.16389467270E+02  0.00000000000E+00 0.  1.
</event>
<event>
 6    1  0.1715574E-005  0.1016329E+03  0.7818608E-02  0.1291399E+00
          2   -1    0    0  502    0  0.00000000000E+00  0.00000000000E+00  0.47057650607E+02  0.47057650607E+02  0.00000000000E+00 0. -1.
          1   -1    0    0  501    0 -0.00000000000E+00 -0.00000000000E+00 -0.18270522770E+03  0.18270522770E+03  0.00000000000E+00 0. -1.
          2    1    1    2  501    0 -0.17684016591E+02  0.14420290716E+02 -0.56920635391E+02  0.61323959106E+02  0.00000000000E+00 0. -1.
          1    1    1    2  502    0  0.20200161291E+02  0.17476063086E+01 -0.21929930616E+02  0.29866745735E+02  0.00000000000E+00 0. -1.
         22    1    1    2    0    0  0.40769225760E+02 -0.39772819764E+02 -0.67296154829E+02  0.88163367765E+02  0.00000000000E+00 0. -1.
         22    1    1    2    0    0 -0.43285370460E+02  0.23604922739E+02  0.10499143738E+02  0.50408805705E+02  0.00000000000E+00 0. -1.
</event>
<event>
 6    1  0.1715574E-005  0.5705722E+02  0.7818608E-02  0.1455133E+00
          2   -1    0    0  502    0  0.00000000000E+00  0.00000000000E+00  0.13471524837E+03  0.13471524837E+03  0.00000000000E+00 0.  1.
          1   -1    0    0  501    0 -0.00000000000E+00 -0.00000000000E+00 -0.16700603794E+03  0.16700603794E+03  0.00000000000E+00 0.  1.
          2    1    1    2  501    0 -0.36285097268E+02  0.10741941598E+02  0.44093466949E+02  0.58105347608E+02  0.00000000000E+00 0.  1.
          1    1    1    2  502    0  0.34664838106E+02 -0.24386947893E+02 -0.10820295711E+03  0.11620780591E+03  0.00000000000E+00 0.  1.
         22    1    1    2    0    0 -0.70386999694E+01  0.28264758139E+02  0.75293207385E+02  0.80731077834E+02  0.00000000000E+00 0. -1.
         22    1    1    2    0    0  0.86589591319E+01 -0.14619751843E+02 -0.43474506800E+02  0.46677054949E+02  0.00000000000E+00 0. -1.
</event>
<event>
 6    1  0.1715574E-005  0.5954920E+02  0.7818608E-02  0.1522229E+00
          2   -1    0    0  502    0  0.00000000000E+00  0.00000000000E+00  0.58132196510E+02  0.58132196510E+02  0.00000000000E+00 0.  1.
          1   -1    0    0  501    0 -0.00000000000E+00 -0.00000000000E+00 -0.19338324007E+03  0.19338324007E+03  0.00000000000E+00 0.  1.
          2    1    1    2  501    0 -0.38652767024E+01 -0.19870810333E+02 -0.53741942359E+00  0.20250389797E+02  0.00000000000E+00 0.  1.
          1    1    1    2  502    0 -0.50883396942E+02  0.21828057265E+02 -0.48539716268E+02  0.73632114079E+02  0.00000000000E+00 0.  1.
         22    1    1    2    0    0  0.64451553510E+02  0.61662522653E+00 -0.11239013230E+03  0.12956050639E+03  0.00000000000E+00 0.  1.
         22    1    1    2    0    0 -0.97028798659E+01 -0.25738721585E+01  0.26216224435E+02  0.28072426315E+02  0.00000000000E+00 0. -1.
</event>
<event>
 6    1  0.1715574E-005  0.2368567E+03  0.7818608E-02  0.1192114E+00
          2   -1    0    0  502    0  0.00000000000E+00  0.00000000000E+00  0.50448792950E+03  0.50448792950E+03  0.00000000000E+00 0.  1.
          1   -1    0    0  501    0 -0.00000000000E+00 -0.00000000000E+00 -0.29362179621E+03  0.29362179621E+03  0.00000000000E+00 0. -1.
          2    1    1    2  501    0  0.19677801533E+03  0.31556409851E+02  0.33061803738E+03  0.38603844492E+03  0.00000000000E+00 0.  1.
          1    1    1    2  502    0 -0.21065303794E+03 -0.16732750733E+02 -0.17655113039E+03  0.27536337625E+03  0.00000000000E+00 0. -1.
         22    1    1    2    0    0  0.28702900405E+02  0.28441733213E+02  0.76806658967E+02  0.86787392756E+02  0.00000000000E+00 0. -1.
         22    1    1    2    0    0 -0.14827877794E+02 -0.43265392331E+02 -0.20007432668E+02  0.49920511770E+02  0.00000000000E+00 0.  1.
</event>
<event>
 6    1  0.1715574E-005  0.9397677E+02  0.7818608E-02  0.1295610E+00
          2   -1    0    0  502    0  0.00000000000E+00  0.00000000000E+00  0.45480010421E+02  0.45480010421E+02  0.00000000000E+00 0. -1.
          1   -1    0    0  501    0 -0.00000000000E+00 -0.00000000000E+00 -0.35942835387E+03  0.35942835387E+03  0.00000000000E+00 0.  1.
          2    1    1    2  501    0  0.34367353435E+01 -0.25043959370E+02 -0.21789417603E+02  0.33373489033E+02  0.00000000000E+00 0. -1.
          1    1    1    2  502    0 -0.43386145003E+02  0.28516170557E+02 -0.20392753437E+03  0.21043281311E+03  0.00000000000E+00 0.  1.
         22    1    1    2    0    0  0.48592517078E+02 -0.38931581253E+02  0.35137369398E+01  0.62363828315E+02  0.00000000000E+00 0. -1.
         22    1    1    2    0    0 -0.86431074184E+01  0.35459370066E+02 -0.91745128415E+02  0.98738233826E+02  0.00000000000E+00 0.  1.
</event>
<event>
 6    1  0.1715574E-005  0.7214866E+02  0.7818608E-02  0.1357412E+00
          2   -1    0    0  502    0  0.00000000000E+00  0.00000000000E+00  0.62471415598E+03  0.62471415598E+03  0.00000000000E+00 0.  1.
          1   -1    0    0  501    0 -0.00000000000E+00 -0.00000000000E+00 -0.49812355577E+02  0.49812355577E+02  0.00000000000E+00 0.  1.
          2    1    1    2  501    0  0.20156012381E+02 -0.70956520234E+01  0.35483249579E+03  0.35547533413E+03  0.00000000000E+00 0.  1.
          1    1    1    2  502    0 -0.52665367874E+02  0.10475345927E+02 -0.11447084363E+02  0.54903639096E+02  0.00000000000E+00 0.  1.
         22    1    1    2    0    0 -0.10007956609E+02 -0.83520598163E+00 -0.12730344046E+02  0.16214759450E+02  0.00000000000E+00 0.  1.
         22    1    1    2    0    0  0.42517312101E+02 -0.25444879224E+01  0.24424673303E+03  0.24793277888E+03  0.00000000000E+00 0.  1.
</event>
<event>
 6    1  0.1715574E-005  0.9114846E+02  0.7818608E-02  0.1314437E+00
          2   -1    0    0  502    0  0.00000000000E+00  0.00000000000E+00  0.12203430954E+03  0.12203430954E+03  0.00000000000E+00 0. -1.
          1   -1    0    0  501    0 -0.00000000000E+00 -0.00000000000E+00 -0.84741586988E+02  0.84741586988E+02  0.00000000000E+00 0. -1.
          2    1    1    2  501    0  0.31001266224E+02 -0.23199203588E+02  0.28323242499E+02  0.47973822239E+02  0.00000000000E+00 0. -1.
          1    1    1    2  502    0 -0.14587718500E+02  0.20898517132E+02  0.14011557966E+02  0.29083901148E+02  0.00000000000E+00 0. -1.
         22    1    1    2    0    0  0.26121253722E+02 -0.81910373335E+01  0.51419990824E+02  0.58253141074E+02  0.00000000000E+00 0. -1.
         22    1    1    2    0    0 -0.42534801446E+02  0.10491723789E+02 -0.56462068738E+02  0.71465032066E+02  0.00000000000E+00 0. -1.
</event>
<event>
 6    1  0.1715574E-005  0.6027595E+02  0.7818608E-02  0.1398756E+00
          2   -1    0    0  502    0  0.00000000000E+00  0.00000000000E+00  0.11550752405E+03  0.11550752405E+03  0.00000000000E+00 0.  1.
          1   -1    0    0  501    0 -0.00000000000E+00 -0.00000000000E+00 -0.35140528197E+03  0.35140528197E+03  0.00000000000E+00 0. -1.
          2    1    1    2  501    0  0.19088977527E+02 -0.31012174520E+02  0.49744046498E+02  0.61649121596E+02  0.00000000000E+00 0.  1.
          1    1    1    2  502    0 -0.26660634860E+02  0.39278838462E+02 -0.27694126623E+03  0.28098057147E+03  0.00000000000E+00 0. -1.
         22    1    1    2    0    0 -0.91790319664E+01  0.57757111708E+01 -0.63952048216E+02  0.64865074874E+02  0.00000000000E+00 0.  1.
         22    1    1    2    0    0  0.16750689299E+02 -0.14042375113E+02  0.55251510017E+02  0.59418038086E+02  0.00000000000E+00 0. -1.
</event>
<event>
 6    1  0.1715574E-005  0.9849794E+02  0.7818608E-02  0.1294251E+00
          2   -1    0    0  502    0  0.00000000000E+00  0.00000000000E+00  0.11234260344E+03  0.11234260344E+03  0.00000000000E+00 0. -1.
          1   -1    0    0  501    0 -0.00000000000E+00 -0.00000000000E+00 -0.75342938092E+02  0.75342938092E+02  0.00000000000E+00 0. -1.
          2    1    1    2  501    0  0.32720448577E+02 -0.19132217751E+01 -0.89879173227E+01  0.33986332995E+02  0.00000000000E+00 0. -1.
          1    1    1    2  502    0 -0.20103963104E+02  0.23052815814E+01  0.68151557812E+01  0.21352517509E+02  0.00000000000E+00 0. -1.
         22    1    1    2    0    0 -0.32792699871E+02  0.47968523165E+02 -0.11745959745E+02  0.59281598745E+02  0.00000000000E+00 0. -1.
         22    1    1    2    0    0  0.20176214399E+02 -0.48360582971E+02  0.50918386637E+02  0.73065092284E+02  0.00000000000E+00 0. -1.
</event>
<event>
 6    1  0.1715574E-005  0.1111005E+03  0.7818608E-02  0.1259597E+00
          2   -1    0    0  502    0  0.00000000000E+00  0.00000000000E+00  0.58714371012E+02  0.58714371012E+02  0.00000000000E+00 0. -1.
          1   -1    0    0  501    0 -0.00000000000E+00 -0.00000000000E+00 -0.43945943964E+03  0.43945943964E+03  0.00000000000E+00 0. -1.
          2    1    1    2  501    0  0.70128619633E+02  0.12222940077E+02 -0.16986549406E+02  0.73184468410E+02  0.00000000000E+00 0. -1.
          1    1    1    2  502    0 -0.77072051844E+02 -0.73328431205E+01 -0.20960572772E+03  0.22344671145E+03  0.00000000000E+00 0. -1.
         22    1    1    2    0    0 -0.27732294097E+02 -0.26026980979E+01 -0.16325911957E+03  0.16561821849E+03  0.00000000000E+00 0.  1.
         22    1    1    2    0    0  0.34675726307E+02 -0.22873988582E+01  0.91063280679E+01  0.35924412303E+02  0.00000000000E+00 0.  1.
</event>
<event>
 6    1  0.1715574E-005  0.1172134E+03  0.7818608E-02  0.1287667E+00
          2   -1    0    0  502    0  0.00000000000E+00  0.00000000000E+00  0.31770462330E+02  0.31770462330E+02  0.00000000000E+00 0. -1.
          1   -1    0    0  501    0 -0.00000000000E+00 -0.00000000000E+00 -0.30119435238E+03  0.30119435238E+03  0.00000000000E+00 0.  1.
          2    1    1    2  501    0 -0.10585566639E+02  0.30690985612E+02 -0.68639923090E+02  0.75930427766E+02  0.00000000000E+00 0. -1.
          1    1    1    2  502    0 -0.19702616720E+02  0.10049788595E+02 -0.53396285324E+02  0.57795801256E+02  0.00000000000E+00 0.  1.
         22    1    1    2    0    0 -0.30237594715E+02 -0.43546799228E+01 -0.11944611329E+03  0.12329091350E+03  0.00000000000E+00 0.  1.
         22    1    1    2    0    0  0.60525778074E+02 -0.36386094284E+02 -0.27941568341E+02  0.75947672184E+02  0.00000000000E+00 0. -1.
</event>
<event>
 6    1  0.1715574E-005  0.4738871E+02  0.7818608E-02  0.1481891E+00
          2   -1    0    0  502    0  0.00000000000E+00  0.00000000000E+00  0.11322784646E+03  0.11322784646E+03  0.00000000000E+00 0. -1.
          1   -1    0    0  501    0 -0.00000000000E+00 -0.00000000000E+00 -0.10905993782E+03  0.10905993782E+03  0.00000000000E+00 0. -1.
          2    1    1    2  501    0 -0.16193157122E+02  0.13480591190E+02  0.40157335649E+02  0.45349269927E+02  0.00000000000E+00 0. -1.
          1    1    1    2  502    0  0.11110822831E+02  0.36335405869E+02 -0.19927820130E+02  0.42904896210E+02  0.00000000000E+00 0. -1.
         22    1    1    2    0    0 -0.72290054403E+01  0.94251315122E+01  0.45910206016E+02  0.47421921514E+02  0.00000000000E+00 0. -1.
         22    1    1    2    0    0  0.12311339731E+02 -0.59241128572E+02 -0.61971812889E+02  0.86611696630E+02  0.00000000000E+00 0. -1.
</event>
<event>
 6    1  0.1715574E-005  0.1579449E+03  0.7818608E-02  0.1197435E+00
          2   -1    0    0  502    0  0.00000000000E+00  0.00000000000E+00  0.11015357491E+04  0.11015357491E+04  0.00000000000E+00 0. -1.
          1   -1    0    0  501    0 -0.00000000000E+00 -0.00000000000E+00 -0.62722739221E+02  0.62722739221E+02  0.00000000000E+00 0. -1.
          2    1    1    2  501    0  0.28182772518E+02 -0.97471115924E+02  0.87555680712E+03  0.88141625218E+03  0.00000000000E+00 0. -1.
          1    1    1    2  502    0 -0.41023560733E+02  0.30601444639E+02 -0.13869009746E+02  0.53025752051E+02  0.00000000000E+00 0. -1.
         22    1    1    2    0    0  0.12529161049E+02 -0.26053789509E+02  0.11368164802E+03  0.11730002950E+03  0.00000000000E+00 0. -1.
         22    1    1    2    0    0  0.31162716618E+00  0.92923460794E+02  0.63443564463E+02  0.11251645457E+03  0.00000000000E+00 0. -1.
</event>
<event>
 6    1  0.1715574E-005  0.8358483E+02  0.7818608E-02  0.1370279E+00
          2   -1    0    0  502    0  0.00000000000E+00  0.00000000000E+00  0.12726394812E+03  0.12726394812E+03  0.00000000000E+00 0. -1.
          1   -1    0    0  501    0 -0.00000000000E+00 -0.00000000000E+00 -0.55793989538E+03  0.55793989538E+03  0.00000000000E+00 0.  1.
          2    1    1    2  501    0  0.42998758255E+01 -0.50629639901E+02  0.82933211255E+02  0.97261333004E+02  0.00000000000E+00 0. -1.
          1    1    1    2  502    0  0.19536348389E+02  0.48600941507E+02 -0.42819757483E+03  0.43138948007E+03  0.00000000000E+00 0.  1.
         22    1    1    2    0    0 -0.96039400945E+01 -0.29610496686E+02  0.25564207500E+02  0.40280837683E+02  0.00000000000E+00 0.  1.
         22    1    1    2    0    0 -0.14232284120E+02  0.31639195080E+02 -0.11097579118E+03  0.11627219274E+03  0.00000000000E+00 0.  1.
</event>
<event>
 6    1  0.1715574E-005  0.1311612E+03  0.7818608E-02  0.1289128E+00
          2   -1    0    0  502    0  0.00000000000E+00  0.00000000000E+00  0.14730912477E+03  0.14730912477E+03  0.00000000000E+00 0. -1.
          1   -1    0    0  501    0 -0.00000000000E+00 -0.00000000000E+00 -0.17582898877E+03  0.17582898877E+03  0.00000000000E+00 0. -1.
          2    1    1    2  501    0  0.12010471965E+03  0.12339119967E+02 -0.33796334574E+02  0.12537778829E+03  0.00000000000E+00 0. -1.
          1    1    1    2  502    0 -0.38312612276E+02 -0.29843008245E+02 -0.11537385300E+02  0.49915655461E+02  0.00000000000E+00 0. -1.
         22    1    1    2    0    0 -0.91207279839E+02 -0.18804190194E+02 -0.20043078949E+02  0.95258020545E+02  0.00000000000E+00 0. -1.
         22    1    1    2    0    0  0.94151724616E+01  0.36308078472E+02  0.36856934821E+02  0.52586649249E+02  0.00000000000E+00 0. -1.
</event>
<event>
 6    1  0.1715574E-005  0.1258301E+03  0.7818608E-02  0.1237904E+00
          2   -1    0    0  502    0  0.00000000000E+00  0.00000000000E+00  0.47053711738E+03  0.47053711738E+03  0.00000000000E+00 0.  1.
          1   -1    0    0  501    0 -0.00000000000E+00 -0.00000000000E+00 -0.99733519614E+02  0.99733519614E+02  0.00000000000E+00 0. -1.
          2    1    1    2  501    0 -0.63385104563E+02 -0.64990692263E+01  0.15474010063E+03  0.16734517658E+03  0.00000000000E+00 0.  1.
          1    1    1    2  502    0  0.92771319016E+02  0.42769395865E+02 -0.41923167434E+02  0.11042323497E+03  0.00000000000E+00 0. -1.
         22    1    1    2    0    0  0.12370217340E+02  0.30029780604E+00 -0.11779835175E+02  0.17084407293E+02  0.00000000000E+00 0. -1.
         22    1    1    2    0    0 -0.41756431794E+02 -0.36570624444E+02  0.26976649974E+03  0.27541781815E+03  0.00000000000E+00 0.  1.
</event>
<event>
 6    1  0.1715574E-005  0.7605292E+02  0.7818608E-02  0.1391162E+00
          2   -1    0    0  502    0  0.00000000000E+00  0.00000000000E+00  0.49837007568E+03  0.49837007568E+03  0.00000000000E+00 0. -1.
          1   -1    0    0  501    0 -0.00000000000E+00 -0.00000000000E+00 -0.12961584902E+03  0.12961584902E+03  0.00000000000E+00 0.  1.
          2    1    1    2  501    0 -0.65560474733E+02  0.59749005608E+01  0.43703527362E+03  0.44196572907E+03  0.00000000000E+00 0. -1.
          1    1    1    2  502    0  0.43549607795E+02  0.15555033077E+01 -0.27320771000E+02  0.51433573254E+02  0.00000000000E+00 0.  1.
         22    1    1    2    0    0  0.32554283672E+02 -0.37705840976E+01 -0.83972927202E+02  0.90141284618E+02  0.00000000000E+00 0.  1.
         22    1    1    2    0    0 -0.10543416734E+02 -0.37598197709E+01  0.43012651244E+02  0.44445337755E+02  0.00000000000E+00 0. -1.
</event>
<event>
 6    1  0.1715574E-005  0.4794332E+02  0.7818608E-02  0.1460503E+00
          2   -1    0    0  502    0  0.00000000000E+00  0.00000000000E+00  0.14090714889E+03  0.14090714889E+03  0.00000000000E+00 0. -1.
          1   -1    0    0  501    0 -0.00000000000E+00 -0.00000000000E+00 -0.85890530163E+02  0.85890530163E+02  0.00000000000E+00 0. -1.
          2    1    1    2  501    0  0.11266707148E+02  0.27952916676E+02  0.59456690157E+02  0.66658849713E+02  0.00000000000E+00 0. -1.
          1    1    1    2  502    0 -0.60413103307E+00 -0.20029225740E+02 -0.25576369084E+02  0.32491314433E+02  0.00000000000E+00 0. -1.
         22    1    1    2    0    0  0.66512942807E+00  0.13813336593E+02  0.70867251505E+02  0.72204002665E+02  0.00000000000E+00 0. -1.
         22    1    1    2    0    0 -0.11327705543E+02 -0.21737027529E+02 -0.49730953852E+02  0.55443512242E+02  0.00000000000E+00 0. -1.
</event>
<event>
 6    1  0.1715574E-005  0.8774004E+02  0.7818608E-02  0.1312254E+00
          2   -1    0    0  502    0  0.00000000000E+00  0.00000000000E+00  0.16451363050E+03  0.16451363050E+03  0.00000000000E+00 0. -1.
          1   -1    0    0  501    0 -0.00000000000E+00 -0.00000000000E+00 -0.18847716025E+03  0.18847716025E+03  0.00000000000E+00 0.  1.
          2    1    1    2  501    0  0.31399957169E+02 -0.49658621066E+02  0.91442825395E+02  0.10869096684E+03  0.00000000000E+00 0. -1.
          1    1    1    2  502    0 -0.13860660120E+02  0.48119791959E+02 -0.10202773918E+03  0.11365426450E+03  0.00000000000E+00 0.  1.
         22    1    1    2    0    0 -0.33418047463E+02  0.16877869842E+02 -0.64714501256E+02  0.74763594479E+02  0.00000000000E+00 0.  1.
         22    1    1    2    0    0  0.15878750414E+02 -0.15339040735E+02  0.51335885294E+02  0.55881964929E+02  0.00000000000E+00 0.  1.
</event>
<event>
 6    1  0.1715574E-005  0.1448836E+03  0.7818608E-02  0.1284034E+00
          2   -1    0    0  502    0  0.00000000000E+00  0.00000000000E+00  0.35691305798E+03  0.35691305798E+03  0.00000000000E+00 0.  1.
          1   -1    0    0  501    0 -0.00000000000E+00 -0.00000000000E+00 -0.15382142427E+03  0.15382142427E+03  0.00000000000E+00 0.  1.
          2    1    1    2  501    0  0.70922859799E+02  0.98341281376E+02  0.98649187342E+02  0.15630969844E+03  0.00000000000E+00 0.  1.
          1    1    1    2  502    0 -0.76249585214E+02 -0.10814731754E+03 -0.63525592950E+02  0.14678331818E+03  0.00000000000E+00 0.  1.
         22    1    1    2    0    0 -0.17500239247E+02 -0.10618149269E+02 -0.12901836065E+02  0.24196298094E+02  0.00000000000E+00 0.  1.
         22    1    1    2    0    0  0.22826964662E+02  0.20424185433E+02  0.18086987538E+03  0.18344516752E+03  0.00000000000E+00 0.  1.
</event>
<event>
 6    1  0.1715574E-005  0.5361833E+02  0.7818608E-02  0.1430467E+00
          2   -1    0    0  502    0  0.00000000000E+00  0.00000000000E+00  0.23226603291E+03  0.23226603291E+03  0.00000000000E+00 0.  1.
          1   -1    0    0  501    0 -0.00000000000E+00 -0.00000000000E+00 -0.91591793036E+02  0.91591793036E+02  0.00000000000E+00 0. -1.
          2    1    1    2  501    0 -0.13530560350E+02 -0.34527661616E+02  0.14632619426E+03  0.15095227924E+03  0.00000000000E+00 0.  1.
          1    1    1    2  502    0 -0.19565533614E+01  0.31778488714E+02 -0.35282080362E+02  0.47523948075E+02  0.00000000000E+00 0. -1.
         22    1    1    2    0    0  0.34665727327E+01 -0.12423718787E+02  0.74975725614E+02  0.76077101328E+02  0.00000000000E+00 0. -1.
         22    1    1    2    0    0  0.12020540979E+02  0.15172891689E+02 -0.45345599641E+02  0.49304497304E+02  0.00000000000E+00 0. -1.
</event>
<event>
 6    1  0.1715574E-005  0.1100457E+03  0.7818608E-02  0.1269675E+00
          2   -1    0    0  502    0  0.00000000000E+00  0.00000000000E+00  0.71542087392E+03  0.71542087392E+03  0.00000000000E+00 0. -1.
          1   -1    0    0  501    0 -0.00000000000E+00 -0.00000000000E+00 -0.28416232288E+02  0.28416232288E+02  0.00000000000E+00 0.  1.
          2    1    1    2  501    0 -0.31496889173E+02 -0.39728164202E+02  0.40837371475E+03  0.41150877507E+03  0.00000000000E+00 0. -1.
          1    1    1    2  502    0  0.44556097183E+02  0.22783845695E+02  0.53768099502E+02  0.73453100308E+02  0.00000000000E+00 0.  1.
         22    1    1    2    0    0 -0.50908032549E+02  0.15208575658E+02  0.21246842338E+03  0.21901086613E+03  0.00000000000E+00 0. -1.
         22    1    1    2    0    0  0.37848824539E+02  0.17357428488E+01  0.12394404000E+02  0.39864364698E+02  0.00000000000E+00 0.  1.
</event>
<event>
 6    1  0.1715574E-005  0.7003956E+02  0.7818608E-02  0.1365059E+00
          2   -1    0    0  502    0  0.00000000000E+00  0.00000000000E+00  0.18517126101E+03  0.18517126101E+03  0.00000000000E+00 0. -1.
          1   -1    0    0  501    0 -0.00000000000E+00 -0.00000000000E+00 -0.35046888158E+03  0.35046888158E+03  0.00000000000E+00 0. -1.
          2    1    1    2  501    0  0.38920097887E+02 -0.33796964418E+02  0.12940410740E+03  0.13929261228E+03  0.00000000000E+00 0. -1.
          1    1    1    2  502    0 -0.30837763819E+02  0.40685262090E+02 -0.26471030307E+03  0.26958820964E+03  0.00000000000E+00 0. -1.
         22    1    1    2    0    0 -0.18586693271E+02 -0.13082375725E+01 -0.76508968119E+02  0.78745151311E+02  0.00000000000E+00 0.  1.
         22    1    1    2    0    0  0.10504359203E+02 -0.55800601001E+01  0.46517543204E+02  0.48014169354E+02  0.00000000000E+00 0. -1.
</event>
<event>
 6    1  0.1715574E-005  0.1643700E+03  0.7818608E-02  0.1184202E+00
          2   -1    0    0  502    0  0.00000000000E+00  0.00000000000E+00  0.29719057469E+03  0.29719057469E+03  0.00000000000E+00 0. -1.
          1   -1    0    0  501    0 -0.00000000000E+00 -0.00000000000E+00 -0.11967527324E+03  0.11967527324E+03  0.00000000000E+00 0. -1.
          2    1    1    2  501    0  0.12094854251E+03 -0.75469912080E+02  0.16083570834E+03  0.21492413229E+03  0.00000000000E+00 0. -1.
          1    1    1    2  502    0 -0.17740283731E+02  0.26947279438E+02 -0.15994697118E+01  0.32302195581E+02  0.00000000000E+00 0. -1.
         22    1    1    2    0    0  0.12147272742E+02 -0.15803067754E+02  0.31101239882E+02  0.36940226146E+02  0.00000000000E+00 0.  1.
         22    1    1    2    0    0 -0.11535553152E+03  0.64325700396E+02 -0.12822177053E+02  0.13269929392E+03  0.00000000000E+00 0. -1.
</event>
<event>
 6    1  0.1715574E-005  0.5618708E+02  0.7818608E-02  0.1415529E+00
          2   -1    0    0  502    0  0.00000000000E+00  0.00000000000E+00  0.16073883701E+03  0.16073883701E+03  0.00000000000E+00 0. -1.
          1   -1    0    0  501    0 -0.00000000000E+00 -0.00000000000E+00 -0.14333997497E+03  0.14333997497E+03  0.00000000000E+00 0. -1.
          2    1    1    2  501    0 -0.26049476243E+02 -0.27788516565E+02  0.92883779713E+02  0.10039010608E+03  0.00000000000E+00 0. -1.
          1    1    1    2  502    0  0.19400435983E+02  0.32633493718E+02 -0.69065095499E+02  0.78811859798E+02  0.00000000000E+00 0. -1.
         22    1    1    2    0    0  0.88067062547E+01  0.11673672909E+02 -0.63630978915E+02  0.65289617795E+02  0.00000000000E+00 0. -1.
         22    1    1    2    0    0 -0.21576659947E+01 -0.16518650062E+02  0.57211156731E+02  0.59587228304E+02  0.00000000000E+00 0. -1.
</event>
<event>
 6    1  0.1715574E-005  0.1185646E+03  0.7818608E-02  0.1261586E+00
          2   -1    0    0  502    0  0.00000000000E+00  0.00000000000E+00  0.40450680229E+03  0.40450680229E+03  0.00000000000E+00 0.  1.
          1   -1    0    0  501    0 -0.00000000000E+00 -0.00000000000E+00 -0.60094013419E+02  0.60094013419E+02  0.00000000000E+00 0.  1.
          2    1    1    2  501    0  0.36324594346E+02  0.22731945742E+02  0.20744808647E+03  0.21182758577E+03  0.00000000000E+00 0.  1.
          1    1    1    2  502    0 -0.46620523768E+02  0.11128227268E+02 -0.17631409345E+02  0.51070316956E+02  0.00000000000E+00 0.  1.
         22    1    1    2    0    0  0.38110381681E+02 -0.56636541235E+02  0.15082641591E+03  0.16555575113E+03  0.00000000000E+00 0.  1.
         22    1    1    2    0    0 -0.27814452260E+02  0.22776368224E+02  0.37696958392E+01  0.36147161862E+02  0.00000000000E+00 0.  1.
</event>
<event>
 6    1  0.1715574E-005  0.7980544E+02  0.7818608E-02  0.1331402E+00
          2   -1    0    0  502    0  0.00000000000E+00  0.00000000000E+00  0.38193456901E+02  0.38193456901E+02  0.00000000000E+00 0.  1.
          1   -1    0    0  501    0 -0.00000000000E+00 -0.00000000000E+00 -0.27284741567E+03  0.27284741567E+03  0.00000000000E+00 0. -1.
          2    1    1    2  501    0  0.39073314792E+02  0.19370161637E+02 -0.24609228783E+02  0.50075355536E+02  0.00000000000E+00 0.  1.
          1    1    1    2  502    0 -0.13208468048E+02 -0.17226820390E+02 -0.62103736354E+02  0.65788304721E+02  0.00000000000E+00 0. -1.
         22    1    1    2    0    0 -0.51947752087E+02 -0.19837551162E+02 -0.15341987329E+03  0.16318625832E+03  0.00000000000E+00 0. -1.
         22    1    1    2    0    0  0.26082905342E+02  0.17694209914E+02  0.54788796553E+01  0.31990954000E+02  0.00000000000E+00 0.  1.
</event>
<event>
 6    1  0.1715574E-005  0.1114769E+03  0.7818608E-02  0.1313700E+00
          2   -1    0    0  502    0  0.00000000000E+00  0.00000000000E+00  0.55905048611E+03  0.55905048611E+03  0.00000000000E+00 0. -1.
          1   -1    0    0  501    0 -0.00000000000E+00 -0.00000000000E+00 -0.65643836666E+02  0.65643836666E+02  0.00000000000E+00 0.  1.
          2    1    1    2  501    0 -0.10312913747E+03  0.41025104026E+02  0.31463068000E+03  0.33363324617E+03  0.00000000000E+00 0. -1.
          1    1    1    2  502    0  0.58397690104E+02  0.84110494712E+01 -0.33926222999E+01  0.59097765176E+02  0.00000000000E+00 0.  1.
         22    1    1    2    0    0 -0.66838293046E+01 -0.38297303725E+02  0.17452548733E+03  0.17880297194E+03  0.00000000000E+00 0. -1.
         22    1    1    2    0    0  0.51415276673E+02 -0.11138849772E+02  0.76431044199E+01  0.53160339491E+02  0.00000000000E+00 0.  1.
</event>
<event>
 6    1  0.1715574E-005  0.1359154E+03  0.7818608E-02  0.1233892E+00
          2   -1    0    0  502    0  0.00000000000E+00  0.00000000000E+00  0.44632725338E+03  0.44632725338E+03  0.00000000000E+00 0. -1.
          1   -1    0    0  501    0 -0.00000000000E+00 -0.00000000000E+00 -0.35067787785E+02  0.35067787785E+02  0.00000000000E+00 0.  1.
          2    1    1    2  501    0 -0.46199411493E+02 -0.13039816691E+02  0.70391221371E+02  0.85201798618E+02  0.00000000000E+00 0. -1.
          1    1    1    2  502    0 -0.39136285002E+02  0.27876186121E+02  0.54661394487E+02  0.72777734257E+02  0.00000000000E+00 0.  1.
         22    1    1    2    0    0  0.50347755084E+00 -0.37720668438E+02  0.18754140203E+03  0.19129788236E+03  0.00000000000E+00 0. -1.
         22    1    1    2    0    0  0.84832218944E+02  0.22884299009E+02  0.98665447703E+02  0.13211762593E+03  0.00000000000E+00 0.  1.
</event>
<event>
 6    1  0.1715574E-005  0.9312862E+02  0.7818608E-02  0.1372629E+00
          2   -1    0    0  502    0  0.00000000000E+00  0.00000000000E+00  0.17729682342E+04  0.17729682342E+04  0.00000000000E+00 0. -1.
          1   -1    0    0  501    0 -0.00000000000E+00 -0.00000000000E+00 -0.37112439866E+02  0.37112439866E+02  0.00000000000E+00 0. -1.
          2    1    1    2  501    0 -0.81316295536E+02  0.44049038542E+02  0.13045731173E+04  0.13078469620E+04  0.00000000000E+00 0. -1.
          1    1    1    2  502    0 -0.67132283240E+01  0.39505707724E+02  0.31687887584E+01  0.40197134220E+02  0.00000000000E+00 0. -1.
         22    1    1    2    0    0  0.23401610081E+02 -0.58734186528E+01  0.21186142967E+01  0.24220258620E+02  0.00000000000E+00 0.  1.
         22    1    1    2    0    0  0.64627913779E+02 -0.77681327613E+02  0.42599527399E+03  0.43781631921E+03  0.00000000000E+00 0.  1.
</event>
<event>
 6    1  0.1715574E-005  0.1987985E+03  0.7818608E-02  0.1150883E+00
          2   -1    0    0  502    0  0.00000000000E+00  0.00000000000E+00  0.25918695777E+03  0.25918695777E+03  0.00000000000E+00 0. -1.
          1   -1    0    0  501    0 -0.00000000000E+00 -0.00000000000E+00 -0.27385470250E+03  0.27385470250E+03  0.00000000000E+00 0.  1.
          2    1    1    2  501    0 -0.40052278589E+02  0.12705739494E+02  0.48555937395E+02  0.64212926211E+02  0.00000000000E+00 0. -1.
          1    1    1    2  502    0  0.17700803450E+03  0.12633547945E+02 -0.17441604546E+03  0.24882204027E+03  0.00000000000E+00 0.  1.
         22    1    1    2    0    0  0.17721152317E+02 -0.85024132669E+01 -0.10678098238E+02  0.22368550529E+02  0.00000000000E+00 0. -1.
         22    1    1    2    0    0 -0.15467690823E+03 -0.16836874172E+02  0.12187046157E+03  0.19763814327E+03  0.00000000000E+00 0. -1.
</event>
<event>
 6    1  0.1715574E-005  0.6269286E+02  0.7818608E-02  0.1478762E+00
          2   -1    0    0  502    0  0.00000000000E+00  0.00000000000E+00  0.66614179049E+02  0.66614179049E+02  0.00000000000E+00 0. -1.
          1   -1    0    0  501    0 -0.00000000000E+00 -0.00000000000E+00 -0.23472353403E+03  0.23472353403E+03  0.00000000000E+00 0.  1.
          2    1    1    2  501    0  0.42194687852E+02 -0.28060861888E+02 -0.91542657204E+01  0.51493730043E+02  0.00000000000E+00 0. -1.
          1    1    1    2  502    0 -0.18575651067E+02  0.27243997955E+02 -0.10944688754E+03  0.11430621780E+03  0.00000000000E+00 0.  1.
         22    1    1    2    0    0 -0.27788687473E+02  0.15879875457E+02 -0.88189736500E+02  0.93817968534E+02  0.00000000000E+00 0. -1.
         22    1    1    2    0    0  0.41696506878E+01 -0.15063011525E+02  0.38681534781E+02  0.41719796693E+02  0.00000000000E+00 0. -1.
</event>
<event>
 6    1  0.1715574E-005  0.1630827E+03  0.7818608E-02  0.1188571E+00
          2   -1    0    0  502    0  0.00000000000E+00  0.00000000000E+00  0.44385464144E+03  0.44385464144E+03  0.00000000000E+00 0. -1.
          1   -1    0    0  501    0 -0.00000000000E+00 -0.00000000000E+00 -0.80021905787E+02  0.80021905787E+02  0.00000000000E+00 0. -1.
          2    1    1    2  501    0 -0.24273423850E+02 -0.11615504997E+03  0.22626868752E+03  0.25549699351E+03  0.00000000000E+00 0. -1.
          1    1    1    2  502    0 -0.34844818648E+02  0.75146822324E+02  0.24280705495E+02  0.86317778883E+02  0.00000000000E+00 0. -1.
         22    1    1    2    0    0  0.43835845609E+02  0.67116415322E+02  0.18093137056E+02  0.82180022965E+02  0.00000000000E+00 0. -1.
         22    1    1    2    0    0  0.15282396888E+02 -0.26108187678E+02  0.95190205583E+02  0.99881751874E+02  0.00000000000E+00 0.  1.
</event>
<event>
 6    1  0.1715574E-005  0.6159990E+02  0.7818608E-02  0.1391908E+00
          2   -1    0    0  502    0  0.00000000000E+00  0.00000000000E+00  0.17670544243E+03  0.17670544243E+03  0.00000000000E+00 0.  1.
          1   -1    0    0  501    0 -0.00000000000E+00 -0.00000000000E+00 -0.17868120490E+03  0.17868120490E+03  0.00000000000E+00 0.  1.
          2    1    1    2  501    0 -0.23395678447E+02 -0.97255018703E+01  0.92456730162E+02  0.95865479234E+02  0.00000000000E+00 0.  1.
          1    1    1    2  502    0  0.43082443853E+02  0.75892589460E+01 -0.12065004216E+03  0.12833599064E+03  0.00000000000E+00 0.  1.
         22    1    1    2    0    0  0.12450716316E+02  0.12781950691E+02 -0.47133605774E+02  0.50398168553E+02  0.00000000000E+00 0. -1.
         22    1    1    2    0    0 -0.32137481722E+02 -0.10645707767E+02  0.73351155297E+02  0.80787008910E+02  0.00000000000E+00 0. -1.
</event>
<event>
 6    1  0.1715574E-005  0.1400038E+03  0.7818608E-02  0.1242391E+00
          2   -1    0    0  502    0  0.00000000000E+00  0.00000000000E+00  0.99107359437E+02  0.99107359437E+02  0.00000000000E+00 0. -1.
          1   -1    0    0  501    0 -0.00000000000E+00 -0.00000000000E+00 -0.12312448575E+03  0.12312448575E+03  0.00000000000E+00 0. -1.
          2    1    1    2  501    0 -0.11995041796E+02 -0.28367492727E+02  0.17523679486E+02  0.35435504992E+02  0.00000000000E+00 0. -1.
          1    1    1    2  502    0  0.31505374094E+02 -0.23872600126E+02  0.27105312399E+01  0.39621163703E+02  0.00000000000E+00 0. -1.
         22    1    1    2    0    0 -0.30448919523E+02  0.92630068773E+02 -0.38940892993E+02  0.10499456885E+03  0.00000000000E+00 0. -1.
         22    1    1    2    0    0  0.10938587226E+02 -0.40389975920E+02 -0.53104440495E+01  0.42180607645E+02  0.00000000000E+00 0. -1.
</event>
<event>
 6    1  0.1715574E-005  0.2210875E+03  0.7818608E-02  0.1133131E+00
          2   -1    0    0  502    0  0.00000000000E+00  0.00000000000E+00  0.23537645440E+03  0.23537645440E+03  0.00000000000E+00 0.  1.
          1   -1    0    0  501    0 -0.00000000000E+00 -0.00000000000E+00 -0.37274064867E+03  0.37274064867E+03  0.00000000000E+00 0.  1.
          2    1    1    2  501    0  0.16733560943E+03 -0.11658164359E+03  0.12825007374E+03  0.24091609996E+03  0.00000000000E+00 0.  1.
          1    1    1    2  502    0 -0.30880188728E+02  0.43629892574E+02 -0.48063861982E+02  0.71883853615E+02  0.00000000000E+00 0.  1.
         22    1    1    2    0    0  0.29054746563E+01 -0.16349656553E+02  0.55620920728E+01  0.17512564650E+02  0.00000000000E+00 0.  1.
         22    1    1    2    0    0 -0.13936089536E+03  0.89301407568E+02 -0.22311249810E+03  0.27780458484E+03  0.00000000000E+00 0.  1.
</event>
<event>
 6    1  0.1715574E-005  0.3933258E+02  0.7818608E-02  0.1573786E+00
          2   -1    0    0  502    0  0.00000000000E+00  0.00000000000E+00  0.12640158289E+03  0.12640158289E+03  0.00000000000E+00 0. -1.
          1   -1    0    0  501    0 -0.00000000000E+00 -0.00000000000E+00 -0.11751753755E+03  0.11751753755E+03  0.00000000000E+00 0. -1.
          2    1    1    2  501    0 -0.14490675600E+02 -0.20675755807E+02  0.62335952961E+02  0.67255019063E+02  0.00000000000E+00 0. -1.
          1    1    1    2  502    0  0.19098141541E+02  0.17685334387E+02 -0.49019400917E+02  0.55501456998E+02  0.00000000000E+00 0. -1.
         22    1    1    2    0    0  0.22599705448E+01 -0.13571761140E+02  0.56238893412E+02  0.57897437763E+02  0.00000000000E+00 0. -1.
         22    1    1    2    0    0 -0.68674364859E+01  0.16562182560E+02 -0.60671400122E+02  0.63265206614E+02  0.00000000000E+00 0. -1.
</event>
<event>
 6    1  0.1715574E-005  0.1228873E+03  0.7818608E-02  0.1280620E+00
          2   -1    0    0  502    0  0.00000000000E+00  0.00000000000E+00  0.97632205979E+02  0.97632205979E+02  0.00000000000E+00 0.  1.
          1   -1    0    0  501    0 -0.00000000000E+00 -0.00000000000E+00 -0.18586337664E+03  0.18586337664E+03  0.00000000000E+00 0. -1.
          2    1    1    2  501    0  0.18393668381E+02  0.21520515879E+02  0.47353056513E+02  0.55170386996E+02  0.00000000000E+00 0.  1.
          1    1    1    2  502    0  0.16035508553E+02 -0.38341229659E+02 -0.75746571179E+01  0.42244086649E+02  0.00000000000E+00 0. -1.
         22    1    1    2    0    0  0.15171924439E+02  0.17859529766E+02  0.19478534767E+02  0.30472338462E+02  0.00000000000E+00 0. -1.
         22    1    1    2    0    0 -0.49601101373E+02 -0.10388159856E+01 -0.14748810483E+03  0.15560877052E+03  0.00000000000E+00 0. -1.
</event>
<event>
 6    1  0.1715574E-005  0.1037653E+03  0.7818608E-02  0.1273585E+00
          2   -1    0    0  502    0  0.00000000000E+00  0.00000000000E+00  0.65703541780E+02  0.65703541780E+02  0.00000000000E+00 0.  1.
          1   -1    0    0  501    0 -0.00000000000E+00 -0.00000000000E+00 -0.56630553616E+03  0.56630553616E+03  0.00000000000E+00 0. -1.
          2    1    1    2  501    0  0.21649351497E+01 -0.20456978406E+02  0.36291426300E+01  0.20888886661E+02  0.00000000000E+00 0.  1.
          1    1    1    2  502    0 -0.45676088463E+02  0.71924545780E+02 -0.45571892340E+03  0.46361533893E+03  0.00000000000E+00 0. -1.
         22    1    1    2    0    0  0.55077940885E+02 -0.62345812582E+02  0.12800819973E+02  0.84169120885E+02  0.00000000000E+00 0.  1.
         22    1    1    2    0    0 -0.11566787571E+02  0.10878245208E+02 -0.61313033589E+02  0.63335731474E+02  0.00000000000E+00 0. -1.
</event>
<event>
 6    1  0.1715574E-005  0.5377236E+02  0.7818608E-02  0.1461223E+00
          2   -1    0    0  502    0  0.00000000000E+00  0.00000000000E+00  0.98667979218E+02  0.98667979218E+02  0.00000000000E+00 0.  1.
          1   -1    0    0  501    0 -0.00000000000E+00 -0.00000000000E+00 -0.20239539682E+03  0.20239539682E+03  0.00000000000E+00 0. -1.
          2    1    1    2  501    0 -0.30562432150E+02  0.17323298523E+02  0.18289976174E+02  0.39606592370E+02  0.00000000000E+00 0.  1.
          1    1    1    2  502    0  0.11875516686E+02 -0.36348560260E+02 -0.12744180562E+03  0.13305509968E+03  0.00000000000E+00 0. -1.
         22    1    1    2    0    0  0.48320770398E+01  0.31476433399E+02  0.61531198864E+02  0.69283499202E+02  0.00000000000E+00 0.  1.
         22    1    1    2    0    0  0.13854838425E+02 -0.12451171662E+02 -0.56106787018E+02  0.59118184792E+02  0.00000000000E+00 0. -1.
</event>
<event>
 6    1  0.1715574E-005  0.4300241E+02  0.7818608E-02  0.1514774E+00
          2   -1    0    0  502    0  0.00000000000E+00  0.00000000000E+00  0.19819040342E+03  0.19819040342E+03  0.00000000000E+00 0.  1.
          1   -1    0    0  501    0 -0.00000000000E+00 -0.00000000000E+00 -0.17669345058E+03  0.17669345058E+03  0.00000000000E+00 0.  1.
          2    1    1    2  501    0  0.79887275293E+02 -0.12683230632E+02  0.87875196345E+02  0.11943572006E+03  0.00000000000E+00 0.  1.
          1    1    1    2  502    0 -0.97960164766E+02 -0.13148095642E+02 -0.71693229825E+02  0.12210235666E+03  0.00000000000E+00 0.  1.
         22    1    1    2    0    0  0.26591745076E+01  0.13395724707E+02 -0.61840646850E+02  0.63330737026E+02  0.00000000000E+00 0. -1.
         22    1    1    2    0    0  0.15413714965E+02  0.12435601567E+02  0.67155633172E+02  0.70015040256E+02  0.00000000000E+00 0.  1.
</event>
<event>
 6    1  0.1715574E-005  0.2084525E+03  0.7818608E-02  0.1163608E+00
          2   -1    0    0  502    0  0.00000000000E+00  0.00000000000E+00  0.78191566588E+02  0.78191566588E+02  0.00000000000E+00 0.  1.
          1   -1    0    0  501    0 -0.00000000000E+00 -0.00000000000E+00 -0.15396930477E+04  0.15396930477E+04  0.00000000000E+00 0.  1.
          2    1    1    2  501    0 -0.46519559453E+02 -0.44001156904E+02 -0.29850509389E+02  0.70648596104E+02  0.00000000000E+00 0.  1.
          1    1    1    2  502    0  0.70404230786E+02 -0.11364450112E+01 -0.14109698629E+04  0.14127257346E+04  0.00000000000E+00 0.  1.
         22    1    1    2    0    0 -0.37927348472E+02  0.49114451493E+01  0.43217602870E+02  0.57709334196E+02  0.00000000000E+00 0.  1.
         22    1    1    2    0    0  0.14042677139E+02  0.40226156766E+02 -0.63898711708E+02  0.76800949391E+02  0.00000000000E+00 0.  1.
</event>
<event>
 6    1  0.1715574E-005  0.6090862E+02  0.7818608E-02  0.1460951E+00
          2   -1    0    0  502    0  0.00000000000E+00  0.00000000000E+00  0.63511678849E+02  0.63511678849E+02  0.00000000000E+00 0.  1.
          1   -1    0    0  501    0 -0.00000000000E+00 -0.00000000000E+00 -0.19189691394E+03  0.19189691394E+03  0.00000000000E+00 0. -1.
          2    1    1    2  501    0 -0.13684512931E+02 -0.40915165238E+02 -0.26542586547E+02  0.50653978534E+02  0.00000000000E+00 0.  1.
          1    1    1    2  502    0  0.15128128370E+02  0.39301661488E+02 -0.65561311483E+02  0.77921540200E+02  0.00000000000E+00 0. -1.
         22    1    1    2    0    0 -0.16645404206E+02 -0.14383360216E+02  0.40963996169E+02  0.46497306528E+02  0.00000000000E+00 0.  1.
         22    1    1    2    0    0  0.15201788767E+02  0.15996863966E+02 -0.77245333231E+02  0.80335767529E+02  0.00000000000E+00 0.  1.
</event>
<event>
 6    1  0.1715574E-005  0.7235832E+02  0.7818608E-02  0.1367220E+00
          2   -1    0    0  502    0  0.00000000000E+00  0.00000000000E+00  0.22651374306E+03  0.22651374306E+03  0.00000000000E+00 0.  1.
          1   -1    0    0  501    0 -0.00000000000E+00 -0.00000000000E+00 -0.14465571449E+03  0.14465571449E+03  0.00000000000E+00 0. -1.
          2    1    1    2  501    0 -0.74476733617E+02  0.35908105854E+02  0.20493632709E+02  0.85183125664E+02  0.00000000000E+00 0.  1.
          1    1    1    2  502    0  0.28977656143E+02 -0.10508509734E+03 -0.29779716257E+02  0.11300183068E+03  0.00000000000E+00 0. -1.
         22    1    1    2    0    0  0.17664324954E+01  0.57341498957E+02  0.10988208238E+03  0.12395660456E+03  0.00000000000E+00 0.  1.
         22    1    1    2    0    0  0.43732644978E+02  0.11835492524E+02 -0.18737970253E+02  0.49027896643E+02  0.00000000000E+00 0.  1.
</event>
<event>
 6    1  0.1715574E-005  0.1220758E+03  0.7818608E-02  0.1246316E+00
          2   -1    0    0  502    0  0.00000000000E+00  0.00000000000E+00  0.22952989538E+03  0.22952989538E+03  0.00000000000E+00 0. -1.
          1   -1    0    0  501    0 -0.00000000000E+00 -0.00000000000E+00 -0.78149639297E+02  0.78149639297E+02  0.00000000000E+00 0. -1.
          2    1    1    2  501    0 -0.11339065912E+02  0.19216651075E+02  0.13913444313E+01  0.22355982055E+02  0.00000000000E+00 0. -1.
          1    1    1    2  502    0  0.45864314116E+02 -0.64599479601E+02 -0.67027669576E+01  0.79508208123E+02  0.00000000000E+00 0. -1.
         22    1    1    2    0    0  0.24281274687E+02 -0.13071653219E+02 -0.10636365786E+01  0.27596734246E+02  0.00000000000E+00 0.  1.
         22    1    1    2    0    0 -0.58806522891E+02  0.58454481744E+02  0.15775531519E+03  0.17821861025E+03  0.00000000000E+00 0. -1.
</event>
<event>
 6    1  0.1715574E-005  0.7520978E+02  0.7818608E-02  0.1374775E+00
          2   -1    0    0  502    0  0.00000000000E+00  0.00000000000E+00  0.13124198233E+03  0.13124198233E+03  0.00000000000E+00 0.  1.
          1   -1    0    0  501    0 -0.00000000000E+00 -0.00000000000E+00 -0.93679706697E+02  0.93679706697E+02  0.00000000000E+00 0.  1.
          2    1    1    2  501    0  0.10817108458E+02  0.17274897263E+02  0.39996137994E+02  0.44890121021E+02  0.00000000000E+00 0.  1.
          1    1    1    2  502    0 -0.24010841474E+02  0.86112160113E+01 -0.35375356761E+02  0.43612950089E+02  0.00000000000E+00 0.  1.
         22    1    1    2    0    0  0.63173968574E+01  0.21953881206E+02  0.71201316870E+02  0.74776399533E+02  0.00000000000E+00 0.  1.
         22    1    1    2    0    0  0.68763361595E+01 -0.47839994481E+02 -0.38259822474E+02  0.61642218379E+02  0.00000000000E+00 0.  1.
</event>
<event>
 6    1  0.1715574E-005  0.3819600E+02  0.7818608E-02  0.1594075E+00
          2   -1    0    0  502    0  0.00000000000E+00  0.00000000000E+00  0.23180085324E+03  0.23180085324E+03  0.00000000000E+00 0. -1.
          1   -1    0    0  501    0 -0.00000000000E+00 -0.00000000000E+00 -0.13783878407E+03  0.13783878407E+03  0.00000000000E+00 0. -1.
          2    1    1    2  501    0 -0.17013072964E+02 -0.11337452097E+02  0.13392206089E+03  0.13547361686E+03  0.00000000000E+00 0. -1.
          1    1    1    2  502    0  0.26312035274E+02  0.10607754034E+02 -0.96647995368E+02  0.10072577949E+03  0.00000000000E+00 0. -1.
         22    1    1    2    0    0  0.83425389720E+00  0.15235597520E+02 -0.35988552037E+02  0.39089580314E+02  0.00000000000E+00 0. -1.
         22    1    1    2    0    0 -0.10133216207E+02 -0.14505899458E+02  0.92676555689E+02  0.94350660645E+02  0.00000000000E+00 0. -1.
</event>
<event>
 6    1  0.1715574E-005  0.4940590E+02  0.7818608E-02  0.1494110E+00
          2   -1    0    0  502    0  0.00000000000E+00  0.00000000000E+00  0.15922971428E+03  0.15922971428E+03  0.00000000000E+00 0.  1.
          1   -1    0    0  501    0 -0.00000000000E+00 -0.00000000000E+00 -0.65570554572E+02  0.65570554572E+02  0.00000000000E+00 0.  1.
          2    1    1    2  501    0 -0.28729544528E+02  0.44581193391E+01  0.56097271069E+02  0.63183584721E+02  0.00000000000E+00 0.  1.
          1    1    1    2  502    0  0.29536386158E+02 -0.45109098727E+01  0.28835445079E+01  0.30017682190E+02  0.00000000000E+00 0.  1.
         22    1    1    2    0    0  0.21978734999E+02 -0.13434273417E+02 -0.42670944038E+02  0.49843294027E+02  0.00000000000E+00 0.  1.
         22    1    1    2    0    0 -0.22785576629E+02  0.13487063951E+02  0.77349288174E+02  0.81755707919E+02  0.00000000000E+00 0.  1.
</event>
<event>
 6    1  0.1715574E-005  0.1576658E+03  0.7818608E-02  0.1223717E+00
          2   -1    0    0  502    0  0.00000000000E+00  0.00000000000E+00  0.47704026128E+03  0.47704026128E+03  0.00000000000E+00 0.  1.
          1   -1    0    0  501    0 -0.00000000000E+00 -0.00000000000E+00 -0.91076651902E+03  0.91076651902E+03  0.00000000000E+00 0.  1.
          2    1    1    2  501    0  0.13289883344E+03  0.62878274447E+02  0.43786056901E+03  0.46188489391E+03  0.00000000000E+00 0.  1.
          1    1    1    2  502    0 -0.89331952736E+02 -0.96815364729E+01 -0.67959250994E+03  0.68550704555E+03  0.00000000000E+00 0.  1.
         22    1    1    2    0    0 -0.51587371058E+02 -0.59521216873E+02 -0.20744389859E+03  0.22189412605E+03  0.00000000000E+00 0.  1.
         22    1    1    2    0    0  0.80204903532E+01  0.63244788998E+01  0.15449581788E+02  0.18520714788E+02  0.00000000000E+00 0.  1.
</event>
<event>
 6    1  0.1715574E-005  0.1264085E+03  0.7818608E-02  0.1235959E+00
          2   -1    0    0  502    0  0.00000000000E+00  0.00000000000E+00  0.35852682294E+03  0.35852682294E+03  0.00000000000E+00 0. -1.
          1   -1    0    0  501    0 -0.00000000000E+00 -0.00000000000E+00 -0.10532424701E+03  0.10532424701E+03  0.00000000000E+00 0. -1.
          2    1    1    2  501    0 -0.42781851474E+02  0.21983293131E+02 -0.40612505417E+02  0.62951787812E+02  0.00000000000E+00 0. -1.
          1    1    1    2  502    0  0.52365445538E+02 -0.52808275684E+02  0.25119066287E+03  0.26196870611E+03  0.00000000000E+00 0. -1.
         22    1    1    2    0    0 -0.50298097334E+02  0.43202977473E+02 -0.14328086096E+02  0.67835756863E+02  0.00000000000E+00 0. -1.
         22    1    1    2    0    0  0.40714503270E+02 -0.12377994920E+02  0.56952504572E+02  0.71094819163E+02  0.00000000000E+00 0.  1.
</event>
<event>
 6    1  0.1715574E-005  0.1226070E+03  0.7818608E-02  0.1261036E+00
          2   -1    0    0  502    0  0.00000000000E+00  0.00000000000E+00  0.40890847837E+02  0.40890847837E+02  0.00000000000E+00 0.  1.
          1   -1    0    0  501    0 -0.00000000000E+00 -0.00000000000E+00 -0.36530190015E+03  0.36530190015E+03  0.00000000000E+00 0. -1.
          2    1    1    2  501    0  0.44822806591E+02 -0.33103675542E+02 -0.23585778497E+02  0.60508067829E+02  0.00000000000E+00 0.  1.
          1    1    1    2  502    0  0.24162315794E+02 -0.58717195737E+00 -0.38119643289E+02  0.45136121676E+02  0.00000000000E+00 0. -1.
         22    1    1    2    0    0 -0.90865515193E+02  0.31295260701E+02 -0.26139110756E+03  0.27849819802E+03  0.00000000000E+00 0. -1.
         22    1    1    2    0    0  0.21880392809E+02  0.23955867980E+01 -0.13145229685E+01  0.22050360456E+02  0.00000000000E+00 0.  1.
</event>
<event>
 6    1  0.1715574E-005  0.2948815E+03  0.7818608E-02  0.1183336E+00
          2   -1    0    0  502    0  0.00000000000E+00  0.00000000000E+00  0.32095694286E+03  0.32095694286E+03  0.00000000000E+00 0. -1.
          1   -1    0    0  501    0 -0.00000000000E+00 -0.00000000000E+00 -0.31528347023E+03  0.31528347023E+03  0.00000000000E+00 0. -1.
          2    1    1    2  501    0 -0.27193710593E+03  0.37899268298E+02  0.19286801142E+02  0.27524193870E+03  0.00000000000E+00 0. -1.
          1    1    1    2  502    0  0.22703185702E+03 -0.35591774989E+02 -0.16683365433E+02  0.23040957712E+03  0.00000000000E+00 0. -1.
         22    1    1    2    0    0 -0.28762464659E+02 -0.13912738071E+01  0.39114166094E+02  0.48570906985E+02  0.00000000000E+00 0. -1.
         22    1    1    2    0    0  0.73667713576E+02 -0.91621950162E+00 -0.36044129170E+02  0.82017990278E+02  0.00000000000E+00 0.  1.
</event>
<event>
 6    1  0.1715574E-005  0.1431710E+03  0.7818608E-02  0.1257005E+00
          2   -1    0    0  502    0  0.00000000000E+00  0.00000000000E+00  0.31404144555E+02  0.31404144555E+02  0.00000000000E+00 0.  1.
          1   -1    0    0  501    0 -0.00000000000E+00 -0.00000000000E+00 -0.36428716965E+03  0.36428716965E+03  0.00000000000E+00 0.  1.
          2    1    1    2  501    0  0.22566342332E+02  0.11288093700E+02 -0.17099989515E+03  0.17285145358E+03  0.00000000000E+00 0.  1.
          1    1    1    2  502    0 -0.11882914629E+02 -0.20679053216E+02 -0.59279568207E+02  0.63897528190E+02  0.00000000000E+00 0.  1.
         22    1    1    2    0    0 -0.15261324746E+02  0.37332592034E+02  0.11047646062E+02  0.41817232626E+02  0.00000000000E+00 0.  1.
         22    1    1    2    0    0  0.45778970430E+01 -0.27941632518E+02 -0.11365120781E+03  0.11712509981E+03  0.00000000000E+00 0.  1.
</event>
<event>
 6    1  0.1715574E-005  0.1440914E+03  0.7818608E-02  0.1220956E+00
          2   -1    0    0  502    0  0.00000000000E+00  0.00000000000E+00  0.55582464894E+03  0.55582464894E+03  0.00000000000E+00 0. -1.
          1   -1    0    0  501    0 -0.00000000000E+00 -0.00000000000E+00 -0.44930554744E+02  0.44930554744E+02  0.00000000000E+00 0. -1.
          2    1    1    2  501    0 -0.56906740224E+02 -0.51106485261E+01  0.10511683791E+03  0.11964131988E+03  0.00000000000E+00 0. -1.
          1    1    1    2  502    0  0.26305612284E+02  0.79780545010E+02  0.60154766436E+02  0.10332239121E+03  0.00000000000E+00 0. -1.
         22    1    1    2    0    0  0.12741724055E+02 -0.72754401617E+02  0.35127880544E+03  0.35896010035E+03  0.00000000000E+00 0. -1.
         22    1    1    2    0    0  0.17859403885E+02 -0.19154948663E+01 -0.56563155973E+01  0.18831392244E+02  0.00000000000E+00 0.  1.
</event>
<event>
 6    1  0.1715574E-005  0.3645597E+02  0.7818608E-02  0.1582461E+00
          2   -1    0    0  502    0  0.00000000000E+00  0.00000000000E+00  0.14006855862E+03  0.14006855862E+03  0.00000000000E+00 0.  1.
          1   -1    0    0  501    0 -0.00000000000E+00 -0.00000000000E+00 -0.21112419686E+03  0.21112419686E+03  0.00000000000E+00 0.  1.
          2    1    1    2  501    0  0.19586845581E+02  0.89479940423E+01  0.94755339509E+02  0.97171423179E+02  0.00000000000E+00 0.  1.
          1    1    1    2  502    0 -0.21282381751E+02 -0.30508836390E+02 -0.10369550610E+03  0.11016572451E+03  0.00000000000E+00 0.  1.
         22    1    1    2    0    0  0.13224014727E+02  0.49438100684E+01  0.38614989661E+02  0.41114878693E+02  0.00000000000E+00 0.  1.
         22    1    1    2    0    0 -0.11528478558E+02  0.16617032279E+02 -0.10073046131E+03  0.10274072909E+03  0.00000000000E+00 0.  1.
</event>
<event>
 6    1  0.1715574E-005  0.5808273E+02  0.7818608E-02  0.1490201E+00
          2   -1    0    0  502    0  0.00000000000E+00  0.00000000000E+00  0.26891998145E+03  0.26891998145E+03  0.00000000000E+00 0. -1.
          1   -1    0    0  501    0 -0.00000000000E+00 -0.00000000000E+00 -0.55018044690E+02  0.55018044690E+02  0.00000000000E+00 0. -1.
          2    1    1    2  501    0  0.24761444553E+02  0.39410366001E+00  0.12144092657E+03  0.12394024004E+03  0.00000000000E+00 0. -1.
          1    1    1    2  502    0 -0.38074337855E+02 -0.19305885349E+02  0.76825661793E+01  0.43375041617E+02  0.00000000000E+00 0. -1.
         22    1    1    2    0    0  0.30010813157E+02  0.17749962272E+02  0.11603836191E+03  0.12116357333E+03  0.00000000000E+00 0. -1.
         22    1    1    2    0    0 -0.16697919855E+02  0.11618194172E+01 -0.31259917902E+02  0.35459171156E+02  0.00000000000E+00 0. -1.
</event>
<event>
 6    1  0.1715574E-005  0.2709476E+02  0.7818608E-02  0.1692026E+00
          2   -1    0    0  502    0  0.00000000000E+00  0.00000000000E+00  0.36713589828E+03  0.36713589828E+03  0.00000000000E+00 0. -1.
          1   -1    0    0  501    0 -0.00000000000E+00 -0.00000000000E+00 -0.77961679066E+02  0.77961679066E+02  0.00000000000E+00 0.  1.
          2    1    1    2  501    0 -0.16688944140E+02 -0.14277935390E+02  0.28816107033E+03  0.28899685595E+03  0.00000000000E+00 0. -1.
          1    1    1    2  502    0  0.31342118284E+02  0.53386349602E+01 -0.39471184335E+01  0.32037620787E+02  0.00000000000E+00 0.  1.
         22    1    1    2    0    0 -0.11281131080E+02  0.20513456892E+02 -0.56643568099E+02  0.61290779397E+02  0.00000000000E+00 0.  1.
         22    1    1    2    0    0 -0.33720430646E+01 -0.11574156462E+02  0.61603835413E+02  0.62772321208E+02  0.00000000000E+00 0. -1.
</event>
<event>
 6    1  0.1715574E-005  0.1611852E+03  0.7818608E-02  0.1310069E+00
          2   -1    0    0  502    0  0.00000000000E+00  0.00000000000E+00  0.13324800007E+04  0.13324800007E+04  0.00000000000E+00 0.  1.
          1   -1    0    0  501    0 -0.00000000000E+00 -0.00000000000E+00 -0.12256775077E+03  0.12256775077E+03  0.00000000000E+00 0. -1.
          2    1    1    2  501    0 -0.16698719227E+02 -0.99136304594E+02  0.88317549706E+03  0.88887896404E+03  0.00000000000E+00 0.  1.
          1    1    1    2  502    0 -0.92194259078E+02  0.20816677022E+03  0.28582784455E+03  0.36541858512E+03  0.00000000000E+00 0. -1.
         22    1    1    2    0    0  0.95852131674E+02 -0.11333794027E+03 -0.92709949915E+01  0.14872481702E+03  0.00000000000E+00 0. -1.
         22    1    1    2    0    0  0.13040846630E+02  0.43074746422E+01  0.50179903332E+02  0.52025385314E+02  0.00000000000E+00 0. -1.
</event>
<event>
 6    1  0.1715574E-005  0.7547417E+02  0.7818608E-02  0.1432328E+00
          2   -1    0    0  502    0  0.00000000000E+00  0.00000000000E+00  0.20132261475E+03  0.20132261475E+03  0.00000000000E+00 0. -1.
          1   -1    0    0  501    0 -0.00000000000E+00 -0.00000000000E+00 -0.23697549972E+03  0.23697549972E+03  0.00000000000E+00 0. -1.
          2    1    1    2  501    0  0.52324681652E+02 -0.24264698326E+02  0.16804117845E+03  0.17766396807E+03  0.00000000000E+00 0. -1.
          1    1    1    2  502    0 -0.27919079344E+02  0.20268643761E+02 -0.67571592359E+02  0.75869710724E+02  0.00000000000E+00 0. -1.
         22    1    1    2    0    0  0.61227799193E+01 -0.16569268880E+02  0.18642626511E+02  0.25682223977E+02  0.00000000000E+00 0. -1.
         22    1    1    2    0    0 -0.30528382227E+02  0.20565323446E+02 -0.15476509758E+03  0.15908221170E+03  0.00000000000E+00 0. -1.
</event>
<event>
 6    1  0.1715574E-005  0.1053792E+03  0.7818608E-02  0.1295094E+00
          2   -1    0    0  502    0  0.00000000000E+00  0.00000000000E+00  0.28029938175E+03  0.28029938175E+03  0.00000000000E+00 0. -1.
          1   -1    0    0  501    0 -0.00000000000E+00 -0.00000000000E+00 -0.10833740319E+03  0.10833740319E+03  0.00000000000E+00 0.  1.
          2    1    1    2  501    0 -0.84206920725E+02 -0.85059651510E+00  0.15836537429E+03  0.17936309762E+03  0.00000000000E+00 0. -1.
          1    1    1    2  502    0  0.56643318525E+02 -0.21149804947E+02 -0.36540866877E+02  0.70647114130E+02  0.00000000000E+00 0.  1.
         22    1    1    2    0    0  0.36210511663E+01  0.64600984424E+02  0.60601945285E+02  0.88650972767E+02  0.00000000000E+00 0. -1.
         22    1    1    2    0    0  0.23942551034E+02 -0.42600582962E+02 -0.10464474134E+02  0.49975600423E+02  0.00000000000E+00 0.  1.
</event>
<event>
 6    1  0.1715574E-005  0.4898145E+02  0.7818608E-02  0.1541272E+00
          2   -1    0    0  502    0  0.00000000000E+00  0.00000000000E+00  0.15004986760E+03  0.15004986760E+03  0.00000000000E+00 0. -1.
          1   -1    0    0  501    0 -0.00000000000E+00 -0.00000000000E+00 -0.28809355809E+03  0.28809355809E+03  0.00000000000E+00 0. -1.
          2    1    1    2  501    0 -0.14828458752E+02 -0.20561322230E+02  0.55595255185E+02  0.61102238584E+02  0.00000000000E+00 0. -1.
          1    1    1    2  502    0 -0.27733356599E+00  0.38115030478E+02 -0.23806281112E+03  0.24109486619E+03  0.00000000000E+00 0. -1.
         22    1    1    2    0    0  0.13399486159E+02  0.41891347049E+01 -0.43317122026E+02  0.45535350438E+02  0.00000000000E+00 0. -1.
         22    1    1    2    0    0  0.17063061597E+01 -0.21742842953E+02  0.87740987470E+02  0.90410970477E+02  0.00000000000E+00 0. -1.
</event>
<event>
 6    1  0.1715574E-005  0.1017467E+03  0.7818608E-02  0.1288849E+00
          2   -1    0    0  502    0  0.00000000000E+00  0.00000000000E+00  0.11467787708E+04  0.11467787708E+04  0.00000000000E+00 0. -1.
          1   -1    0    0  501    0 -0.00000000000E+00 -0.00000000000E+00 -0.20776602862E+03  0.20776602862E+03  0.00000000000E+00 0.  1.
          2    1    1    2  501    0 -0.83638483390E+02 -0.97321380699E+01  0.10020146801E+04  0.10055463836E+04  0.00000000000E+00 0. -1.
          1    1    1    2  502    0  0.10350264864E+03 -0.76058653376E+02 -0.13015044562E+03  0.18285747325E+03  0.00000000000E+00 0.  1.
         22    1    1    2    0    0 -0.13271555213E+02  0.52883934075E+01  0.82666488151E+02  0.83891892015E+02  0.00000000000E+00 0. -1.
         22    1    1    2    0    0 -0.65926100369E+01  0.80502398039E+02 -0.15517980480E+02  0.82249050543E+02  0.00000000000E+00 0.  1.
</event>
<event>
 6    1  0.1715574E-005  0.8393774E+02  0.7818608E-02  0.1348516E+00
          2   -1    0    0  502    0  0.00000000000E+00  0.00000000000E+00  0.77932157293E+03  0.77932157293E+03  0.00000000000E+00 0.  1.
          1   -1    0    0  501    0 -0.00000000000E+00 -0.00000000000E+00 -0.24992126769E+02  0.24992126769E+02  0.00000000000E+00 0. -1.
          2    1    1    2  501    0  0.14237797498E+02  0.19408202526E+02  0.17401026391E+03  0.17566719998E+03  0.00000000000E+00 0.  1.
          1    1    1    2  502    0  0.56455893928E+02 -0.17748021109E+02  0.36178093887E+03  0.36658929054E+03  0.00000000000E+00 0. -1.
         22    1    1    2    0    0 -0.91260794083E+02 -0.15610447174E+02  0.83265410799E+02  0.12452046913E+03  0.00000000000E+00 0. -1.
         22    1    1    2    0    0  0.20567102657E+02  0.13950265757E+02  0.13527283258E+03  0.13753674004E+03  0.00000000000E+00 0.  1.
</event>
<event>
 6    1  0.1715574E-005  0.8477552E+02  0.7818608E-02  0.1316667E+00
          2   -1    0    0  502    0  0.00000000000E+00  0.00000000000E+00  0.19037356595E+03  0.19037356595E+03  0.00000000000E+00 0. -1.
          1   -1    0    0  501    0 -0.00000000000E+00 -0.00000000000E+00 -0.35343070453E+03  0.35343070453E+03  0.00000000000E+00 0.  1.
          2    1    1    2  501    0 -0.56953496901E+02 -0.17432116230E+02  0.10990447090E+03  0.12500628868E+03  0.00000000000E+00 0. -1.
          1    1    1    2  502    0  0.68239072859E+02  0.21708406464E+02 -0.28324036287E+03  0.29215223623E+03  0.00000000000E+00 0.  1.
         22    1    1    2    0    0  0.11478102449E+02 -0.64055736732E+01 -0.55485198082E+02  0.57020920863E+02  0.00000000000E+00 0.  1.
         22    1    1    2    0    0 -0.22763678407E+02  0.21292834387E+01  0.65763951471E+02  0.69624824708E+02  0.00000000000E+00 0.  1.
</event>
<event>
 6    1  0.1715574E-005  0.4721832E+02  0.7818608E-02  0.1553266E+00
          2   -1    0    0  502    0  0.00000000000E+00  0.00000000000E+00  0.22090969915E+03  0.22090969915E+03  0.00000000000E+00 0. -1.
          1   -1    0    0  501    0 -0.00000000000E+00 -0.00000000000E+00 -0.11984918692E+03  0.11984918692E+03  0.00000000000E+00 0. -1.
          2    1    1    2  501    0 -0.26419029492E+02  0.53594488277E+02  0.13983031157E+03  0.15206199501E+03  0.00000000000E+00 0. -1.
          1    1    1    2  502    0 -0.85056672270E+01 -0.41684666809E+02 -0.32480711592E+02  0.53525269242E+02  0.00000000000E+00 0. -1.
         22    1    1    2    0    0  0.29930990726E+02 -0.21021754509E+02 -0.65519236145E+02  0.75036982039E+02  0.00000000000E+00 0. -1.
         22    1    1    2    0    0  0.49937059924E+01  0.91119330410E+01  0.59230148398E+02  0.60134639789E+02  0.00000000000E+00 0.  1.
</event>
<event>
 6    1  0.1715574E-005  0.6707648E+02  0.7818608E-02  0.1439844E+00
          2   -1    0    0  502    0  0.00000000000E+00  0.00000000000E+00  0.20594876310E+03  0.20594876310E+03  0.00000000000E+00 0. -1.
          1   -1    0    0  501    0 -0.00000000000E+00 -0.00000000000E+00 -0.89727235027E+02  0.89727235027E+02  0.00000000000E+00 0. -1.
          2    1    1    2  501    0  0.21158696342E+02 -0.44361991415E+02  0.96619329622E+02  0.10840189837E+03  0.00000000000E+00 0. -1.
          1    1    1    2  502    0 -0.12578282490E+02  0.55264469171E+02  0.12514025209E+02  0.58042876997E+02  0.00000000000E+00 0. -1.
         22    1    1    2    0    0 -0.22320215475E+02  0.26435413248E+01 -0.57545468448E+02  0.61779132953E+02  0.00000000000E+00 0. -1.
         22    1    1    2    0    0  0.13739801623E+02 -0.13546019081E+02  0.64633641685E+02  0.67452089804E+02  0.00000000000E+00 0. -1.
</event>
<event>
 6    1  0.1715574E-005  0.1043301E+03  0.7818608E-02  0.1333841E+00
          2   -1    0    0  502    0  0.00000000000E+00  0.00000000000E+00  0.54665348347E+03  0.54665348347E+03  0.00000000000E+00 0.  1.
          1   -1    0    0  501    0 -0.00000000000E+00 -0.00000000000E+00 -0.10638955104E+03  0.10638955104E+03  0.00000000000E+00 0.  1.
          2    1    1    2  501    0 -0.85973204752E+02 -0.50315021260E+02  0.38494710841E+03  0.39762704834E+03  0.00000000000E+00 0.  1.
          1    1    1    2  502    0  0.28965404291E+02  0.52677732134E+02 -0.53648743976E+02  0.80573729210E+02  0.00000000000E+00 0.  1.
         22    1    1    2    0    0  0.21491208960E+02 -0.25253023213E+02  0.12524526631E+03  0.12956065752E+03  0.00000000000E+00 0.  1.
         22    1    1    2    0    0  0.35516591502E+02  0.22890312339E+02 -0.16279698307E+02  0.45281599440E+02  0.00000000000E+00 0.  1.
</event>
<event>
 6    1  0.1715574E-005  0.1878234E+03  0.7818608E-02  0.1201628E+00
          2   -1    0    0  502    0  0.00000000000E+00  0.00000000000E+00  0.25594855745E+03  0.25594855745E+03  0.00000000000E+00 0. -1.
          1   -1    0    0  501    0 -0.00000000000E+00 -0.00000000000E+00 -0.26386804223E+03  0.26386804223E+03  0.00000000000E+00 0. -1.
          2    1    1    2  501    0  0.12564478951E+03  0.61650837542E+02  0.64701965080E+01  0.14010461214E+03  0.00000000000E+00 0. -1.
          1    1    1    2  502    0 -0.17762221053E+03 -0.86029275356E+02 -0.98045724305E+02  0.22037161783E+03  0.00000000000E+00 0. -1.
         22    1    1    2    0    0 -0.20808398550E+02  0.84209517911E+01 -0.21085506307E+02  0.30797734584E+02  0.00000000000E+00 0.  1.
         22    1    1    2    0    0  0.72785819570E+02  0.15957486023E+02  0.10474154932E+03  0.12854263513E+03  0.00000000000E+00 0. -1.
</event>
<event>
 6    1  0.1715574E-005  0.4149224E+02  0.7818608E-02  0.1500763E+00
          2   -1    0    0  502    0  0.00000000000E+00  0.00000000000E+00  0.14719309421E+03  0.14719309421E+03  0.00000000000E+00 0. -1.
          1   -1    0    0  501    0 -0.00000000000E+00 -0.00000000000E+00 -0.10156505468E+03  0.10156505468E+03  0.00000000000E+00 0. -1.
          2    1    1    2  501    0 -0.50283759968E+02 -0.22985324693E+02  0.40716323136E+01  0.55437891892E+02  0.00000000000E+00 0. -1.
          1    1    1    2  502    0  0.53821060370E+02 -0.15130976325E+02 -0.34060766713E+01  0.56011198364E+02  0.00000000000E+00 0. -1.
         22    1    1    2    0    0  0.26824597187E+02  0.24378992178E+02 -0.35180861709E+02  0.50513238902E+02  0.00000000000E+00 0. -1.
         22    1    1    2    0    0 -0.30361897590E+02  0.13737308840E+02  0.80143345600E+02  0.86795819735E+02  0.00000000000E+00 0. -1.
</event>
<event>
 6    1  0.1848655E-005  0.8707818E+02  0.7818608E-02  0.1310444E+00
          2   -1    0    0  502    0  0.00000000000E+00  0.00000000000E+00  0.30057706098E+03  0.30057706098E+03  0.00000000000E+00 0.  1.
          1   -1    0    0  501    0 -0.00000000000E+00 -0.00000000000E+00 -0.20921558735E+03  0.20921558735E+03  0.00000000000E+00 0.  1.
          2    1    1    2  501    0 -0.25305913075E+02 -0.69209885760E+02  0.22689698276E+03  0.23856369864E+03  0.00000000000E+00 0.  1.
          1    1    1    2  502    0  0.23577596293E+02  0.61068296657E+02 -0.12791262176E+03  0.14369021786E+03  0.00000000000E+00 0.  1.
         22    1    1    2    0    0  0.17770789013E+01 -0.11630996661E+02  0.57907262916E+02  0.59090516931E+02  0.00000000000E+00 0.  1.
         22    1    1    2    0    0 -0.48762118968E-01  0.19772585765E+02 -0.65530150296E+02  0.68448214903E+02  0.00000000000E+00 0.  1.
</event>
<event>
 6    1  0.1715574E-005  0.1406757E+03  0.7818608E-02  0.1231331E+00
          2   -1    0    0  502    0  0.00000000000E+00  0.00000000000E+00  0.10549518906E+04  0.10549518906E+04  0.00000000000E+00 0. -1.
          1   -1    0    0  501    0 -0.00000000000E+00 -0.00000000000E+00 -0.19125684938E+02  0.19125684938E+02  0.00000000000E+00 0. -1.
          2    1    1    2  501    0 -0.40621352694E+01 -0.58740579547E+02  0.66397725699E+03  0.66658289389E+03  0.00000000000E+00 0. -1.
          1    1    1    2  502    0 -0.10241210181E+02  0.38609982476E+02  0.12938589828E+03  0.13541168268E+03  0.00000000000E+00 0. -1.
         22    1    1    2    0    0 -0.25205311029E+02 -0.27421320461E+02  0.22314930352E+02  0.43418805102E+02  0.00000000000E+00 0. -1.
         22    1    1    2    0    0  0.39508656479E+02  0.47551917532E+02  0.22014812005E+03  0.22866419387E+03  0.00000000000E+00 0. -1.
</event>
<event>
 6    1  0.1715574E-005  0.9640921E+02  0.7818608E-02  0.1356090E+00
          2   -1    0    0  502    0  0.00000000000E+00  0.00000000000E+00  0.94260537623E+03  0.94260537623E+03  0.00000000000E+00 0.  1.
          1   -1    0    0  501    0 -0.00000000000E+00 -0.00000000000E+00 -0.68773648904E+02  0.68773648904E+02  0.00000000000E+00 0.  1.
          2    1    1    2  501    0 -0.47186436906E+02  0.55069861088E+02  0.78792980718E+03  0.79126015347E+03  0.00000000000E+00 0.  1.
          1    1    1    2  502    0  0.36900997902E+01 -0.52191960127E+02 -0.12430370786E+02  0.53778542712E+02  0.00000000000E+00 0.  1.
         22    1    1    2    0    0  0.33396814480E+02 -0.29703951500E+02 -0.16758411417E+02  0.47733806735E+02  0.00000000000E+00 0.  1.
         22    1    1    2    0    0  0.10099522636E+02  0.26826050539E+02  0.11509070236E+03  0.11860652222E+03  0.00000000000E+00 0.  1.
</event>
<event>
 6    1  0.1715574E-005  0.7368099E+02  0.7818608E-02  0.1350466E+00
          2   -1    0    0  502    0  0.00000000000E+00  0.00000000000E+00  0.32794858033E+02  0.32794858033E+02  0.00000000000E+00 0.  1.
          1   -1    0    0  501    0 -0.00000000000E+00 -0.00000000000E+00 -0.39917069724E+03  0.39917069724E+03  0.00000000000E+00 0. -1.
          2    1    1    2  501    0 -0.26565805076E+02  0.58315918944E+01 -0.11518382370E+02  0.29536800703E+02  0.00000000000E+00 0.  1.
          1    1    1    2  502    0  0.35761988870E+02 -0.20539616873E+02 -0.17940484878E+03  0.18408393595E+03  0.00000000000E+00 0. -1.
         22    1    1    2    0    0  0.19548182486E+02 -0.20905674956E+02 -0.16984080456E+03  0.17223552937E+03  0.00000000000E+00 0.  1.
         22    1    1    2    0    0 -0.28744366281E+02  0.35613699935E+02 -0.56118034885E+01  0.46109289241E+02  0.00000000000E+00 0. -1.
</event>
<event>
 6    1  0.1715574E-005  0.3463597E+02  0.7818608E-02  0.1611281E+00
          2   -1    0    0  502    0  0.00000000000E+00  0.00000000000E+00  0.12845223319E+03  0.12845223319E+03  0.00000000000E+00 0.  1.
          1   -1    0    0  501    0 -0.00000000000E+00 -0.00000000000E+00 -0.12849754348E+03  0.12849754348E+03  0.00000000000E+00 0.  1.
          2    1    1    2  501    0 -0.29091182082E+02 -0.37363678931E+02  0.61871311310E+02  0.77912775214E+02  0.00000000000E+00 0.  1.
          1    1    1    2  502    0  0.12414946929E+02  0.34522613737E+02 -0.30967226268E+02  0.48009487284E+02  0.00000000000E+00 0.  1.
         22    1    1    2    0    0  0.19204065950E+02  0.13845775644E+02 -0.78584071846E+02  0.82072882246E+02  0.00000000000E+00 0.  1.
         22    1    1    2    0    0 -0.25278307971E+01 -0.11004710450E+02  0.47634676515E+02  0.48954631929E+02  0.00000000000E+00 0.  1.
</event>
<event>
 6    1  0.1715574E-005  0.7086487E+02  0.7818608E-02  0.1358552E+00
          2   -1    0    0  502    0  0.00000000000E+00  0.00000000000E+00  0.12698544692E+03  0.12698544692E+03  0.00000000000E+00 0.  1.
          1   -1    0    0  501    0 -0.00000000000E+00 -0.00000000000E+00 -0.77418448630E+02  0.77418448630E+02  0.00000000000E+00 0. -1.
          2    1    1    2  501    0  0.20546203239E+02 -0.24775292595E+01  0.52084892409E+02  0.56045701316E+02  0.00000000000E+00 0.  1.
          1    1    1    2  502    0 -0.21380403087E+02  0.14192021622E+02 -0.70770350939E+01  0.26619908708E+02  0.00000000000E+00 0. -1.
         22    1    1    2    0    0 -0.42510040338E+02 -0.22760445239E+01 -0.40320921421E+02  0.58634977722E+02  0.00000000000E+00 0. -1.
         22    1    1    2    0    0  0.43344240187E+02 -0.94384478388E+01  0.44880062395E+02  0.63103307802E+02  0.00000000000E+00 0.  1.
</event>
<event>
 6    1  0.1715574E-005  0.2980287E+02  0.7818608E-02  0.1634233E+00
          2   -1    0    0  502    0  0.00000000000E+00  0.00000000000E+00  0.63686361893E+03  0.63686361893E+03  0.00000000000E+00 0. -1.
          1   -1    0    0  501    0 -0.00000000000E+00 -0.00000000000E+00 -0.32888382196E+02  0.32888382196E+02  0.00000000000E+00 0. -1.
          2    1    1    2  501    0  0.33536151154E+02 -0.20584673471E+02  0.45381040378E+03  0.45551321034E+03  0.00000000000E+00 0. -1.
          1    1    1    2  502    0 -0.17968764277E+02  0.19262626180E+02  0.12641789494E+02  0.29218831233E+02  0.00000000000E+00 0. -1.
         22    1    1    2    0    0  0.11067234535E+02  0.14902968437E+02 -0.18470844751E+02  0.26186909981E+02  0.00000000000E+00 0. -1.
         22    1    1    2    0    0 -0.26634621412E+02 -0.13580921146E+02  0.15599388821E+03  0.15883304958E+03  0.00000000000E+00 0.  1.
</event>
<event>
 6    1  0.1715574E-005  0.2413801E+02  0.7818608E-02  0.1704268E+00
          2   -1    0    0  502    0  0.00000000000E+00  0.00000000000E+00  0.12685596598E+03  0.12685596598E+03  0.00000000000E+00 0. -1.
          1   -1    0    0  501    0 -0.00000000000E+00 -0.00000000000E+00 -0.18896682483E+03  0.18896682483E+03  0.00000000000E+00 0. -1.
          2    1    1    2  501    0 -0.19706134356E+02  0.19798193107E+02  0.53916265415E+02  0.60722844613E+02  0.00000000000E+00 0. -1.
          1    1    1    2  502    0  0.25880762971E+02 -0.12552446663E+02 -0.12405678676E+03  0.12734780780E+03  0.00000000000E+00 0. -1.
         22    1    1    2    0    0 -0.73945780076E+01  0.82490898559E+01  0.66415399784E+02  0.67332997823E+02  0.00000000000E+00 0.  1.
         22    1    1    2    0    0  0.12199493931E+01 -0.15494836299E+02 -0.58385737297E+02  0.60419140578E+02  0.00000000000E+00 0. -1.
</event>
<event>
 6    1  0.1715574E-005  0.7763842E+02  0.7818608E-02  0.1341385E+00
          2   -1    0    0  502    0  0.00000000000E+00  0.00000000000E+00  0.98554585673E+02  0.98554585673E+02  0.00000000000E+00 0.  1.
          1   -1    0    0  501    0 -0.00000000000E+00 -0.00000000000E+00 -0.33105350801E+03  0.33105350801E+03  0.00000000000E+00 0. -1.
          2    1    1    2  501    0  0.48099782063E+02 -0.14276012341E+02  0.45123799717E+02  0.67480003437E+02  0.00000000000E+00 0.  1.
          1    1    1    2  502    0 -0.46486643901E+02  0.28804968840E+02 -0.22145952636E+03  0.22811193766E+03  0.00000000000E+00 0. -1.
         22    1    1    2    0    0 -0.10188019171E+02  0.11050883357E+02 -0.89713614063E+02  0.90964005550E+02  0.00000000000E+00 0. -1.
         22    1    1    2    0    0  0.85748810090E+01 -0.25579839855E+02  0.33550418366E+02  0.43052147030E+02  0.00000000000E+00 0. -1.
</event>
<event>
 6    1  0.1715574E-005  0.1939830E+03  0.7818608E-02  0.1165441E+00
          2   -1    0    0  502    0  0.00000000000E+00  0.00000000000E+00  0.11570385160E+03  0.11570385160E+03  0.00000000000E+00 0. -1.
          1   -1    0    0  501    0 -0.00000000000E+00 -0.00000000000E+00 -0.51359780202E+03  0.51359780202E+03  0.00000000000E+00 0. -1.
          2    1    1    2  501    0 -0.48968056782E+02 -0.67335558609E+02 -0.42285163880E+03  0.43097036612E+03  0.00000000000E+00 0. -1.
          1    1    1    2  502    0  0.37647515103E+02  0.18596993670E+02  0.50313159664E+02  0.65533179400E+02  0.00000000000E+00 0. -1.
         22    1    1    2    0    0  0.39598836086E+02  0.79335755158E+02 -0.16103121222E+02  0.90119589318E+02  0.00000000000E+00 0.  1.
         22    1    1    2    0    0 -0.28278294407E+02 -0.30597190219E+02 -0.92523500653E+01  0.42678518784E+02  0.00000000000E+00 0. -1.
</event>
<event>
 6    1  0.1715574E-005  0.2388008E+03  0.7818608E-02  0.1150110E+00
          2   -1    0    0  502    0  0.00000000000E+00  0.00000000000E+00  0.34243813678E+02  0.34243813678E+02  0.00000000000E+00 0.  1.
          1   -1    0    0  501    0 -0.00000000000E+00 -0.00000000000E+00 -0.95702479909E+03  0.95702479909E+03  0.00000000000E+00 0. -1.
          2    1    1    2  501    0  0.21063912836E+02 -0.90330550526E+02 -0.18637577290E+03  0.20818075201E+03  0.00000000000E+00 0.  1.
          1    1    1    2  502    0 -0.82216810932E+02 -0.24128618408E+02 -0.22580362673E+03  0.24151412396E+03  0.00000000000E+00 0. -1.
         22    1    1    2    0    0  0.68557879967E+02  0.13606773822E+03 -0.47851925898E+03  0.50219049524E+03  0.00000000000E+00 0. -1.
         22    1    1    2    0    0 -0.74049818708E+01 -0.21608569289E+02 -0.32082326791E+02  0.39383241558E+02  0.00000000000E+00 0.  1.
</event>
<event>
 6    1  0.1715574E-005  0.8846011E+02  0.7818608E-02  0.1307163E+00
          2   -1    0    0  502    0  0.00000000000E+00  0.00000000000E+00  0.31751523672E+03  0.31751523672E+03  0.00000000000E+00 0.  1.
          1   -1    0    0  501    0 -0.00000000000E+00 -0.00000000000E+00 -0.23006306101E+03  0.23006306101E+03  0.00000000000E+00 0.  1.
          2    1    1    2  501    0 -0.57402666168E+02  0.17542505663E+02  0.24297798473E+03  0.25028205419E+03  0.00000000000E+00 0.  1.
          1    1    1    2  502    0  0.64580625519E+02 -0.25360528783E+02 -0.15887363673E+03  0.17336275858E+03  0.00000000000E+00 0.  1.
         22    1    1    2    0    0 -0.25070213343E+02  0.28133780691E+01  0.59585696631E+02  0.64706150684E+02  0.00000000000E+00 0. -1.
         22    1    1    2    0    0  0.17892253993E+02  0.50046450511E+01 -0.56237868919E+02  0.59227334277E+02  0.00000000000E+00 0. -1.
</event>
<event>
 6    1  0.1715574E-005  0.3642192E+02  0.7818608E-02  0.1600549E+00
          2   -1    0    0  502    0  0.00000000000E+00  0.00000000000E+00  0.24671586657E+03  0.24671586657E+03  0.00000000000E+00 0.  1.
          1   -1    0    0  501    0 -0.00000000000E+00 -0.00000000000E+00 -0.23734989561E+03  0.23734989561E+03  0.00000000000E+00 0.  1.
          2    1    1    2  501    0  0.18642483508E+02  0.15873653898E+02  0.19788196351E+03  0.19939103932E+03  0.00000000000E+00 0.  1.
          1    1    1    2  502    0 -0.10442238258E+02 -0.29786844436E+02 -0.14527259769E+03  0.14866211380E+03  0.00000000000E+00 0.  1.
         22    1    1    2    0    0 -0.15134677413E+02  0.59852650162E+01 -0.88276449802E+02  0.89764210281E+02  0.00000000000E+00 0. -1.
         22    1    1    2    0    0  0.69344321624E+01  0.79279255213E+01  0.45033054937E+02  0.46248398778E+02  0.00000000000E+00 0. -1.
</event>
<event>
 6    1  0.1715574E-005  0.1361627E+03  0.7818608E-02  0.1255803E+00
          2   -1    0    0  502    0  0.00000000000E+00  0.00000000000E+00  0.34163207499E+02  0.34163207499E+02  0.00000000000E+00 0.  1.
          1   -1    0    0  501    0 -0.00000000000E+00 -0.00000000000E+00 -0.12748763840E+04  0.12748763840E+04  0.00000000000E+00 0.  1.
          2    1    1    2  501    0 -0.29169304416E+02 -0.12092576514E+02  0.49821472802E+01  0.31967178768E+02  0.00000000000E+00 0.  1.
          1    1    1    2  502    0  0.36098708400E+02 -0.41371592649E+02 -0.93226328219E+03  0.93387876769E+03  0.00000000000E+00 0.  1.
         22    1    1    2    0    0 -0.30766615998E+02 -0.16857408090E+01 -0.78986645592E+01  0.31809044058E+02  0.00000000000E+00 0.  1.
         22    1    1    2    0    0  0.23837212015E+02  0.55149909973E+02 -0.30553337703E+03  0.31138460098E+03  0.00000000000E+00 0.  1.
</event>
<event>
 6    1  0.1715574E-005  0.4347937E+02  0.7818608E-02  0.1574886E+00
          2   -1    0    0  502    0  0.00000000000E+00  0.00000000000E+00  0.21584763619E+03  0.21584763619E+03  0.00000000000E+00 0.  1.
          1   -1    0    0  501    0 -0.00000000000E+00 -0.00000000000E+00 -0.44745481033E+03  0.44745481033E+03  0.00000000000E+00 0. -1.
          2    1    1    2  501    0  0.23002807608E+02  0.20007195669E+01  0.12529637325E+03  0.12740609556E+03  0.00000000000E+00 0.  1.
          1    1    1    2  502    0 -0.29717517347E+02  0.90995786907E+01 -0.39974370444E+03  0.40095007471E+03  0.00000000000E+00 0. -1.
         22    1    1    2    0    0 -0.12322449628E+02 -0.44245438888E+01 -0.43941528250E+02  0.45850597144E+02  0.00000000000E+00 0. -1.
         22    1    1    2    0    0  0.19037159367E+02 -0.66757543688E+01  0.86781685295E+02  0.89095679108E+02  0.00000000000E+00 0. -1.
</event>
<event>
 6    1  0.1715574E-005  0.5165348E+02  0.7818608E-02  0.1525306E+00
          2   -1    0    0  502    0  0.00000000000E+00  0.00000000000E+00  0.99337549574E+02  0.99337549574E+02  0.00000000000E+00 0.  1.
          1   -1    0    0  501    0 -0.00000000000E+00 -0.00000000000E+00 -0.84295699337E+03  0.84295699337E+03  0.00000000000E+00 0. -1.
          2    1    1    2  501    0  0.24928118391E+02 -0.20356817012E+02  0.46959646824E+02  0.56929952707E+02  0.00000000000E+00 0.  1.
          1    1    1    2  502    0 -0.27943402630E+02  0.41262932462E+02 -0.75552853428E+03  0.75717027772E+03  0.00000000000E+00 0. -1.
         22    1    1    2    0    0  0.14362711591E+02 -0.11460156709E+02  0.44049454426E+02  0.47728158474E+02  0.00000000000E+00 0.  1.
         22    1    1    2    0    0 -0.11347427351E+02 -0.94459587406E+01 -0.79100010764E+02  0.80466154046E+02  0.00000000000E+00 0. -1.
</event>
<event>
 6    1  0.1715574E-005  0.9856692E+02  0.7818608E-02  0.1293792E+00
          2   -1    0    0  502    0  0.00000000000E+00  0.00000000000E+00  0.67657941401E+02  0.67657941401E+02  0.00000000000E+00 0. -1.
          1   -1    0    0  501    0 -0.00000000000E+00 -0.00000000000E+00 -0.16345577711E+04  0.16345577711E+04  0.00000000000E+00 0.  1.
          2    1    1    2  501    0  0.34820319072E+02 -0.10035925497E+03 -0.11056814899E+02  0.10680209658E+03  0.00000000000E+00 0. -1.
          1    1    1    2  502    0  0.45142345765E+02  0.10024010095E+03 -0.12403783823E+04  0.12452407159E+04  0.00000000000E+00 0.  1.
         22    1    1    2    0    0 -0.29205259348E+02  0.49713688579E+02 -0.23898291958E+03  0.24583985409E+03  0.00000000000E+00 0.  1.
         22    1    1    2    0    0 -0.50757405489E+02 -0.49594534562E+02 -0.76481712987E+02  0.10433304602E+03  0.00000000000E+00 0. -1.
</event>
<event>
 6    1  0.1715574E-005  0.1296254E+03  0.7818608E-02  0.1250072E+00
          2   -1    0    0  502    0  0.00000000000E+00  0.00000000000E+00  0.47583755702E+03  0.47583755702E+03  0.00000000000E+00 0. -1.
          1   -1    0    0  501    0 -0.00000000000E+00 -0.00000000000E+00 -0.62963963437E+02  0.62963963437E+02  0.00000000000E+00 0. -1.
          2    1    1    2  501    0 -0.59111674174E+02 -0.31672447267E+02  0.31932780474E+03  0.32629370331E+03  0.00000000000E+00 0. -1.
          1    1    1    2  502    0  0.16795938656E+02  0.45353752006E+02  0.48072510989E+02  0.68191148172E+02  0.00000000000E+00 0. -1.
         22    1    1    2    0    0  0.51059986106E+02 -0.69760654066E+00 -0.35275730628E+02  0.62064369870E+02  0.00000000000E+00 0. -1.
         22    1    1    2    0    0 -0.87442505881E+01 -0.12983698197E+02  0.80749008482E+02  0.82252299105E+02  0.00000000000E+00 0. -1.
</event>
<event>
 6    1  0.1715574E-005  0.9981405E+02  0.7818608E-02  0.1301054E+00
          2   -1    0    0  502    0  0.00000000000E+00  0.00000000000E+00  0.42367054265E+03  0.42367054265E+03  0.00000000000E+00 0.  1.
          1   -1    0    0  501    0 -0.00000000000E+00 -0.00000000000E+00 -0.49620375753E+02  0.49620375753E+02  0.00000000000E+00 0.  1.
          2    1    1    2  501    0  0.33874936570E+02 -0.50503140576E+02  0.13354252945E+03  0.14673679057E+03  0.00000000000E+00 0.  1.
          1    1    1    2  502    0 -0.77560409417E+02  0.60180421677E+01  0.55705165340E+02  0.95681238422E+02  0.00000000000E+00 0.  1.
         22    1    1    2    0    0 -0.59486114419E+01  0.67934023661E+02  0.47789268661E+02  0.83272034610E+02  0.00000000000E+00 0.  1.
         22    1    1    2    0    0  0.49634084289E+02 -0.23448925253E+02  0.13701320344E+03  0.14760085479E+03  0.00000000000E+00 0.  1.
</event>
<event>
 6    1  0.1715574E-005  0.1228501E+03  0.7818608E-02  0.1240781E+00
          2   -1    0    0  502    0  0.00000000000E+00  0.00000000000E+00  0.24026811274E+03  0.24026811274E+03  0.00000000000E+00 0. -1.
          1   -1    0    0  501    0 -0.00000000000E+00 -0.00000000000E+00 -0.11754268682E+03  0.11754268682E+03  0.00000000000E+00 0.  1.
          2    1    1    2  501    0  0.36507064664E+02 -0.48590383781E+02  0.15828981689E+03  0.16955664923E+03  0.00000000000E+00 0. -1.
          1    1    1    2  502    0 -0.38552094085E+02  0.46831896612E+02  0.34412384260E+01  0.60756338110E+02  0.00000000000E+00 0.  1.
         22    1    1    2    0    0 -0.37865774863E+02 -0.11030450216E+02 -0.66541474412E+02  0.77351506481E+02  0.00000000000E+00 0.  1.
         22    1    1    2    0    0  0.39910804284E+02  0.12788937384E+02  0.27535845022E+02  0.50146305737E+02  0.00000000000E+00 0. -1.
</event>
<event>
 6    1  0.1715574E-005  0.7375621E+02  0.7818608E-02  0.1381386E+00
          2   -1    0    0  502    0  0.00000000000E+00  0.00000000000E+00  0.18667992875E+03  0.18667992875E+03  0.00000000000E+00 0. -1.
          1   -1    0    0  501    0 -0.00000000000E+00 -0.00000000000E+00 -0.20942990636E+03  0.20942990636E+03  0.00000000000E+00 0. -1.
          2    1    1    2  501    0  0.31109011606E+01  0.28913721284E+02  0.15559087849E+03  0.15828519341E+03  0.00000000000E+00 0. -1.
          1    1    1    2  502    0 -0.23924215955E+02 -0.16955870733E+01 -0.36006099245E+02  0.43262943814E+02  0.00000000000E+00 0. -1.
         22    1    1    2    0    0 -0.54407650403E+01  0.85627940679E+01  0.22060514594E+02  0.24281467637E+02  0.00000000000E+00 0.  1.
         22    1    1    2    0    0  0.26254079835E+02 -0.35780928279E+02 -0.16439527145E+03  0.17028023025E+03  0.00000000000E+00 0. -1.
</event>
<event>
 6    1  0.1715574E-005  0.7008251E+02  0.7818608E-02  0.1363170E+00
          2   -1    0    0  502    0  0.00000000000E+00  0.00000000000E+00  0.27207023339E+03  0.27207023339E+03  0.00000000000E+00 0.  1.
          1   -1    0    0  501    0 -0.00000000000E+00 -0.00000000000E+00 -0.75618007236E+02  0.75618007236E+02  0.00000000000E+00 0.  1.
          2    1    1    2  501    0 -0.26558611477E+02 -0.39110567398E+02  0.17264242053E+03  0.17899832875E+03  0.00000000000E+00 0.  1.
          1    1    1    2  502    0 -0.33343482541E+00  0.25584787929E+02 -0.21597877504E+02  0.33483740306E+02  0.00000000000E+00 0.  1.
         22    1    1    2    0    0 -0.39506409643E+01 -0.18457360142E+02  0.77904530061E+02  0.80158577280E+02  0.00000000000E+00 0.  1.
         22    1    1    2    0    0  0.30842687267E+02  0.31983139610E+02 -0.32496846935E+02  0.55047594297E+02  0.00000000000E+00 0.  1.
</event>
<event>
 6    1  0.1715574E-005  0.1156403E+03  0.7818608E-02  0.1251308E+00
          2   -1    0    0  502    0  0.00000000000E+00  0.00000000000E+00  0.14576925430E+03  0.14576925430E+03  0.00000000000E+00 0.  1.
          1   -1    0    0  501    0 -0.00000000000E+00 -0.00000000000E+00 -0.40065858533E+03  0.40065858533E+03  0.00000000000E+00 0.  1.
          2    1    1    2  501    0  0.76641341203E+02  0.63805078933E+02  0.10121836685E+03  0.14209201620E+03  0.00000000000E+00 0.  1.
          1    1    1    2  502    0 -0.48024531164E+02 -0.25001328181E+02 -0.13958739756E+03  0.14971995045E+03  0.00000000000E+00 0.  1.
         22    1    1    2    0    0  0.13583368368E+02  0.30526212743E+01  0.12069216057E+02  0.18425318697E+02  0.00000000000E+00 0. -1.
         22    1    1    2    0    0 -0.42200178408E+02 -0.41856372026E+02 -0.22858951637E+03  0.23619055428E+03  0.00000000000E+00 0. -1.
</event>
<event>
 6    1  0.1715574E-005  0.7997840E+02  0.7818608E-02  0.1431969E+00
          2   -1    0    0  502    0  0.00000000000E+00  0.00000000000E+00  0.74919691527E+02  0.74919691527E+02  0.00000000000E+00 0. -1.
          1   -1    0    0  501    0 -0.00000000000E+00 -0.00000000000E+00 -0.25207534424E+03  0.25207534424E+03  0.00000000000E+00 0. -1.
          2    1    1    2  501    0  0.89911230556E+02  0.36267823055E+02 -0.78469638074E+02  0.12472717614E+03  0.00000000000E+00 0. -1.
          1    1    1    2  502    0 -0.25161996509E+02  0.68924239856E+01 -0.30347587470E+02  0.40020090479E+02  0.00000000000E+00 0. -1.
         22    1    1    2    0    0 -0.10480268177E+02  0.10627089219E+02 -0.83097500838E+02  0.84427280495E+02  0.00000000000E+00 0. -1.
         22    1    1    2    0    0 -0.54268965870E+02 -0.53787336260E+02  0.14759073666E+02  0.77820488652E+02  0.00000000000E+00 0. -1.
</event>
<event>
 6    1  0.1715574E-005  0.9446046E+02  0.7818608E-02  0.1378136E+00
          2   -1    0    0  502    0  0.00000000000E+00  0.00000000000E+00  0.16255034021E+03  0.16255034021E+03  0.00000000000E+00 0.  1.
          1   -1    0    0  501    0 -0.00000000000E+00 -0.00000000000E+00 -0.70089533397E+03  0.70089533397E+03  0.00000000000E+00 0.  1.
          2    1    1    2  501    0 -0.80028874432E+01  0.12054513224E+03  0.10085839869E+03  0.15737722739E+03  0.00000000000E+00 0.  1.
          1    1    1    2  502    0  0.94557174276E+02 -0.10270124357E+03 -0.38966495880E+03  0.41391712305E+03  0.00000000000E+00 0.  1.
         22    1    1    2    0    0 -0.70238174783E+02 -0.17709549164E+02 -0.26186691469E+03  0.27170077353E+03  0.00000000000E+00 0.  1.
         22    1    1    2    0    0 -0.16316112050E+02 -0.13433950641E+00  0.12328481027E+02  0.20450550212E+02  0.00000000000E+00 0. -1.
</event>
<event>
 6    1  0.1715574E-005  0.2398065E+02  0.7818608E-02  0.1743266E+00
          2   -1    0    0  502    0  0.00000000000E+00  0.00000000000E+00  0.14752931886E+03  0.14752931886E+03  0.00000000000E+00 0.  1.
          1   -1    0    0  501    0 -0.00000000000E+00 -0.00000000000E+00 -0.17624952317E+03  0.17624952317E+03  0.00000000000E+00 0.  1.
          2    1    1    2  501    0  0.20020259205E+02 -0.17833260742E+02  0.28233425442E+02  0.38935360272E+02  0.00000000000E+00 0.  1.
          1    1    1    2  502    0 -0.36226979071E+02 -0.72017904770E+01 -0.12901886609E+03  0.13420181670E+03  0.00000000000E+00 0.  1.
         22    1    1    2    0    0  0.78422801731E+01  0.19126383836E+02  0.10970398110E+03  0.11163459763E+03  0.00000000000E+00 0.  1.
         22    1    1    2    0    0  0.83644396928E+01  0.59086673828E+01 -0.37638744768E+02  0.39007067428E+02  0.00000000000E+00 0. -1.
</event>
<event>
 6    1  0.1715574E-005  0.5381562E+02  0.7818608E-02  0.1436282E+00
          2   -1    0    0  502    0  0.00000000000E+00  0.00000000000E+00  0.14874900909E+03  0.14874900909E+03  0.00000000000E+00 0. -1.
          1   -1    0    0  501    0 -0.00000000000E+00 -0.00000000000E+00 -0.17346213819E+03  0.17346213819E+03  0.00000000000E+00 0. -1.
          2    1    1    2  501    0 -0.11678578850E+02  0.20751415570E+02  0.10234098647E+03  0.10507467803E+03  0.00000000000E+00 0. -1.
          1    1    1    2  502    0  0.19326011229E+02 -0.20240490951E+02 -0.85224465602E+02  0.89701626078E+02  0.00000000000E+00 0. -1.
         22    1    1    2    0    0  0.16928410012E+02 -0.11838151456E+01 -0.80138598969E+02  0.81915612239E+02  0.00000000000E+00 0. -1.
         22    1    1    2    0    0 -0.24575842391E+02  0.67289052595E+00  0.38308949003E+02  0.45519230932E+02  0.00000000000E+00 0.  1.
</event>
<event>
 6    1  0.1715574E-005  0.1723363E+03  0.7818608E-02  0.1201426E+00
          2   -1    0    0  502    0  0.00000000000E+00  0.00000000000E+00  0.14462371321E+03  0.14462371321E+03  0.00000000000E+00 0. -1.
          1   -1    0    0  501    0 -0.00000000000E+00 -0.00000000000E+00 -0.92080283411E+03  0.92080283411E+03  0.00000000000E+00 0. -1.
          2    1    1    2  501    0  0.29744359162E+03 -0.23706769434E+02 -0.30520273098E+03  0.42682948365E+03  0.00000000000E+00 0. -1.
          1    1    1    2  502    0 -0.17817529062E+03  0.12893696532E+03 -0.18999494047E+03  0.29063594515E+03  0.00000000000E+00 0. -1.
         22    1    1    2    0    0 -0.67965163310E+02 -0.20678753823E+01 -0.18796206264E+03  0.19988315718E+03  0.00000000000E+00 0. -1.
         22    1    1    2    0    0 -0.51303137695E+02 -0.10316232050E+03 -0.93019386819E+02  0.14807796133E+03  0.00000000000E+00 0. -1.
</event>
<event>
 6    1  0.1715574E-005  0.1225202E+03  0.7818608E-02  0.1277389E+00
          2   -1    0    0  502    0  0.00000000000E+00  0.00000000000E+00  0.14014471323E+03  0.14014471323E+03  0.00000000000E+00 0.  1.
          1   -1    0    0  501    0 -0.00000000000E+00 -0.00000000000E+00 -0.15519276588E+03  0.15519276588E+03  0.00000000000E+00 0. -1.
          2    1    1    2  501    0 -0.41932676346E+02 -0.10625772195E+02  0.81388519490E+02  0.92170209314E+02  0.00000000000E+00 0.  1.
          1    1    1    2  502    0 -0.30646315361E+02  0.17985766659E+02 -0.31607700903E+02  0.47557661885E+02  0.00000000000E+00 0. -1.
         22    1    1    2    0    0  0.85972388431E+02 -0.12111984316E+02 -0.91034604251E+02  0.12579845352E+03  0.00000000000E+00 0. -1.
         22    1    1    2    0    0 -0.13393396724E+02  0.47519898514E+01  0.26205733010E+02  0.29811154388E+02  0.00000000000E+00 0. -1.
</event>
<event>
 6    1  0.1915910E-005  0.2437651E+03  0.7818608E-02  0.1118056E+00
          2   -1    0    0  502    0  0.00000000000E+00  0.00000000000E+00  0.51412192890E+03  0.51412192890E+03  0.00000000000E+00 0. -1.
          1   -1    0    0  501    0 -0.00000000000E+00 -0.00000000000E+00 -0.19606922572E+04  0.19606922572E+04  0.00000000000E+00 0.  1.
          2    1    1    2  501    0  0.20406580354E+03  0.10247322795E+03  0.45751441360E+03  0.51133458056E+03  0.00000000000E+00 0. -1.
          1    1    1    2  502    0 -0.19026797179E+03 -0.88253976877E+02 -0.17692227358E+04  0.17816115610E+04  0.00000000000E+00 0.  1.
         22    1    1    2    0    0 -0.20211596389E+02 -0.23004118313E+02 -0.15552825748E+03  0.15851415382E+03  0.00000000000E+00 0. -1.
         22    1    1    2    0    0  0.64137646360E+01  0.87848672426E+01  0.20666251317E+02  0.23353890741E+02  0.00000000000E+00 0.  1.
</event>
<event>
 6    1  0.1715574E-005  0.5668436E+02  0.7818608E-02  0.1442557E+00
          2   -1    0    0  502    0  0.00000000000E+00  0.00000000000E+00  0.26223439282E+03  0.26223439282E+03  0.00000000000E+00 0. -1.
          1   -1    0    0  501    0 -0.00000000000E+00 -0.00000000000E+00 -0.56449207398E+02  0.56449207398E+02  0.00000000000E+00 0. -1.
          2    1    1    2  501    0 -0.23579683468E+02  0.91890069720E+01  0.13957013826E+03  0.14184591223E+03  0.00000000000E+00 0. -1.
          1    1    1    2  502    0  0.18588382090E+02 -0.32799920541E+02  0.15352537762E+02  0.40707040570E+02  0.00000000000E+00 0. -1.
         22    1    1    2    0    0  0.34737309346E+02  0.85127832210E+01 -0.31254113695E+02  0.47497028977E+02  0.00000000000E+00 0. -1.
         22    1    1    2    0    0 -0.29746007969E+02  0.15098130348E+02  0.82116623097E+02  0.88633618447E+02  0.00000000000E+00 0. -1.
</event>
<event>
 6    1  0.1715574E-005  0.7148732E+02  0.7818608E-02  0.1404797E+00
          2   -1    0    0  502    0  0.00000000000E+00  0.00000000000E+00  0.42808372769E+03  0.42808372769E+03  0.00000000000E+00 0.  1.
          1   -1    0    0  501    0 -0.00000000000E+00 -0.00000000000E+00 -0.47208724195E+02  0.47208724195E+02  0.00000000000E+00 0.  1.
          2    1    1    2  501    0  0.12417318579E+02 -0.40123911622E+02  0.10802537351E+03  0.11590340550E+03  0.00000000000E+00 0.  1.
          1    1    1    2  502    0  0.75253136846E+02  0.25011675924E+02  0.81158854950E+02  0.11346972404E+03  0.00000000000E+00 0.  1.
         22    1    1    2    0    0 -0.20981892260E+02 -0.23864304782E+02  0.15882860624E+03  0.16197614333E+03  0.00000000000E+00 0.  1.
         22    1    1    2    0    0 -0.66688563165E+02  0.38976540480E+02  0.32862168782E+02  0.83943179007E+02  0.00000000000E+00 0.  1.
</event>
<event>
 6    1  0.1715574E-005  0.2878300E+03  0.7818608E-02  0.1103653E+00
          2   -1    0    0  502    0  0.00000000000E+00  0.00000000000E+00  0.52145811948E+02  0.52145811948E+02  0.00000000000E+00 0. -1.
          1   -1    0    0  501    0 -0.00000000000E+00 -0.00000000000E+00 -0.14353798939E+04  0.14353798939E+04  0.00000000000E+00 0. -1.
          2    1    1    2  501    0  0.10640938645E+02 -0.88886166117E+02 -0.86279654560E+03  0.86742830205E+03  0.00000000000E+00 0. -1.
          1    1    1    2  502    0 -0.71177034562E+02  0.16377362283E+03 -0.23692619439E+03  0.29668500362E+03  0.00000000000E+00 0. -1.
         22    1    1    2    0    0 -0.19454661073E+02  0.22346212593E+02 -0.58200147996E+02  0.65307689298E+02  0.00000000000E+00 0.  1.
         22    1    1    2    0    0  0.79990756990E+02 -0.97233669310E+02 -0.22531119398E+03  0.25810471089E+03  0.00000000000E+00 0. -1.
</event>
<event>
 6    1  0.1715574E-005  0.2299090E+03  0.7818608E-02  0.1129904E+00
          2   -1    0    0  502    0  0.00000000000E+00  0.00000000000E+00  0.42823675887E+03  0.42823675887E+03  0.00000000000E+00 0.  1.
          1   -1    0    0  501    0 -0.00000000000E+00 -0.00000000000E+00 -0.49190434617E+03  0.49190434617E+03  0.00000000000E+00 0.  1.
          2    1    1    2  501    0  0.18596936200E+03 -0.76768237129E+02  0.35712065756E+03  0.40989404716E+03  0.00000000000E+00 0.  1.
          1    1    1    2  502    0 -0.12795254300E+03 -0.72010558928E+00 -0.23996253701E+03  0.27194556621E+03  0.00000000000E+00 0.  1.
         22    1    1    2    0    0  0.10729719208E+02  0.22111298334E+01  0.14380728543E+02  0.18078200210E+02  0.00000000000E+00 0. -1.
         22    1    1    2    0    0 -0.68746538212E+02  0.75277212885E+02 -0.19520643640E+03  0.22022329147E+03  0.00000000000E+00 0.  1.
</event>
<event>
 6    1  0.1715574E-005  0.1520823E+03  0.7818608E-02  0.1245212E+00
          2   -1    0    0  502    0  0.00000000000E+00  0.00000000000E+00  0.25191009038E+03  0.25191009038E+03  0.00000000000E+00 0. -1.
          1   -1    0    0  501    0 -0.00000000000E+00 -0.00000000000E+00 -0.53601345503E+03  0.53601345503E+03  0.00000000000E+00 0. -1.
          2    1    1    2  501    0 -0.98717714280E+02  0.63750242501E+02  0.11839953824E+03  0.16681645958E+03  0.00000000000E+00 0. -1.
          1    1    1    2  502    0  0.91964280036E+02 -0.10504951663E+03 -0.45479204688E+03  0.47574009254E+03  0.00000000000E+00 0. -1.
         22    1    1    2    0    0  0.50038779788E+01  0.56267220941E+02  0.89152410912E+02  0.10554236741E+03  0.00000000000E+00 0. -1.
         22    1    1    2    0    0  0.17495562646E+01 -0.14967946813E+02 -0.36863266923E+02  0.39824625889E+02  0.00000000000E+00 0.  1.
</event>
<event>
 6    1  0.1715574E-005  0.5173715E+02  0.7818608E-02  0.1440517E+00
          2   -1    0    0  502    0  0.00000000000E+00  0.00000000000E+00  0.25741277212E+03  0.25741277212E+03  0.00000000000E+00 0. -1.
          1   -1    0    0  501    0 -0.00000000000E+00 -0.00000000000E+00 -0.15731298488E+03  0.15731298488E+03  0.00000000000E+00 0.  1.
          2    1    1    2  501    0 -0.96048467065E+01  0.24715648650E+02  0.15059614586E+03  0.15291277094E+03  0.00000000000E+00 0. -1.
          1    1    1    2  502    0  0.10855294168E+02 -0.35648679646E+02 -0.11296512268E+03  0.11895286762E+03  0.00000000000E+00 0.  1.
         22    1    1    2    0    0 -0.14708309922E+02  0.15987774403E+02  0.10017648680E+03  0.10250498436E+03  0.00000000000E+00 0. -1.
         22    1    1    2    0    0  0.13457862461E+02 -0.50547434075E+01 -0.37707722732E+02  0.40355134079E+02  0.00000000000E+00 0.  1.
</event>
<event>
 6    1  0.1715574E-005  0.7182893E+02  0.7818608E-02  0.1354915E+00
          2   -1    0    0  502    0  0.00000000000E+00  0.00000000000E+00  0.23513803071E+03  0.23513803071E+03  0.00000000000E+00 0.  1.
          1   -1    0    0  501    0 -0.00000000000E+00 -0.00000000000E+00 -0.66791903262E+02  0.66791903262E+02  0.00000000000E+00 0. -1.
          2    1    1    2  501    0  0.21430728135E+02  0.12781470571E+01  0.45857946241E+02  0.50634583061E+02  0.00000000000E+00 0.  1.
          1    1    1    2  502    0 -0.51906860429E+02  0.69792129838E+01 -0.23204445204E+02  0.57284184996E+02  0.00000000000E+00 0. -1.
         22    1    1    2    0    0 -0.17326163726E+02 -0.64206994364E+01 -0.16585208879E+02  0.24829226413E+02  0.00000000000E+00 0. -1.
         22    1    1    2    0    0  0.47802296020E+02 -0.18366606046E+01  0.16227783529E+03  0.16918193950E+03  0.00000000000E+00 0.  1.
</event>
<event>
 6    1  0.1715574E-005  0.4759176E+02  0.7818608E-02  0.1459100E+00
          2   -1    0    0  502    0  0.00000000000E+00  0.00000000000E+00  0.68814680282E+03  0.68814680282E+03  0.00000000000E+00 0.  1.
          1   -1    0    0  501    0 -0.00000000000E+00 -0.00000000000E+00 -0.86776624025E+02  0.86776624025E+02  0.00000000000E+00 0.  1.
          2    1    1    2  501    0  0.23823600090E+02 -0.36550462110E+02  0.43150252866E+03  0.43370258524E+03  0.00000000000E+00 0.  1.
          1    1    1    2  502    0 -0.37798497140E+02  0.71066128485E+02 -0.43064723746E+02  0.91289054302E+02  0.00000000000E+00 0.  1.
         22    1    1    2    0    0 -0.20939391266E+02 -0.29083367037E+02  0.21155676664E+03  0.21457065469E+03  0.00000000000E+00 0.  1.
         22    1    1    2    0    0  0.34914288316E+02 -0.54322993392E+01  0.13756072477E+01  0.35361132618E+02  0.00000000000E+00 0.  1.
</event>
<event>
 6    1  0.1715574E-005  0.6226265E+02  0.7818608E-02  0.1438236E+00
          2   -1    0    0  502    0  0.00000000000E+00  0.00000000000E+00  0.40895666372E+03  0.40895666372E+03  0.00000000000E+00 0.  1.
          1   -1    0    0  501    0 -0.00000000000E+00 -0.00000000000E+00 -0.34905543480E+02  0.34905543480E+02  0.00000000000E+00 0. -1.
          2    1    1    2  501    0 -0.29303161296E+02  0.79286836922E+01  0.15235008478E+03  0.15534505985E+03  0.00000000000E+00 0.  1.
          1    1    1    2  502    0  0.26889521128E+02 -0.33313709163E+02  0.13434206523E+02  0.44870117780E+02  0.00000000000E+00 0. -1.
         22    1    1    2    0    0  0.28727290579E+02  0.18591270949E+01 -0.34632684398E+01  0.28994961733E+02  0.00000000000E+00 0. -1.
         22    1    1    2    0    0 -0.26313650412E+02  0.23525898375E+02  0.21173009737E+03  0.21465206783E+03  0.00000000000E+00 0. -1.
</event>
<event>
 6    1  0.1715574E-005  0.1014565E+03  0.7818608E-02  0.1295689E+00
          2   -1    0    0  502    0  0.00000000000E+00  0.00000000000E+00  0.71357722055E+03  0.71357722055E+03  0.00000000000E+00 0. -1.
          1   -1    0    0  501    0 -0.00000000000E+00 -0.00000000000E+00 -0.12079592206E+02  0.12079592206E+02  0.00000000000E+00 0. -1.
          2    1    1    2  501    0 -0.15833525378E+01 -0.24164084160E+02  0.10687204662E+03  0.10958122247E+03  0.00000000000E+00 0. -1.
          1    1    1    2  502    0 -0.26095607434E+02  0.55741296138E+01  0.83370623975E+02  0.87536921297E+02  0.00000000000E+00 0. -1.
         22    1    1    2    0    0  0.65685975057E+02  0.39756859966E+02  0.42558742358E+03  0.43245798680E+03  0.00000000000E+00 0. -1.
         22    1    1    2    0    0 -0.38007015086E+02 -0.21166905421E+02  0.85667534169E+02  0.96080682197E+02  0.00000000000E+00 0. -1.
</event>
<event>
 6    1  0.1715574E-005  0.8130741E+02  0.7818608E-02  0.1374701E+00
          2   -1    0    0  502    0  0.00000000000E+00  0.00000000000E+00  0.45444056229E+02  0.45444056229E+02  0.00000000000E+00 0.  1.
          1   -1    0    0  501    0 -0.00000000000E+00 -0.00000000000E+00 -0.83488353213E+03  0.83488353213E+03  0.00000000000E+00 0. -1.
          2    1    1    2  501    0  0.22397338321E+02  0.61633216995E+01  0.15188619289E+02  0.27754665448E+02  0.00000000000E+00 0.  1.
          1    1    1    2  502    0  0.40075824110E+02 -0.68910812292E+02 -0.55468379888E+03  0.56038280530E+03  0.00000000000E+00 0. -1.
         22    1    1    2    0    0 -0.71309607693E+02  0.55237780773E+02 -0.26101274474E+03  0.27615923937E+03  0.00000000000E+00 0.  1.
         22    1    1    2    0    0  0.88364452610E+01  0.75097098197E+01  0.11068448434E+02  0.16030878241E+02  0.00000000000E+00 0.  1.
</event>
<event>
 6    1  0.1715574E-005  0.7326265E+02  0.7818608E-02  0.1361181E+00
          2   -1    0    0  502    0  0.00000000000E+00  0.00000000000E+00  0.13993721351E+03  0.13993721351E+03  0.00000000000E+00 0.  1.
          1   -1    0    0  501    0 -0.00000000000E+00 -0.00000000000E+00 -0.81359119474E+02  0.81359119474E+02  0.00000000000E+00 0.  1.
          2    1    1    2  501    0 -0.30290413694E+02 -0.84511158794E+01  0.39466954305E+02  0.50463561146E+02  0.00000000000E+00 0.  1.
          1    1    1    2  502    0  0.11850169491E+02  0.28319247165E+02 -0.23016494063E+02  0.38368806026E+02  0.00000000000E+00 0.  1.
         22    1    1    2    0    0  0.40974576413E+02 -0.11513299843E+02 -0.32827246244E+02  0.53750349594E+02  0.00000000000E+00 0. -1.
         22    1    1    2    0    0 -0.22534332209E+02 -0.83548314421E+01  0.74954880042E+02  0.78713616222E+02  0.00000000000E+00 0.  1.
</event>
<event>
 6    1  0.1715574E-005  0.3932224E+03  0.7818608E-02  0.1051027E+00
          2   -1    0    0  502    0  0.00000000000E+00  0.00000000000E+00  0.15334471562E+04  0.15334471562E+04  0.00000000000E+00 0. -1.
          1   -1    0    0  501    0 -0.00000000000E+00 -0.00000000000E+00 -0.88197922397E+02  0.88197922397E+02  0.00000000000E+00 0. -1.
          2    1    1    2  501    0  0.24714458129E+03 -0.20625849770E+03  0.61992785363E+03  0.69852240883E+03  0.00000000000E+00 0. -1.
          1    1    1    2  502    0 -0.54545181600E+02  0.17148811190E+03  0.41463847623E+03  0.45200488419E+03  0.00000000000E+00 0. -1.
         22    1    1    2    0    0  0.12196923667E+02 -0.41506895803E+01  0.74073587842E+02  0.75185700680E+02  0.00000000000E+00 0. -1.
         22    1    1    2    0    0 -0.20479632336E+03  0.38921075383E+02  0.33660931613E+03  0.39593208493E+03  0.00000000000E+00 0. -1.
</event>
<event>
 6    1  0.1715574E-005  0.5958580E+02  0.7818608E-02  0.1400460E+00
          2   -1    0    0  502    0  0.00000000000E+00  0.00000000000E+00  0.16223594808E+03  0.16223594808E+03  0.00000000000E+00 0. -1.
          1   -1    0    0  501    0 -0.00000000000E+00 -0.00000000000E+00 -0.17455523004E+03  0.17455523004E+03  0.00000000000E+00 0.  1.
          2    1    1    2  501    0 -0.57248404566E+01  0.38181886748E+02  0.10451280720E+03  0.11141614399E+03  0.00000000000E+00 0. -1.
          1    1    1    2  502    0 -0.77233989927E+00 -0.41782525122E+02 -0.89832441079E+02  0.99076956881E+02  0.00000000000E+00 0.  1.
         22    1    1    2    0    0  0.11690056371E+02  0.16268647001E+02  0.46974364741E+02  0.51067771011E+02  0.00000000000E+00 0.  1.
         22    1    1    2    0    0 -0.51928760149E+01 -0.12668008627E+02 -0.73974012824E+02  0.75230306241E+02  0.00000000000E+00 0.  1.
</event>
<event>
 6    1  0.1715574E-005  0.9011190E+02  0.7818608E-02  0.1304214E+00
          2   -1    0    0  502    0  0.00000000000E+00  0.00000000000E+00  0.31032910965E+03  0.31032910965E+03  0.00000000000E+00 0.  1.
          1   -1    0    0  501    0 -0.00000000000E+00 -0.00000000000E+00 -0.57916362616E+02  0.57916362616E+02  0.00000000000E+00 0.  1.
          2    1    1    2  501    0  0.34079361792E+02  0.21976275366E+01  0.74487852502E+02  0.81943106100E+02  0.00000000000E+00 0.  1.
          1    1    1    2  502    0 -0.61204069086E+02 -0.24064858364E+02 -0.13825134723E+01  0.65779683978E+02  0.00000000000E+00 0.  1.
         22    1    1    2    0    0 -0.18382314344E+02 -0.68038889315E+01 -0.11195128306E+02  0.22572843928E+02  0.00000000000E+00 0. -1.
         22    1    1    2    0    0  0.45507021638E+02  0.28671119759E+02  0.19050253631E+03  0.19794983826E+03  0.00000000000E+00 0.  1.
</event>
<event>
 6    1  0.1715574E-005  0.5397406E+02  0.7818608E-02  0.1491701E+00
          2   -1    0    0  502    0  0.00000000000E+00  0.00000000000E+00  0.73183553402E+02  0.73183553402E+02  0.00000000000E+00 0.  1.
          1   -1    0    0  501    0 -0.00000000000E+00 -0.00000000000E+00 -0.23641389699E+03  0.23641389699E+03  0.00000000000E+00 0. -1.
          2    1    1    2  501    0 -0.41549997025E+01 -0.38748165154E+02  0.15412088826E+02  0.41907240512E+02  0.00000000000E+00 0.  1.
          1    1    1    2  502    0  0.19836690866E+02  0.32669374946E+02 -0.12817799639E+03  0.13375492934E+03  0.00000000000E+00 0. -1.
         22    1    1    2    0    0  0.22008459876E+01  0.15954572410E+02 -0.88932701254E+02  0.90379297719E+02  0.00000000000E+00 0. -1.
         22    1    1    2    0    0 -0.17882537151E+02 -0.98757822026E+01  0.38468265235E+02  0.43555982818E+02  0.00000000000E+00 0.  1.
</event>
<event>
 6    1  0.1715574E-005  0.4682860E+02  0.7818608E-02  0.1465352E+00
          2   -1    0    0  502    0  0.00000000000E+00  0.00000000000E+00  0.69282304492E+02  0.69282304492E+02  0.00000000000E+00 0.  1.
          1   -1    0    0  501    0 -0.00000000000E+00 -0.00000000000E+00 -0.19634646642E+03  0.19634646642E+03  0.00000000000E+00 0.  1.
          2    1    1    2  501    0 -0.21570694515E+02  0.77934822287E+01  0.24441390265E+02  0.33517380345E+02  0.00000000000E+00 0.  1.
          1    1    1    2  502    0  0.21864049584E+02 -0.50081536277E+01 -0.81339513948E+02  0.84375558050E+02  0.00000000000E+00 0.  1.
         22    1    1    2    0    0 -0.22712429775E+02 -0.63408596306E+01  0.33859956168E+02  0.41262060041E+02  0.00000000000E+00 0.  1.
         22    1    1    2    0    0  0.22419074706E+02  0.35555310296E+01 -0.10402599441E+03  0.10647377247E+03  0.00000000000E+00 0.  1.
</event>
<event>
 6    1  0.1715574E-005  0.1101918E+03  0.7818608E-02  0.1267335E+00
          2   -1    0    0  502    0  0.00000000000E+00  0.00000000000E+00  0.77458359573E+02  0.77458359573E+02  0.00000000000E+00 0. -1.
          1   -1    0    0  501    0 -0.00000000000E+00 -0.00000000000E+00 -0.18641421342E+03  0.18641421342E+03  0.00000000000E+00 0. -1.
          2    1    1    2  501    0  0.20472595060E+02  0.62021178995E+01 -0.60871709326E+02  0.64520992019E+02  0.00000000000E+00 0. -1.
          1    1    1    2  502    0 -0.44203589799E+02  0.10508822393E+02  0.23576072162E+02  0.51188122429E+02  0.00000000000E+00 0. -1.
         22    1    1    2    0    0 -0.36392920391E+02 -0.45225438802E+02 -0.13071312052E+02  0.59503312246E+02  0.00000000000E+00 0. -1.
         22    1    1    2    0    0  0.60123915130E+02  0.28514498510E+02 -0.58588904629E+02  0.88660146297E+02  0.00000000000E+00 0. -1.
</event>
<event>
 6    1  0.1715574E-005  0.4559074E+02  0.7818608E-02  0.1503406E+00
          2   -1    0    0  502    0  0.00000000000E+00  0.00000000000E+00  0.82897887868E+02  0.82897887868E+02  0.00000000000E+00 0.  1.
          1   -1    0    0  501    0 -0.00000000000E+00 -0.00000000000E+00 -0.26713690347E+03  0.26713690347E+03  0.00000000000E+00 0. -1.
          2    1    1    2  501    0  0.40745790279E+02  0.60178603478E+01  0.14236242420E+01  0.41212386180E+02  0.00000000000E+00 0.  1.
          1    1    1    2  502    0 -0.20804815436E+02 -0.16310907714E+02 -0.18015759578E+03  0.18208691708E+03  0.00000000000E+00 0. -1.
         22    1    1    2    0    0 -0.78594746930E+01 -0.15899325834E+02 -0.61360264476E+02  0.63872074970E+02  0.00000000000E+00 0.  1.
         22    1    1    2    0    0 -0.12081500150E+02  0.26192373200E+02  0.55855220413E+02  0.62863413104E+02  0.00000000000E+00 0. -1.
</event>
<event>
 6    1  0.1715574E-005  0.4088727E+02  0.7818608E-02  0.1522553E+00
          2   -1    0    0  502    0  0.00000000000E+00  0.00000000000E+00  0.35254644375E+02  0.35254644375E+02  0.00000000000E+00 0.  1.
          1   -1    0    0  501    0 -0.00000000000E+00 -0.00000000000E+00 -0.47037257804E+03  0.47037257804E+03  0.00000000000E+00 0. -1.
          2    1    1    2  501    0 -0.71219712346E+01  0.42143794122E+02 -0.29021562409E+02  0.51663071356E+02  0.00000000000E+00 0.  1.
          1    1    1    2  502    0 -0.24180412356E+02 -0.31444437129E+02 -0.25450279918E+03  0.25757546420E+03  0.00000000000E+00 0. -1.
         22    1    1    2    0    0  0.15500079165E+02  0.19519990247E+02  0.13129939427E+02  0.28172287495E+02  0.00000000000E+00 0.  1.
         22    1    1    2    0    0  0.15802304426E+02 -0.30219347240E+02 -0.16472351150E+03  0.16821639936E+03  0.00000000000E+00 0.  1.
</event>
<event>
 6    1  0.1715574E-005  0.7808965E+02  0.7818608E-02  0.1338139E+00
          2   -1    0    0  502    0  0.00000000000E+00  0.00000000000E+00  0.22589234910E+03  0.22589234910E+03  0.00000000000E+00 0. -1.
          1   -1    0    0  501    0 -0.00000000000E+00 -0.00000000000E+00 -0.38681778998E+02  0.38681778998E+02  0.00000000000E+00 0. -1.
          2    1    1    2  501    0 -0.29777349522E+02  0.82724739959E+01  0.69868635017E+02  0.76398629109E+02  0.00000000000E+00 0. -1.
          1    1    1    2  502    0  0.11836947371E+02 -0.19144005006E+02  0.16214567101E+02  0.27740195331E+02  0.00000000000E+00 0. -1.
         22    1    1    2    0    0  0.49242605620E+02 -0.17814072236E+02  0.17805553815E+01  0.52396047135E+02  0.00000000000E+00 0. -1.
         22    1    1    2    0    0 -0.31302203469E+02  0.28685603246E+02  0.99346812601E+02  0.10803925652E+03  0.00000000000E+00 0. -1.
</event>
<event>
 6    1  0.1715574E-005  0.1203227E+03  0.7818608E-02  0.1243261E+00
          2   -1    0    0  502    0  0.00000000000E+00  0.00000000000E+00  0.29458436098E+03  0.29458436098E+03  0.00000000000E+00 0. -1.
          1   -1    0    0  501    0 -0.00000000000E+00 -0.00000000000E+00 -0.63564100580E+02  0.63564100580E+02  0.00000000000E+00 0. -1.
          2    1    1    2  501    0  0.34871589701E+02 -0.30110672072E+02  0.46859378584E+02  0.65715155803E+02  0.00000000000E+00 0. -1.
          1    1    1    2  502    0 -0.44672537713E+02  0.72968348865E+02  0.40081018422E+02  0.94480175696E+02  0.00000000000E+00 0. -1.
         22    1    1    2    0    0 -0.10882361638E+02  0.21752281965E+02 -0.12472454364E+02  0.27334038914E+02  0.00000000000E+00 0. -1.
         22    1    1    2    0    0  0.20683309650E+02 -0.64609958757E+02  0.15655231776E+03  0.17061909115E+03  0.00000000000E+00 0. -1.
</event>
<event>
 6    1  0.1715574E-005  0.1209954E+03  0.7818608E-02  0.1252768E+00
          2   -1    0    0  502    0  0.00000000000E+00  0.00000000000E+00  0.11962896990E+04  0.11962896990E+04  0.00000000000E+00 0. -1.
          1   -1    0    0  501    0 -0.00000000000E+00 -0.00000000000E+00 -0.61044388331E+02  0.61044388331E+02  0.00000000000E+00 0. -1.
          2    1    1    2  501    0 -0.48210122712E+02  0.14634296616E+02  0.57915753221E+03  0.58134484232E+03  0.00000000000E+00 0. -1.
          1    1    1    2  502    0 -0.26036863287E+02 -0.12523960060E+03  0.47794841766E+02  0.13655483407E+03  0.00000000000E+00 0. -1.
         22    1    1    2    0    0 -0.22451186878E+02  0.34756907078E+02  0.24992299815E+03  0.25332509427E+03  0.00000000000E+00 0. -1.
         22    1    1    2    0    0  0.96698172877E+02  0.75848396902E+02  0.25836993856E+03  0.28610931670E+03  0.00000000000E+00 0. -1.
</event>
<event>
 6    1  0.1715574E-005  0.8494447E+02  0.7818608E-02  0.1353501E+00
          2   -1    0    0  502    0  0.00000000000E+00  0.00000000000E+00  0.37529829799E+02  0.37529829799E+02  0.00000000000E+00 0. -1.
          1   -1    0    0  501    0 -0.00000000000E+00 -0.00000000000E+00 -0.62210930794E+03  0.62210930794E+03  0.00000000000E+00 0. -1.
          2    1    1    2  501    0  0.57675849096E+02  0.26745624362E+02 -0.16984087879E+03  0.18134981693E+03  0.00000000000E+00 0. -1.
          1    1    1    2  502    0 -0.58046921152E+02 -0.13269445387E+02 -0.30890703163E+03  0.31459351142E+03  0.00000000000E+00 0. -1.
         22    1    1    2    0    0  0.37753791005E+02 -0.22178561483E+02  0.71557537952E+01  0.44367129016E+02  0.00000000000E+00 0. -1.
         22    1    1    2    0    0 -0.37382718950E+02  0.87023825079E+01 -0.11298732151E+03  0.11932868037E+03  0.00000000000E+00 0. -1.
</event>
<event>
 6    1  0.2125177E-005  0.6588379E+02  0.7818608E-02  0.1375728E+00
          2   -1    0    0  502    0  0.00000000000E+00  0.00000000000E+00  0.65880397341E+02  0.65880397341E+02  0.00000000000E+00 0. -1.
          1   -1    0    0  501    0 -0.00000000000E+00 -0.00000000000E+00 -0.20188210253E+04  0.20188210253E+04  0.00000000000E+00 0. -1.
          2    1    1    2  501    0 -0.49479274416E+02  0.13553832516E+03 -0.10081274493E+03  0.17601717452E+03  0.00000000000E+00 0. -1.
          1    1    1    2  502    0  0.66091352559E+02 -0.13540262840E+03 -0.17275706851E+04  0.17341287181E+04  0.00000000000E+00 0. -1.
         22    1    1    2    0    0 -0.68145746263E+01  0.24905528880E+02  0.16707158231E+02  0.30754722114E+02  0.00000000000E+00 0.  1.
         22    1    1    2    0    0 -0.97975035177E+01 -0.25041225640E+02 -0.14126435609E+03  0.14380080792E+03  0.00000000000E+00 0. -1.
</event>
<event>
 6    1  0.1715574E-005  0.5373743E+02  0.7818608E-02  0.1472635E+00
          2   -1    0    0  502    0  0.00000000000E+00  0.00000000000E+00  0.58119980831E+02  0.58119980831E+02  0.00000000000E+00 0.  1.
          1   -1    0    0  501    0 -0.00000000000E+00 -0.00000000000E+00 -0.52469492821E+03  0.52469492821E+03  0.00000000000E+00 0. -1.
          2    1    1    2  501    0  0.18149286945E+01  0.27878944273E+02  0.12785683381E+02  0.30724635058E+02  0.00000000000E+00 0.  1.
          1    1    1    2  502    0  0.15935450259E+02 -0.45834926357E+02 -0.40526740794E+03  0.40816228511E+03  0.00000000000E+00 0. -1.
         22    1    1    2    0    0  0.89950869916E+01  0.22173390867E+02  0.28850959387E+02  0.37482645452E+02  0.00000000000E+00 0.  1.
         22    1    1    2    0    0 -0.26745465945E+02 -0.42174087834E+01 -0.10294418221E+03  0.10644534342E+03  0.00000000000E+00 0.  1.
</event>
<event>
 6    1  0.1715574E-005  0.2306529E+02  0.7818608E-02  0.1696325E+00
          2   -1    0    0  502    0  0.00000000000E+00  0.00000000000E+00  0.76052750931E+02  0.76052750931E+02  0.00000000000E+00 0.  1.
          1   -1    0    0  501    0 -0.00000000000E+00 -0.00000000000E+00 -0.14986936804E+03  0.14986936804E+03  0.00000000000E+00 0. -1.
          2    1    1    2  501    0  0.63710738494E+01  0.31709369373E+02 -0.31627553536E+02  0.45236896784E+02  0.00000000000E+00 0.  1.
          1    1    1    2  502    0 -0.21368476166E+01 -0.33096945709E+02 -0.42418968568E+02  0.53845546031E+02  0.00000000000E+00 0. -1.
         22    1    1    2    0    0  0.10882613144E+02  0.11092938443E+02  0.61270555323E+02  0.63210485694E+02  0.00000000000E+00 0.  1.
         22    1    1    2    0    0 -0.15116839377E+02 -0.97053621071E+01 -0.61040650324E+02  0.63629190458E+02  0.00000000000E+00 0.  1.
</event>
<event>
 6    1  0.1715574E-005  0.1052955E+03  0.7818608E-02  0.1276884E+00
          2   -1    0    0  502    0  0.00000000000E+00  0.00000000000E+00  0.48677797731E+02  0.48677797731E+02  0.00000000000E+00 0. -1.
          1   -1    0    0  501    0 -0.00000000000E+00 -0.00000000000E+00 -0.23538599437E+03  0.23538599437E+03  0.00000000000E+00 0.  1.
          2    1    1    2  501    0 -0.12723563334E+02  0.18599859827E+02 -0.43665737638E+02  0.49137974042E+02  0.00000000000E+00 0. -1.
          1    1    1    2  502    0  0.99313872657E+01 -0.54800470518E+02 -0.62964831458E+02  0.84061251612E+02  0.00000000000E+00 0.  1.
         22    1    1    2    0    0 -0.97027324672E+01  0.63858239509E+02  0.67768397126E+00  0.64594713608E+02  0.00000000000E+00 0. -1.
         22    1    1    2    0    0  0.12494908535E+02 -0.27657628818E+02 -0.80755311517E+02  0.86269852842E+02  0.00000000000E+00 0.  1.
</event>
<event>
 6    1  0.1715574E-005  0.6492690E+02  0.7818608E-02  0.1392328E+00
          2   -1    0    0  502    0  0.00000000000E+00  0.00000000000E+00  0.10789753116E+03  0.10789753116E+03  0.00000000000E+00 0. -1.
          1   -1    0    0  501    0 -0.00000000000E+00 -0.00000000000E+00 -0.34649185694E+03  0.34649185694E+03  0.00000000000E+00 0. -1.
          2    1    1    2  501    0  0.80177013880E+01 -0.27260678877E+02  0.66278228816E+02  0.72112632481E+02  0.00000000000E+00 0. -1.
          1    1    1    2  502    0 -0.18138920475E+02  0.21538868282E+02 -0.24446901540E+03  0.24608543796E+03  0.00000000000E+00 0. -1.
         22    1    1    2    0    0  0.94972717061E+01  0.27904614573E+02 -0.92549082358E+02  0.97129801450E+02  0.00000000000E+00 0.  1.
         22    1    1    2    0    0  0.62394738140E+00 -0.22182803978E+02  0.32145543168E+02  0.39061516205E+02  0.00000000000E+00 0.  1.
</event>
<event>
 6    1  0.1715574E-005  0.4576336E+02  0.7818608E-02  0.1573263E+00
          2   -1    0    0  502    0  0.00000000000E+00  0.00000000000E+00  0.16394049637E+03  0.16394049637E+03  0.00000000000E+00 0. -1.
          1   -1    0    0  501    0 -0.00000000000E+00 -0.00000000000E+00 -0.20273488834E+03  0.20273488834E+03  0.00000000000E+00 0.  1.
          2    1    1    2  501    0  0.67620927094E+02 -0.86628892137E+00  0.36579945557E+02  0.76885841704E+02  0.00000000000E+00 0. -1.
          1    1    1    2  502    0 -0.20391716846E+02 -0.30538025432E+00 -0.13956093610E+03  0.14104315034E+03  0.00000000000E+00 0.  1.
         22    1    1    2    0    0 -0.69175310029E+01 -0.91339208953E+01 -0.37322012357E+02  0.39041175091E+02  0.00000000000E+00 0. -1.
         22    1    1    2    0    0 -0.40311679245E+02  0.10305590071E+02  0.10150861093E+03  0.10970521757E+03  0.00000000000E+00 0. -1.
</event>
<event>
 6    1  0.1715574E-005  0.1295534E+03  0.7818608E-02  0.1238508E+00
          2   -1    0    0  502    0  0.00000000000E+00  0.00000000000E+00  0.13116998390E+04  0.13116998390E+04  0.00000000000E+00 0. -1.
          1   -1    0    0  501    0 -0.00000000000E+00 -0.00000000000E+00 -0.10479540827E+02  0.10479540827E+02  0.00000000000E+00 0.  1.
          2    1    1    2  501    0 -0.61183604831E+02  0.10791792930E+02  0.43212132862E+03  0.43656470190E+03  0.00000000000E+00 0. -1.
          1    1    1    2  502    0  0.44398039963E+01 -0.28748669204E+02  0.19932743079E+03  0.20143888033E+03  0.00000000000E+00 0.  1.
         22    1    1    2    0    0 -0.40077588816E+02 -0.39398764607E+01  0.18098157915E+03  0.18540784165E+03  0.00000000000E+00 0.  1.
         22    1    1    2    0    0  0.96821389650E+02  0.21896752734E+02  0.48878995957E+03  0.49876795592E+03  0.00000000000E+00 0.  1.
</event>
<event>
 6    1  0.1715574E-005  0.5615359E+02  0.7818608E-02  0.1490268E+00
          2   -1    0    0  502    0  0.00000000000E+00  0.00000000000E+00  0.31742568672E+03  0.31742568672E+03  0.00000000000E+00 0.  1.
          1   -1    0    0  501    0 -0.00000000000E+00 -0.00000000000E+00 -0.15862777556E+03  0.15862777556E+03  0.00000000000E+00 0. -1.
          2    1    1    2  501    0  0.34121632394E+02 -0.13524992947E+02  0.26112709793E+03  0.26369408887E+03  0.00000000000E+00 0.  1.
          1    1    1    2  502    0 -0.29220037867E+02  0.22189997398E+01 -0.85024972561E+02  0.89933200387E+02  0.00000000000E+00 0. -1.
         22    1    1    2    0    0  0.18349471424E+02 -0.24030785168E+01  0.48172117108E+02  0.51604561374E+02  0.00000000000E+00 0.  1.
         22    1    1    2    0    0 -0.23251065952E+02  0.13709071724E+02 -0.65476331311E+02  0.70821611655E+02  0.00000000000E+00 0. -1.
</event>
<event>
 6    1  0.1715574E-005  0.5830344E+02  0.7818608E-02  0.1431827E+00
          2   -1    0    0  502    0  0.00000000000E+00  0.00000000000E+00  0.10727726709E+03  0.10727726709E+03  0.00000000000E+00 0.  1.
          1   -1    0    0  501    0 -0.00000000000E+00 -0.00000000000E+00 -0.10624834414E+03  0.10624834414E+03  0.00000000000E+00 0.  1.
          2    1    1    2  501    0  0.12626069276E+02  0.24756077388E+02 -0.30456486517E+01  0.27956340403E+02  0.00000000000E+00 0.  1.
          1    1    1    2  502    0 -0.38231096375E+01 -0.45356274827E+02  0.36474065013E+02  0.58328082877E+02  0.00000000000E+00 0.  1.
         22    1    1    2    0    0 -0.34617109805E+02 -0.17098253289E+02 -0.61828926879E+02  0.72893832084E+02  0.00000000000E+00 0.  1.
         22    1    1    2    0    0  0.25814150167E+02  0.37698450728E+02  0.29429433461E+02  0.54347355869E+02  0.00000000000E+00 0. -1.
</event>
<event>
 6    1  0.1715574E-005  0.2859947E+02  0.7818608E-02  0.1677950E+00
          2   -1    0    0  502    0  0.00000000000E+00  0.00000000000E+00  0.17631871814E+03  0.17631871814E+03  0.00000000000E+00 0. -1.
          1   -1    0    0  501    0 -0.00000000000E+00 -0.00000000000E+00 -0.95481266847E+02  0.95481266847E+02  0.00000000000E+00 0. -1.
          2    1    1    2  501    0  0.13298804529E+02 -0.27110971619E+02 -0.16241461334E+02  0.34287724484E+02  0.00000000000E+00 0. -1.
          1    1    1    2  502    0 -0.26451912134E+02  0.19741903803E+02 -0.39191651938E+02  0.51238969573E+02  0.00000000000E+00 0. -1.
         22    1    1    2    0    0 -0.66212115588E+01 -0.11258091094E+02 -0.22055996369E+02  0.25633026224E+02  0.00000000000E+00 0.  1.
         22    1    1    2    0    0  0.19774319164E+02  0.18627158910E+02  0.15832656093E+03  0.16064026470E+03  0.00000000000E+00 0. -1.
</event>
<event>
 6    1  0.1715574E-005  0.9793051E+02  0.7818608E-02  0.1285105E+00
          2   -1    0    0  502    0  0.00000000000E+00  0.00000000000E+00  0.69170020584E+03  0.69170020584E+03  0.00000000000E+00 0.  1.
          1   -1    0    0  501    0 -0.00000000000E+00 -0.00000000000E+00 -0.94600865765E+02  0.94600865765E+02  0.00000000000E+00 0.  1.
          2    1    1    2  501    0 -0.70405465292E+02  0.30099431189E+02  0.55495703802E+03  0.56021444051E+03  0.00000000000E+00 0.  1.
          1    1    1    2  502    0  0.58138880238E+02 -0.18161643689E+02 -0.40002796666E+02  0.72871108389E+02  0.00000000000E+00 0.  1.
         22    1    1    2    0    0  0.27555248813E+02 -0.24722236252E+02 -0.24715612864E+02  0.44512270462E+02  0.00000000000E+00 0.  1.
         22    1    1    2    0    0 -0.15288663759E+02  0.12784448751E+02  0.10686071158E+03  0.10870325225E+03  0.00000000000E+00 0.  1.
</event>
<event>
 6    1  0.1715574E-005  0.1864878E+03  0.7818608E-02  0.1195976E+00
          2   -1    0    0  502    0  0.00000000000E+00  0.00000000000E+00  0.86056177670E+02  0.86056177670E+02  0.00000000000E+00 0. -1.
          1   -1    0    0  501    0 -0.00000000000E+00 -0.00000000000E+00 -0.71031179036E+03  0.71031179036E+03  0.00000000000E+00 0. -1.
          2    1    1    2  501    0 -0.75686574424E+02 -0.13799361428E+03 -0.25986348538E+03  0.30380869995E+03  0.00000000000E+00 0. -1.
          1    1    1    2  502    0  0.32947845013E+02  0.18235105574E+03 -0.24174287385E+03  0.30459331095E+03  0.00000000000E+00 0. -1.
         22    1    1    2    0    0  0.23659481800E+02  0.39594109062E+02 -0.78905862302E+02  0.91398028737E+02  0.00000000000E+00 0.  1.
         22    1    1    2    0    0  0.19079247611E+02 -0.83951550520E+02 -0.43743391155E+02  0.96567928392E+02  0.00000000000E+00 0.  1.
</event>
<event>
 6    1  0.1715574E-005  0.7807413E+02  0.7818608E-02  0.1358414E+00
          2   -1    0    0  502    0  0.00000000000E+00  0.00000000000E+00  0.73983113845E+02  0.73983113845E+02  0.00000000000E+00 0. -1.
          1   -1    0    0  501    0 -0.00000000000E+00 -0.00000000000E+00 -0.20083831317E+03  0.20083831317E+03  0.00000000000E+00 0.  1.
          2    1    1    2  501    0 -0.72353779790E+00 -0.33898557024E+02  0.33698029007E+02  0.47803690592E+02  0.00000000000E+00 0. -1.
          1    1    1    2  502    0 -0.25830669094E+02  0.44265418047E+00 -0.38651843885E+02  0.46490692017E+02  0.00000000000E+00 0.  1.
         22    1    1    2    0    0  0.11777565713E+02 -0.13391740797E+02  0.22088041875E+02  0.28388930406E+02  0.00000000000E+00 0. -1.
         22    1    1    2    0    0  0.14776641179E+02  0.46847643641E+02 -0.14398942632E+03  0.15213811400E+03  0.00000000000E+00 0.  1.
</event>
<event>
 6    1  0.1715574E-005  0.1170059E+03  0.7818608E-02  0.1288384E+00
          2   -1    0    0  502    0  0.00000000000E+00  0.00000000000E+00  0.31389348325E+03  0.31389348325E+03  0.00000000000E+00 0.  1.
          1   -1    0    0  501    0 -0.00000000000E+00 -0.00000000000E+00 -0.10249970402E+03  0.10249970402E+03  0.00000000000E+00 0.  1.
          2    1    1    2  501    0  0.94396966997E+02  0.14025176009E+02 -0.31390357970E+01  0.95484797147E+02  0.00000000000E+00 0.  1.
          1    1    1    2  502    0  0.31029048880E+01  0.37227461511E+02 -0.12017768309E+02  0.39242052245E+02  0.00000000000E+00 0.  1.
         22    1    1    2    0    0 -0.10888475983E+03 -0.62789974372E+02  0.23258130396E+03  0.26437196288E+03  0.00000000000E+00 0.  1.
         22    1    1    2    0    0  0.11384887949E+02  0.11537336853E+02 -0.60307206201E+01  0.17294374995E+02  0.00000000000E+00 0. -1.
</event>
<event>
 6    1  0.1715574E-005  0.5973810E+02  0.7818608E-02  0.1406837E+00
          2   -1    0    0  502    0  0.00000000000E+00  0.00000000000E+00  0.86269222314E+02  0.86269222314E+02  0.00000000000E+00 0. -1.
          1   -1    0    0  501    0 -0.00000000000E+00 -0.00000000000E+00 -0.19335085448E+03  0.19335085448E+03  0.00000000000E+00 0.  1.
          2    1    1    2  501    0  0.19405821423E+02  0.25533217695E+02  0.52173414225E+02  0.61242111842E+02  0.00000000000E+00 0. -1.
          1    1    1    2  502    0 -0.15019762469E+02 -0.15818772123E+02 -0.31887836654E+02  0.38634970462E+02  0.00000000000E+00 0.  1.
         22    1    1    2    0    0 -0.20936057858E+02 -0.20769106259E+02 -0.14809763266E+03  0.15100524194E+03  0.00000000000E+00 0.  1.
         22    1    1    2    0    0  0.16549998904E+02  0.11054660687E+02  0.20730422929E+02  0.28737752546E+02  0.00000000000E+00 0.  1.
</event>
<event>
 6    1  0.1715574E-005  0.4797706E+02  0.7818608E-02  0.1458499E+00
          2   -1    0    0  502    0  0.00000000000E+00  0.00000000000E+00  0.17822520145E+03  0.17822520145E+03  0.00000000000E+00 0. -1.
          1   -1    0    0  501    0 -0.00000000000E+00 -0.00000000000E+00 -0.12339170257E+03  0.12339170257E+03  0.00000000000E+00 0. -1.
          2    1    1    2  501    0 -0.31107535694E+02 -0.10936002939E+02  0.11251983765E+03  0.11725181790E+03  0.00000000000E+00 0. -1.
          1    1    1    2  502    0  0.28624468702E+02  0.32652401564E+01 -0.53051799963E+02  0.60369822602E+02  0.00000000000E+00 0. -1.
         22    1    1    2    0    0  0.15812637855E+02  0.60183354915E+01 -0.62418424177E+02  0.64670855528E+02  0.00000000000E+00 0. -1.
         22    1    1    2    0    0 -0.13329570863E+02  0.16524272907E+01  0.57783885367E+02  0.59324407991E+02  0.00000000000E+00 0. -1.
</event>
<event>
 6    1  0.1715574E-005  0.5564063E+02  0.7818608E-02  0.1460079E+00
          2   -1    0    0  502    0  0.00000000000E+00  0.00000000000E+00  0.71776413511E+02  0.71776413511E+02  0.00000000000E+00 0. -1.
          1   -1    0    0  501    0 -0.00000000000E+00 -0.00000000000E+00 -0.17891192809E+03  0.17891192809E+03  0.00000000000E+00 0. -1.
          2    1    1    2  501    0  0.24130770231E+02  0.34016314638E+02  0.20828653823E+02  0.46617985301E+02  0.00000000000E+00 0. -1.
          1    1    1    2  502    0 -0.15658242811E+02 -0.28520797289E+02 -0.31289555630E+02  0.45140367050E+02  0.00000000000E+00 0. -1.
         22    1    1    2    0    0  0.13616714912E+02  0.13639954929E+02  0.26257492482E+02  0.32571754741E+02  0.00000000000E+00 0. -1.
         22    1    1    2    0    0 -0.22089242332E+02 -0.19135472279E+02 -0.12293210525E+03  0.12635823451E+03  0.00000000000E+00 0. -1.
</event>
<event>
 6    1  0.1715574E-005  0.1171566E+03  0.7818608E-02  0.1271473E+00
          2   -1    0    0  502    0  0.00000000000E+00  0.00000000000E+00  0.14585397558E+03  0.14585397558E+03  0.00000000000E+00 0.  1.
          1   -1    0    0  501    0 -0.00000000000E+00 -0.00000000000E+00 -0.66630735020E+03  0.66630735020E+03  0.00000000000E+00 0.  1.
          2    1    1    2  501    0  0.20587505581E+02 -0.31815969145E+02  0.31516484801E+02  0.49288843493E+02  0.00000000000E+00 0.  1.
          1    1    1    2  502    0 -0.37916946203E+02  0.46582308947E+01 -0.61884099335E+03  0.62001900695E+03  0.00000000000E+00 0.  1.
         22    1    1    2    0    0 -0.33663774601E-01  0.26279286459E+02 -0.32600750521E+02  0.41873750304E+02  0.00000000000E+00 0. -1.
         22    1    1    2    0    0  0.17363104396E+02  0.87845179167E+00  0.99471884456E+02  0.10097972504E+03  0.00000000000E+00 0.  1.
</event>
<event>
 6    1  0.1715574E-005  0.1841284E+03  0.7818608E-02  0.1169645E+00
          2   -1    0    0  502    0  0.00000000000E+00  0.00000000000E+00  0.40717492594E+02  0.40717492594E+02  0.00000000000E+00 0. -1.
          1   -1    0    0  501    0 -0.00000000000E+00 -0.00000000000E+00 -0.75324363552E+03  0.75324363552E+03  0.00000000000E+00 0. -1.
          2    1    1    2  501    0  0.29403779787E+02 -0.45227812856E+02 -0.18814515257E+03  0.19572617546E+03  0.00000000000E+00 0. -1.
          1    1    1    2  502    0 -0.12500257729E+03  0.12975523198E+02 -0.18749616991E+03  0.22571845796E+03  0.00000000000E+00 0. -1.
         22    1    1    2    0    0 -0.28892751046E+02  0.16406023734E+02 -0.79622139573E+02  0.86276496150E+02  0.00000000000E+00 0.  1.
         22    1    1    2    0    0  0.12449154855E+03  0.15846265923E+02 -0.25726268087E+03  0.28623999855E+03  0.00000000000E+00 0. -1.
</event>
<event>
 6    1  0.1715574E-005  0.1203652E+03  0.7818608E-02  0.1253547E+00
          2   -1    0    0  502    0  0.00000000000E+00  0.00000000000E+00  0.34985225770E+02  0.34985225770E+02  0.00000000000E+00 0. -1.
          1   -1    0    0  501    0 -0.00000000000E+00 -0.00000000000E+00 -0.43827933367E+03  0.43827933367E+03  0.00000000000E+00 0. -1.
          2    1    1    2  501    0  0.22167469884E+02  0.30738708172E+02 -0.76374530891E+02  0.85260388634E+02  0.00000000000E+00 0. -1.
          1    1    1    2  502    0 -0.63190775624E+02 -0.94611218794E+01 -0.15515884932E+03  0.16780004610E+03  0.00000000000E+00 0. -1.
         22    1    1    2    0    0 -0.26224723524E+02 -0.71936713852E+01 -0.14326379065E+03  0.14582180476E+03  0.00000000000E+00 0. -1.
         22    1    1    2    0    0  0.67248029265E+02 -0.14083914908E+02 -0.28496937042E+02  0.74382319942E+02  0.00000000000E+00 0. -1.
</event>
<event>
 6    1  0.1715574E-005  0.2986399E+03  0.7818608E-02  0.1088220E+00
          2   -1    0    0  502    0  0.00000000000E+00  0.00000000000E+00  0.12225393153E+04  0.12225393153E+04  0.00000000000E+00 0.  1.
          1   -1    0    0  501    0 -0.00000000000E+00 -0.00000000000E+00 -0.70663877586E+02  0.70663877586E+02  0.00000000000E+00 0.  1.
          2    1    1    2  501    0 -0.46355487973E+02  0.43539986098E+02  0.75591520110E+02  0.98785826753E+02  0.00000000000E+00 0.  1.
          1    1    1    2  502    0  0.24967996688E+03 -0.88037390732E+02  0.44388578662E+03  0.51684161945E+03  0.00000000000E+00 0.  1.
         22    1    1    2    0    0  0.11762429567E+02 -0.45615782952E+01  0.70443210195E+01  0.14449401527E+02  0.00000000000E+00 0.  1.
         22    1    1    2    0    0 -0.21508690848E+03  0.49058982930E+02  0.62535380992E+03  0.66312634512E+03  0.00000000000E+00 0.  1.
</event>
<event>
 6    1  0.1715574E-005  0.2511634E+03  0.7818608E-02  0.1113441E+00
          2   -1    0    0  502    0  0.00000000000E+00  0.00000000000E+00  0.93540934475E+02  0.93540934475E+02  0.00000000000E+00 0. -1.
          1   -1    0    0  501    0 -0.00000000000E+00 -0.00000000000E+00 -0.98475203230E+03  0.98475203230E+03  0.00000000000E+00 0.  1.
          2    1    1    2  501    0  0.59140603213E+01 -0.99759413439E+02 -0.42149980583E+02  0.10845984299E+03  0.00000000000E+00 0. -1.
          1    1    1    2  502    0 -0.76697376115E+02  0.21756541112E+03 -0.68577551495E+03  0.72353662832E+03  0.00000000000E+00 0.  1.
         22    1    1    2    0    0 -0.22003449812E+01  0.13296693785E+02 -0.66246786032E+02  0.67603847844E+02  0.00000000000E+00 0. -1.
         22    1    1    2    0    0  0.72983660775E+02 -0.13110269147E+03 -0.97038816262E+02  0.17869264762E+03  0.00000000000E+00 0. -1.
</event>
<event>
 6    1  0.1715574E-005  0.6117992E+02  0.7818608E-02  0.1394431E+00
          2   -1    0    0  502    0  0.00000000000E+00  0.00000000000E+00  0.19520980239E+03  0.19520980239E+03  0.00000000000E+00 0. -1.
          1   -1    0    0  501    0 -0.00000000000E+00 -0.00000000000E+00 -0.38986780310E+03  0.38986780310E+03  0.00000000000E+00 0. -1.
          2    1    1    2  501    0 -0.36895017228E+02  0.32142450664E+02  0.15841413366E+03  0.16579932803E+03  0.00000000000E+00 0. -1.
          1    1    1    2  502    0  0.33514977670E+02 -0.15517587615E+02 -0.25596182205E+03  0.25861265167E+03  0.00000000000E+00 0. -1.
         22    1    1    2    0    0 -0.10353120312E+02  0.27716129854E+01  0.29737865480E+02  0.31610276526E+02  0.00000000000E+00 0.  1.
         22    1    1    2    0    0  0.13733159869E+02 -0.19396476034E+02 -0.12684817780E+03  0.12905534926E+03  0.00000000000E+00 0.  1.
</event>
<event>
 6    1  0.1715574E-005  0.4627426E+02  0.7818608E-02  0.1468808E+00
          2   -1    0    0  502    0  0.00000000000E+00  0.00000000000E+00  0.12245965834E+03  0.12245965834E+03  0.00000000000E+00 0.  1.
          1   -1    0    0  501    0 -0.00000000000E+00 -0.00000000000E+00 -0.26519890944E+03  0.26519890944E+03  0.00000000000E+00 0. -1.
          2    1    1    2  501    0  0.32200972069E+02 -0.93146842689E+00  0.67356501924E+02  0.74663703277E+02  0.00000000000E+00 0.  1.
          1    1    1    2  502    0 -0.31003737296E+02  0.90091899087E+01 -0.18650664263E+03  0.18928054569E+03  0.00000000000E+00 0. -1.
         22    1    1    2    0    0  0.11088282336E+02 -0.57514252416E+01  0.48738567284E+02  0.50313783781E+02  0.00000000000E+00 0.  1.
         22    1    1    2    0    0 -0.12285517110E+02 -0.23262962403E+01 -0.72327677683E+02  0.73400535038E+02  0.00000000000E+00 0. -1.
</event>
<event>
 6    1  0.1715574E-005  0.2148135E+03  0.7818608E-02  0.1191811E+00
          2   -1    0    0  502    0  0.00000000000E+00  0.00000000000E+00  0.37038189811E+03  0.37038189811E+03  0.00000000000E+00 0. -1.
          1   -1    0    0  501    0 -0.00000000000E+00 -0.00000000000E+00 -0.37252117259E+03  0.37252117259E+03  0.00000000000E+00 0. -1.
          2    1    1    2  501    0  0.18090313073E+03  0.12932452775E+03  0.22746247013E+03  0.31810368043E+03  0.00000000000E+00 0. -1.
          1    1    1    2  502    0 -0.59353514540E+02 -0.12104279795E+03 -0.20636947438E+03  0.24650062592E+03  0.00000000000E+00 0. -1.
         22    1    1    2    0    0 -0.55585471893E+02  0.26825837176E+02  0.45572457666E+02  0.76721699169E+02  0.00000000000E+00 0. -1.
         22    1    1    2    0    0 -0.65964144297E+02 -0.35107566974E+02 -0.68804727892E+02  0.10157706519E+03  0.00000000000E+00 0.  1.
</event>
<event>
 6    1  0.1715574E-005  0.6864509E+02  0.7818608E-02  0.1442324E+00
          2   -1    0    0  502    0  0.00000000000E+00  0.00000000000E+00  0.61159153284E+02  0.61159153284E+02  0.00000000000E+00 0. -1.
          1   -1    0    0  501    0 -0.00000000000E+00 -0.00000000000E+00 -0.35871198799E+03  0.35871198799E+03  0.00000000000E+00 0. -1.
          2    1    1    2  501    0 -0.11918858160E+02  0.32322105278E+02  0.60797464585E+01  0.34982009468E+02  0.00000000000E+00 0. -1.
          1    1    1    2  502    0 -0.12456970403E+02 -0.59722894867E+02 -0.23017550486E+03  0.23812342035E+03  0.00000000000E+00 0. -1.
         22    1    1    2    0    0  0.44463595772E+01  0.30746545870E+02  0.28901526878E+02  0.42431338093E+02  0.00000000000E+00 0. -1.
         22    1    1    2    0    0  0.19929468985E+02 -0.33457562810E+01 -0.10235860318E+03  0.10433437336E+03  0.00000000000E+00 0. -1.
</event>
<event>
 6    1  0.1715574E-005  0.6126318E+02  0.7818608E-02  0.1422821E+00
          2   -1    0    0  502    0  0.00000000000E+00  0.00000000000E+00  0.23165344454E+03  0.23165344454E+03  0.00000000000E+00 0.  1.
          1   -1    0    0  501    0 -0.00000000000E+00 -0.00000000000E+00 -0.12510173060E+03  0.12510173060E+03  0.00000000000E+00 0. -1.
          2    1    1    2  501    0 -0.45716768484E+02  0.37624769127E+02  0.97889453868E+02  0.11440275937E+03  0.00000000000E+00 0.  1.
          1    1    1    2  502    0  0.71014039422E+01 -0.48549922529E+02 -0.70501786295E+02  0.85895441010E+02  0.00000000000E+00 0. -1.
         22    1    1    2    0    0  0.58256550869E+01 -0.86111036444E+01 -0.34774465345E+02  0.36295355119E+02  0.00000000000E+00 0. -1.
         22    1    1    2    0    0  0.32789709455E+02  0.19536257047E+02  0.11393851171E+03  0.12016161965E+03  0.00000000000E+00 0.  1.
</event>
<event>
 6    1  0.1715574E-005  0.9341335E+02  0.7818608E-02  0.1298841E+00
          2   -1    0    0  502    0  0.00000000000E+00  0.00000000000E+00  0.34730132470E+03  0.34730132470E+03  0.00000000000E+00 0.  1.
          1   -1    0    0  501    0 -0.00000000000E+00 -0.00000000000E+00 -0.34955547160E+02  0.34955547160E+02  0.00000000000E+00 0.  1.
          2    1    1    2  501    0 -0.18775669407E+02 -0.22445963819E+02  0.44321590739E+02  0.53110737701E+02  0.00000000000E+00 0.  1.
          1    1    1    2  502    0  0.17383952891E+02  0.47756089618E+02  0.29028905004E+02  0.58527969719E+02  0.00000000000E+00 0.  1.
         22    1    1    2    0    0 -0.22460472680E+02 -0.51589261284E+02  0.22588012478E+03  0.23278263570E+03  0.00000000000E+00 0.  1.
         22    1    1    2    0    0  0.23852189197E+02  0.26279135486E+02  0.13115157013E+02  0.37835528737E+02  0.00000000000E+00 0.  1.
</event>
<event>
 6    1  0.1715574E-005  0.8123789E+02  0.7818608E-02  0.1326262E+00
          2   -1    0    0  502    0  0.00000000000E+00  0.00000000000E+00  0.12395625441E+03  0.12395625441E+03  0.00000000000E+00 0.  1.
          1   -1    0    0  501    0 -0.00000000000E+00 -0.00000000000E+00 -0.15745189194E+03  0.15745189194E+03  0.00000000000E+00 0.  1.
          2    1    1    2  501    0  0.20808367771E+02 -0.46020440560E+02  0.43199268164E+02  0.66460859824E+02  0.00000000000E+00 0.  1.
          1    1    1    2  502    0 -0.32712140757E+02  0.40220379274E+02 -0.72380234513E+02  0.89031799993E+02  0.00000000000E+00 0.  1.
         22    1    1    2    0    0  0.16063710681E+02 -0.20947895043E+02  0.54839219719E+02  0.60862115695E+02  0.00000000000E+00 0. -1.
         22    1    1    2    0    0 -0.41599376944E+01  0.26747956329E+02 -0.59153890902E+02  0.65053370844E+02  0.00000000000E+00 0. -1.
</event>
<event>
 6    1  0.1715574E-005  0.6906836E+02  0.7818608E-02  0.1363436E+00
          2   -1    0    0  502    0  0.00000000000E+00  0.00000000000E+00  0.10981956010E+03  0.10981956010E+03  0.00000000000E+00 0. -1.
          1   -1    0    0  501    0 -0.00000000000E+00 -0.00000000000E+00 -0.26445802568E+03  0.26445802568E+03  0.00000000000E+00 0. -1.
          2    1    1    2  501    0  0.29055995540E+01 -0.56653098117E+02  0.70799662354E+02  0.90722699610E+02  0.00000000000E+00 0. -1.
          1    1    1    2  502    0  0.83392929254E+01  0.24221874608E+02 -0.90644648525E+02  0.94194985654E+02  0.00000000000E+00 0. -1.
         22    1    1    2    0    0 -0.68059998439E+01  0.42909585456E+02 -0.15781139455E+03  0.16368259042E+03  0.00000000000E+00 0. -1.
         22    1    1    2    0    0 -0.44388926355E+01 -0.10478361947E+02  0.23017915130E+02  0.25677310097E+02  0.00000000000E+00 0. -1.
</event>
<event>
 6    1  0.1715574E-005  0.6948998E+02  0.7818608E-02  0.1444707E+00
          2   -1    0    0  502    0  0.00000000000E+00  0.00000000000E+00  0.30265733172E+03  0.30265733172E+03  0.00000000000E+00 0.  1.
          1   -1    0    0  501    0 -0.00000000000E+00 -0.00000000000E+00 -0.13024614679E+03  0.13024614679E+03  0.00000000000E+00 0. -1.
          2    1    1    2  501    0 -0.56707398363E+02  0.13597138725E+02  0.19142599308E+03  0.20011127413E+03  0.00000000000E+00 0.  1.
          1    1    1    2  502    0  0.38579779886E+02 -0.13412574546E+02 -0.82615407951E+02  0.92160741115E+02  0.00000000000E+00 0. -1.
         22    1    1    2    0    0 -0.18194981379E+01  0.18713746928E+02  0.96186342793E+02  0.98006772406E+02  0.00000000000E+00 0.  1.
         22    1    1    2    0    0  0.19947116615E+02 -0.18898311107E+02 -0.32585742989E+02  0.42624690850E+02  0.00000000000E+00 0.  1.
</event>
<event>
 6    1  0.1715574E-005  0.8062676E+02  0.7818608E-02  0.1327529E+00
          2   -1    0    0  502    0  0.00000000000E+00  0.00000000000E+00  0.54225493003E+02  0.54225493003E+02  0.00000000000E+00 0. -1.
          1   -1    0    0  501    0 -0.00000000000E+00 -0.00000000000E+00 -0.36923653423E+03  0.36923653423E+03  0.00000000000E+00 0.  1.
          2    1    1    2  501    0 -0.51228496224E+02 -0.27168191648E+02  0.59449098438E+01  0.58290748973E+02  0.00000000000E+00 0. -1.
          1    1    1    2  502    0  0.34363591801E+02  0.15911046741E+02 -0.12730814200E+03  0.13282086007E+03  0.00000000000E+00 0.  1.
         22    1    1    2    0    0  0.34008873197E+02  0.23557222756E+02 -0.20448644729E+03  0.20862946418E+03  0.00000000000E+00 0.  1.
         22    1    1    2    0    0 -0.17143968774E+02 -0.12300077850E+02  0.10838638222E+02  0.23720954006E+02  0.00000000000E+00 0. -1.
</event>
<event>
 6    1  0.1715574E-005  0.1122222E+03  0.7818608E-02  0.1354483E+00
          2   -1    0    0  502    0  0.00000000000E+00  0.00000000000E+00  0.12948639926E+03  0.12948639926E+03  0.00000000000E+00 0.  1.
          1   -1    0    0  501    0 -0.00000000000E+00 -0.00000000000E+00 -0.46029727894E+03  0.46029727894E+03  0.00000000000E+00 0. -1.
          2    1    1    2  501    0  0.23284435630E+02  0.33169534606E+01  0.45311852794E+02  0.51052239192E+02  0.00000000000E+00 0.  1.
          1    1    1    2  502    0 -0.10617713415E+03  0.27089894574E+02 -0.36684246439E+03  0.38285877277E+03  0.00000000000E+00 0. -1.
         22    1    1    2    0    0  0.80890390409E+02 -0.11838904707E+02  0.48563680037E+02  0.95088621527E+02  0.00000000000E+00 0.  1.
         22    1    1    2    0    0  0.20023081076E+01 -0.18567943327E+02 -0.57843948118E+02  0.60784044708E+02  0.00000000000E+00 0. -1.
</event>
<event>
 6    1  0.1715574E-005  0.8816414E+02  0.7818608E-02  0.1320946E+00
          2   -1    0    0  502    0  0.00000000000E+00  0.00000000000E+00  0.13845742111E+03  0.13845742111E+03  0.00000000000E+00 0. -1.
          1   -1    0    0  501    0 -0.00000000000E+00 -0.00000000000E+00 -0.81842561635E+03  0.81842561635E+03  0.00000000000E+00 0. -1.
          2    1    1    2  501    0  0.27265704854E+02 -0.29931282252E+00 -0.60160567802E+03  0.60222329752E+03  0.00000000000E+00 0. -1.
          1    1    1    2  502    0 -0.53106897609E+02  0.13366086557E+02  0.11234004913E+03  0.12497712383E+03  0.00000000000E+00 0. -1.
         22    1    1    2    0    0  0.38537734730E+02 -0.15897268566E+02 -0.20566999407E+03  0.20985239242E+03  0.00000000000E+00 0.  1.
         22    1    1    2    0    0 -0.12696541975E+02  0.28304948306E+01  0.14967427710E+02  0.19830223684E+02  0.00000000000E+00 0.  1.
</event>
<event>
 6    1  0.1715574E-005  0.9744950E+02  0.7818608E-02  0.1309223E+00
          2   -1    0    0  502    0  0.00000000000E+00  0.00000000000E+00  0.54950455675E+02  0.54950455675E+02  0.00000000000E+00 0. -1.
          1   -1    0    0  501    0 -0.00000000000E+00 -0.00000000000E+00 -0.19139955967E+03  0.19139955967E+03  0.00000000000E+00 0. -1.
          2    1    1    2  501    0 -0.87552783041E+01  0.22621137257E+02 -0.11958738026E+02  0.27044078172E+02  0.00000000000E+00 0. -1.
          1    1    1    2  502    0 -0.36045770051E+02 -0.28551117767E+02 -0.27412104767E+02  0.53533983152E+02  0.00000000000E+00 0. -1.
         22    1    1    2    0    0  0.21790291362E+02  0.13480058239E+02  0.28241978258E+02  0.38133162781E+02  0.00000000000E+00 0.  1.
         22    1    1    2    0    0  0.23010756994E+02 -0.75500777288E+01 -0.12532023946E+03  0.12763879124E+03  0.00000000000E+00 0. -1.
</event>
<event>
 6    1  0.1715574E-005  0.4736093E+02  0.7818608E-02  0.1505590E+00
          2   -1    0    0  502    0  0.00000000000E+00  0.00000000000E+00  0.55362715501E+02  0.55362715501E+02  0.00000000000E+00 0.  1.
          1   -1    0    0  501    0 -0.00000000000E+00 -0.00000000000E+00 -0.18541998108E+03  0.18541998108E+03  0.00000000000E+00 0.  1.
          2    1    1    2  501    0  0.15942125285E+02  0.21279376778E+02 -0.12534886523E+01  0.26618310774E+02  0.00000000000E+00 0.  1.
          1    1    1    2  502    0 -0.76011144297E+01 -0.23677752102E+02 -0.65635777239E+02  0.70188803516E+02  0.00000000000E+00 0.  1.
         22    1    1    2    0    0 -0.19878613016E+02 -0.19750096453E+02 -0.97542087417E+02  0.10148736071E+03  0.00000000000E+00 0. -1.
         22    1    1    2    0    0  0.11537602161E+02  0.22148471777E+02  0.34374087733E+02  0.42488221581E+02  0.00000000000E+00 0.  1.
</event>
<event>
 6    1  0.1715574E-005  0.6092626E+02  0.7818608E-02  0.1397992E+00
          2   -1    0    0  502    0  0.00000000000E+00  0.00000000000E+00  0.12264896038E+03  0.12264896038E+03  0.00000000000E+00 0. -1.
          1   -1    0    0  501    0 -0.00000000000E+00 -0.00000000000E+00 -0.15222129439E+03  0.15222129439E+03  0.00000000000E+00 0. -1.
          2    1    1    2  501    0 -0.20945086471E+02 -0.13454871569E+02  0.31929454425E+02  0.40487285364E+02  0.00000000000E+00 0. -1.
          1    1    1    2  502    0  0.41268561862E+02  0.69265600792E+01 -0.90821863199E+02  0.99998411325E+02  0.00000000000E+00 0. -1.
         22    1    1    2    0    0 -0.34260542473E+02  0.25963282372E+01  0.77126219447E+02  0.84433283822E+02  0.00000000000E+00 0. -1.
         22    1    1    2    0    0  0.13937067082E+02  0.39319832526E+01 -0.47806144682E+02  0.49951274263E+02  0.00000000000E+00 0.  1.
</event>
<event>
 6    1  0.1715574E-005  0.6807729E+02  0.7818608E-02  0.1436146E+00
          2   -1    0    0  502    0  0.00000000000E+00  0.00000000000E+00  0.17513076100E+04  0.17513076100E+04  0.00000000000E+00 0.  1.
          1   -1    0    0  501    0 -0.00000000000E+00 -0.00000000000E+00 -0.40823198723E+03  0.40823198723E+03  0.00000000000E+00 0.  1.
          2    1    1    2  501    0  0.57988791672E+02  0.11704884426E+03  0.17002703354E+04  0.17052807233E+04  0.00000000000E+00 0.  1.
          1    1    1    2  502    0 -0.11535491709E+02 -0.10454052520E+03 -0.28679823517E+03  0.30547506719E+03  0.00000000000E+00 0.  1.
         22    1    1    2    0    0 -0.39427812761E+02 -0.13636900599E+01 -0.10478097253E+03  0.11196188760E+03  0.00000000000E+00 0.  1.
         22    1    1    2    0    0 -0.70254872021E+01 -0.11144629001E+02  0.34384495027E+02  0.36821919073E+02  0.00000000000E+00 0. -1.
</event>
<event>
 6    1  0.1715574E-005  0.6145477E+02  0.7818608E-02  0.1392688E+00
          2   -1    0    0  502    0  0.00000000000E+00  0.00000000000E+00  0.70052396454E+02  0.70052396454E+02  0.00000000000E+00 0.  1.
          1   -1    0    0  501    0 -0.00000000000E+00 -0.00000000000E+00 -0.14532925672E+03  0.14532925672E+03  0.00000000000E+00 0. -1.
          2    1    1    2  501    0  0.13684894579E+02 -0.17848881713E+02  0.22122760857E+02  0.31547986718E+02  0.00000000000E+00 0.  1.
          1    1    1    2  502    0  0.14662139813E+02  0.15276384062E+02 -0.31858651685E+02  0.38253365095E+02  0.00000000000E+00 0. -1.
         22    1    1    2    0    0 -0.15404577391E+02 -0.34480474983E+02  0.26087704794E+02  0.45899591513E+02  0.00000000000E+00 0.  1.
         22    1    1    2    0    0 -0.12942457000E+02  0.37052972634E+02 -0.91628674234E+02  0.99680709850E+02  0.00000000000E+00 0. -1.
</event>
<event>
 6    1  0.1715574E-005  0.5919971E+02  0.7818608E-02  0.1402671E+00
          2   -1    0    0  502    0  0.00000000000E+00  0.00000000000E+00  0.11989038739E+03  0.11989038739E+03  0.00000000000E+00 0. -1.
          1   -1    0    0  501    0 -0.00000000000E+00 -0.00000000000E+00 -0.81095396757E+02  0.81095396757E+02  0.00000000000E+00 0.  1.
          2    1    1    2  501    0 -0.97817827629E+01  0.26739047039E+02  0.30312249512E+02  0.41587166062E+02  0.00000000000E+00 0. -1.
          1    1    1    2  502    0  0.47300786717E+01 -0.25662882679E+02 -0.14825174801E+02  0.30012380771E+02  0.00000000000E+00 0.  1.
         22    1    1    2    0    0  0.41420693728E+01 -0.27673932310E+02 -0.46727229903E+02  0.54465009709E+02  0.00000000000E+00 0.  1.
         22    1    1    2    0    0  0.90963471832E+00  0.26597767950E+02  0.70035145824E+02  0.74921227605E+02  0.00000000000E+00 0. -1.
</event>
<event>
 6    1  0.1715574E-005  0.2248062E+03  0.7818608E-02  0.1136131E+00
          2   -1    0    0  502    0  0.00000000000E+00  0.00000000000E+00  0.24837522817E+03  0.24837522817E+03  0.00000000000E+00 0.  1.
          1   -1    0    0  501    0 -0.00000000000E+00 -0.00000000000E+00 -0.20664913828E+03  0.20664913828E+03  0.00000000000E+00 0.  1.
          2    1    1    2  501    0  0.72122687534E+02 -0.15006354141E+02  0.19557872128E+02  0.76219309128E+02  0.00000000000E+00 0.  1.
          1    1    1    2  502    0 -0.14805616583E+03 -0.93950238092E+02 -0.52008967968E+02  0.18289944840E+03  0.00000000000E+00 0.  1.
         22    1    1    2    0    0  0.93014554150E+02  0.11635191713E+03  0.87734776376E+02  0.17287818512E+03  0.00000000000E+00 0.  1.
         22    1    1    2    0    0 -0.17081075857E+02 -0.73953248963E+01 -0.13557590651E+02  0.23027423803E+02  0.00000000000E+00 0.  1.
</event>
<event>
 6    1  0.1715574E-005  0.7227571E+02  0.7818608E-02  0.1355288E+00
          2   -1    0    0  502    0  0.00000000000E+00  0.00000000000E+00  0.20134298157E+03  0.20134298157E+03  0.00000000000E+00 0.  1.
          1   -1    0    0  501    0 -0.00000000000E+00 -0.00000000000E+00 -0.56151616081E+02  0.56151616081E+02  0.00000000000E+00 0.  1.
          2    1    1    2  501    0  0.21608635305E+02 -0.87316370631E+01  0.72326761155E+02  0.75989045162E+02  0.00000000000E+00 0.  1.
          1    1    1    2  502    0 -0.34552718715E+02  0.15982788613E+02 -0.19879318283E+01  0.38122064155E+02  0.00000000000E+00 0.  1.
         22    1    1    2    0    0  0.44293595729E+02 -0.62795529289E+01  0.95756365775E+02  0.10569123423E+03  0.00000000000E+00 0.  1.
         22    1    1    2    0    0 -0.31349512319E+02 -0.97159862134E+00 -0.20903829613E+02  0.37692254098E+02  0.00000000000E+00 0.  1.
</event>
<event>
 6    1  0.1715574E-005  0.3355588E+02  0.7818608E-02  0.1579967E+00
          2   -1    0    0  502    0  0.00000000000E+00  0.00000000000E+00  0.10789428987E+03  0.10789428987E+03  0.00000000000E+00 0. -1.
          1   -1    0    0  501    0 -0.00000000000E+00 -0.00000000000E+00 -0.70112779074E+03  0.70112779074E+03  0.00000000000E+00 0. -1.
          2    1    1    2  501    0 -0.11170584371E+02 -0.36794424221E+02  0.53826200353E+02  0.66150370017E+02  0.00000000000E+00 0. -1.
          1    1    1    2  502    0  0.12934586883E+02  0.57067208478E+02 -0.60632003631E+03  0.60913705868E+03  0.00000000000E+00 0. -1.
         22    1    1    2    0    0  0.14838002194E+02 -0.15735232410E+02  0.43059708703E+02  0.48186122086E+02  0.00000000000E+00 0. -1.
         22    1    1    2    0    0 -0.16602004706E+02 -0.45375518471E+01 -0.83799373614E+02  0.85548529825E+02  0.00000000000E+00 0.  1.
</event>
<event>
 6    1  0.1715574E-005  0.4450224E+03  0.7818608E-02  0.1089075E+00
          2   -1    0    0  502    0  0.00000000000E+00  0.00000000000E+00  0.10184108868E+04  0.10184108868E+04  0.00000000000E+00 0. -1.
          1   -1    0    0  501    0 -0.00000000000E+00 -0.00000000000E+00 -0.42485990073E+03  0.42485990073E+03  0.00000000000E+00 0.  1.
          2    1    1    2  501    0 -0.44258952780E+03  0.60479873181E+02  0.68312168683E+03  0.81620986529E+03  0.00000000000E+00 0. -1.
          1    1    1    2  502    0  0.40353981765E+03 -0.21087010169E+01  0.73238347071E+02  0.41013739958E+03  0.00000000000E+00 0.  1.
         22    1    1    2    0    0  0.53209983429E+02 -0.63701345011E+02 -0.17742943993E+03  0.19588356196E+03  0.00000000000E+00 0.  1.
         22    1    1    2    0    0 -0.14160273282E+02  0.53301728472E+01  0.14620392134E+02  0.21039960745E+02  0.00000000000E+00 0. -1.
</event>
<event>
 6    1  0.1715574E-005  0.9596782E+02  0.7818608E-02  0.1294727E+00
          2   -1    0    0  502    0  0.00000000000E+00  0.00000000000E+00  0.35723359143E+02  0.35723359143E+02  0.00000000000E+00 0. -1.
          1   -1    0    0  501    0 -0.00000000000E+00 -0.00000000000E+00 -0.31285480028E+03  0.31285480028E+03  0.00000000000E+00 0.  1.
          2    1    1    2  501    0 -0.13496140652E+02 -0.21975219274E+02 -0.62063493042E+01  0.26524985322E+02  0.00000000000E+00 0. -1.
          1    1    1    2  502    0  0.34642689658E+02  0.17366051151E+02 -0.11249754836E+03  0.11898484806E+03  0.00000000000E+00 0.  1.
         22    1    1    2    0    0 -0.68159125867E+02  0.57862078997E+01 -0.49539270578E+02  0.84458782671E+02  0.00000000000E+00 0. -1.
         22    1    1    2    0    0  0.47012576862E+02 -0.11770397771E+01 -0.10888827289E+03  0.11860954337E+03  0.00000000000E+00 0. -1.
</event>
<event>
 6    1  0.1715574E-005  0.2389931E+03  0.7818608E-02  0.1204747E+00
          2   -1    0    0  502    0  0.00000000000E+00  0.00000000000E+00  0.10651915843E+04  0.10651915843E+04  0.00000000000E+00 0. -1.
          1   -1    0    0  501    0 -0.00000000000E+00 -0.00000000000E+00 -0.15605591313E+03  0.15605591313E+03  0.00000000000E+00 0. -1.
          2    1    1    2  501    0  0.11743253949E+03  0.19200444720E+03 -0.41158583064E+02  0.22880152542E+03  0.00000000000E+00 0. -1.
          1    1    1    2  502    0 -0.55869123597E+02 -0.76010805205E+02  0.47877683214E+03  0.48798181981E+03  0.00000000000E+00 0. -1.
         22    1    1    2    0    0 -0.94889448911E+02 -0.11027987765E+03  0.37941633472E+03  0.40635257349E+03  0.00000000000E+00 0.  1.
         22    1    1    2    0    0  0.33326033018E+02 -0.57137643420E+01  0.92101087372E+02  0.98111578699E+02  0.00000000000E+00 0.  1.
</event>
<event>
 6    1  0.1715574E-005  0.5752854E+02  0.7818608E-02  0.1473287E+00
          2   -1    0    0  502    0  0.00000000000E+00  0.00000000000E+00  0.21181072865E+03  0.21181072865E+03  0.00000000000E+00 0.  1.
          1   -1    0    0  501    0 -0.00000000000E+00 -0.00000000000E+00 -0.12294288646E+03  0.12294288646E+03  0.00000000000E+00 0.  1.
          2    1    1    2  501    0  0.38325279619E+02  0.17909393509E+02  0.12502855282E+03  0.13199133477E+03  0.00000000000E+00 0.  1.
          1    1    1    2  502    0 -0.60936731446E+02 -0.89202168860E+01 -0.37846081450E+02  0.72285416162E+02  0.00000000000E+00 0.  1.
         22    1    1    2    0    0  0.10760194955E+02  0.93840749230E+01  0.63408379456E+02  0.64995886353E+02  0.00000000000E+00 0.  1.
         22    1    1    2    0    0  0.11851256872E+02 -0.18373251545E+02 -0.61723008640E+02  0.65480977829E+02  0.00000000000E+00 0.  1.
</event>
<event>
 6    1  0.1715574E-005  0.2617495E+03  0.7818608E-02  0.1107038E+00
          2   -1    0    0  502    0  0.00000000000E+00  0.00000000000E+00  0.20395165233E+04  0.20395165233E+04  0.00000000000E+00 0.  1.
          1   -1    0    0  501    0 -0.00000000000E+00 -0.00000000000E+00 -0.81774391069E+02  0.81774391069E+02  0.00000000000E+00 0.  1.
          2    1    1    2  501    0  0.12919837187E+03  0.10335811156E+03  0.13314926668E+04  0.13417331479E+04  0.00000000000E+00 0.  1.
          1    1    1    2  502    0 -0.17005882135E+03 -0.16559502350E+03  0.15100790509E+03  0.28132739278E+03  0.00000000000E+00 0.  1.
         22    1    1    2    0    0  0.51542888196E+02  0.74802339259E+02  0.47293146421E+03  0.48157681539E+03  0.00000000000E+00 0. -1.
         22    1    1    2    0    0 -0.10682438719E+02 -0.12565427314E+02  0.23100961895E+01  0.16653558328E+02  0.00000000000E+00 0.  1.
</event>
<event>
 6    1  0.1715574E-005  0.5144131E+02  0.7818608E-02  0.1499600E+00
          2   -1    0    0  502    0  0.00000000000E+00  0.00000000000E+00  0.77797762714E+02  0.77797762714E+02  0.00000000000E+00 0.  1.
          1   -1    0    0  501    0 -0.00000000000E+00 -0.00000000000E+00 -0.15797363768E+03  0.15797363768E+03  0.00000000000E+00 0.  1.
          2    1    1    2  501    0 -0.52848596343E+01  0.35847741406E+02  0.18175762756E+02  0.40538236975E+02  0.00000000000E+00 0.  1.
          1    1    1    2  502    0  0.15584878432E+02 -0.20010408671E+02 -0.61095270914E+02  0.66150865595E+02  0.00000000000E+00 0.  1.
         22    1    1    2    0    0 -0.17553465331E+02  0.11808247264E+02  0.40799510788E+02  0.45958230265E+02  0.00000000000E+00 0.  1.
         22    1    1    2    0    0  0.72534465332E+01 -0.27645579999E+02 -0.78055877595E+02  0.83124067556E+02  0.00000000000E+00 0.  1.
</event>
<event>
 6    1  0.1715574E-005  0.4002594E+02  0.7818608E-02  0.1554761E+00
          2   -1    0    0  502    0  0.00000000000E+00  0.00000000000E+00  0.13043997982E+03  0.13043997982E+03  0.00000000000E+00 0. -1.
          1   -1    0    0  501    0 -0.00000000000E+00 -0.00000000000E+00 -0.16194900124E+03  0.16194900124E+03  0.00000000000E+00 0.  1.
          2    1    1    2  501    0 -0.20020057925E+02 -0.99864150389E+01  0.10147103014E+02  0.24566133278E+02  0.00000000000E+00 0. -1.
          1    1    1    2  502    0  0.22028337508E+02  0.18773529130E+02 -0.11849531279E+03  0.12197881866E+03  0.00000000000E+00 0.  1.
         22    1    1    2    0    0  0.10712862977E+01  0.12617455047E+02 -0.32242244991E+02  0.34639719806E+02  0.00000000000E+00 0.  1.
         22    1    1    2    0    0 -0.30795658807E+01 -0.21404569139E+02  0.10908143335E+03  0.11120430930E+03  0.00000000000E+00 0. -1.
</event>
<event>
 6    1  0.1715574E-005  0.1236723E+03  0.7818608E-02  0.1238943E+00
          2   -1    0    0  502    0  0.00000000000E+00  0.00000000000E+00  0.26898397826E+03  0.26898397826E+03  0.00000000000E+00 0.  1.
          1   -1    0    0  501    0 -0.00000000000E+00 -0.00000000000E+00 -0.48557880187E+03  0.48557880187E+03  0.00000000000E+00 0. -1.
          2    1    1    2  501    0  0.18662522392E+02  0.91809493020E+02  0.22275291271E+03  0.24165291819E+03  0.00000000000E+00 0.  1.
          1    1    1    2  502    0 -0.20018060120E+02 -0.89780112894E+02 -0.34092956751E+03  0.35312060462E+03  0.00000000000E+00 0. -1.
         22    1    1    2    0    0 -0.41610271556E+01  0.24246215259E+02  0.24055509428E+02  0.34407275905E+02  0.00000000000E+00 0. -1.
         22    1    1    2    0    0  0.55165648835E+01 -0.26275595385E+02 -0.12247367824E+03  0.12538198141E+03  0.00000000000E+00 0.  1.
</event>
<event>
 6    1  0.1715574E-005  0.2026873E+03  0.7818608E-02  0.1150808E+00
          2   -1    0    0  502    0  0.00000000000E+00  0.00000000000E+00  0.79612229156E+03  0.79612229156E+03  0.00000000000E+00 0.  1.
          1   -1    0    0  501    0 -0.00000000000E+00 -0.00000000000E+00 -0.89821545597E+02  0.89821545597E+02  0.00000000000E+00 0. -1.
          2    1    1    2  501    0 -0.62808530836E+02  0.15253643505E+03  0.59798538343E+03  0.62032152499E+03  0.00000000000E+00 0.  1.
          1    1    1    2  502    0  0.27768930381E+02 -0.82248380503E+02  0.70676252268E+02  0.11194213784E+03  0.00000000000E+00 0. -1.
         22    1    1    2    0    0  0.51624076380E+02 -0.83170889111E+02 -0.13104048940E+02  0.98763141688E+02  0.00000000000E+00 0. -1.
         22    1    1    2    0    0 -0.16584475925E+02  0.12882834566E+02  0.50743159203E+02  0.54917032641E+02  0.00000000000E+00 0.  1.
</event>
<event>
 6    1  0.1715574E-005  0.1345590E+03  0.7818608E-02  0.1221319E+00
          2   -1    0    0  502    0  0.00000000000E+00  0.00000000000E+00  0.57891208008E+03  0.57891208008E+03  0.00000000000E+00 0.  1.
          1   -1    0    0  501    0 -0.00000000000E+00 -0.00000000000E+00 -0.44292848016E+02  0.44292848016E+02  0.00000000000E+00 0.  1.
          2    1    1    2  501    0 -0.77442293124E+02  0.18773679658E+02  0.40049106655E+02  0.89183466832E+02  0.00000000000E+00 0.  1.
          1    1    1    2  502    0  0.65212545805E+02  0.10916959005E+02  0.21897839947E+03  0.22874307761E+03  0.00000000000E+00 0.  1.
         22    1    1    2    0    0 -0.50838597455E+02 -0.67814755242E+01  0.57276369988E+02  0.76883899228E+02  0.00000000000E+00 0.  1.
         22    1    1    2    0    0  0.63068344775E+02 -0.22909163139E+02  0.21831535595E+03  0.22839448442E+03  0.00000000000E+00 0.  1.
</event>
<event>
 6    1  0.1715574E-005  0.1117037E+03  0.7818608E-02  0.1258560E+00
          2   -1    0    0  502    0  0.00000000000E+00  0.00000000000E+00  0.62325406906E+03  0.62325406906E+03  0.00000000000E+00 0.  1.
          1   -1    0    0  501    0 -0.00000000000E+00 -0.00000000000E+00 -0.47004272628E+02  0.47004272628E+02  0.00000000000E+00 0.  1.
          2    1    1    2  501    0  0.20860249658E+02  0.17421568107E+02  0.93402968131E+02  0.97276798399E+02  0.00000000000E+00 0.  1.
          1    1    1    2  502    0 -0.37770631836E+02 -0.74397023959E+02  0.13405837576E+02  0.84505942302E+02  0.00000000000E+00 0.  1.
         22    1    1    2    0    0  0.19537167046E+02  0.80040732129E+02  0.45197849816E+03  0.45942658009E+03  0.00000000000E+00 0.  1.
         22    1    1    2    0    0 -0.26267848678E+01 -0.23065276277E+02  0.17462492567E+02  0.29049020898E+02  0.00000000000E+00 0. -1.
</event>
<event>
 6    1  0.1715574E-005  0.9617764E+02  0.7818608E-02  0.1289271E+00
          2   -1    0    0  502    0  0.00000000000E+00  0.00000000000E+00  0.16395209728E+03  0.16395209728E+03  0.00000000000E+00 0. -1.
          1   -1    0    0  501    0 -0.00000000000E+00 -0.00000000000E+00 -0.14455341978E+03  0.14455341978E+03  0.00000000000E+00 0. -1.
          2    1    1    2  501    0 -0.63911849999E+02 -0.92928450091E+01  0.10688896029E+03  0.12488527283E+03  0.00000000000E+00 0. -1.
          1    1    1    2  502    0  0.37383885280E+02  0.30679967942E+01 -0.26176190385E+02  0.45740140205E+02  0.00000000000E+00 0. -1.
         22    1    1    2    0    0 -0.26622232655E+02 -0.80392130621E+01  0.23747471134E+02  0.36569312319E+02  0.00000000000E+00 0. -1.
         22    1    1    2    0    0  0.53150197374E+02  0.14264061277E+02 -0.85061563533E+02  0.10131079170E+03  0.00000000000E+00 0. -1.
</event>
<event>
 6    1  0.1715574E-005  0.7564143E+02  0.7818608E-02  0.1428635E+00
          2   -1    0    0  502    0  0.00000000000E+00  0.00000000000E+00  0.27770476283E+03  0.27770476283E+03  0.00000000000E+00 0.  1.
          1   -1    0    0  501    0 -0.00000000000E+00 -0.00000000000E+00 -0.65819211316E+03  0.65819211316E+03  0.00000000000E+00 0.  1.
          2    1    1    2  501    0  0.56161277342E+02  0.24887407925E+01  0.19562871646E+03  0.20354576294E+03  0.00000000000E+00 0.  1.
          1    1    1    2  502    0 -0.71432421402E+02 -0.13880405559E+02 -0.59916361048E+03  0.60356630838E+03  0.00000000000E+00 0.  1.
         22    1    1    2    0    0  0.18135072014E+02 -0.69431321955E+01  0.72977999925E+02  0.75517391339E+02  0.00000000000E+00 0.  1.
         22    1    1    2    0    0 -0.28639279534E+01  0.18334796962E+02 -0.49930456243E+02  0.53267413337E+02  0.00000000000E+00 0.  1.
</event>
<event>
 6    1  0.1715574E-005  0.8046804E+02  0.7818608E-02  0.1373245E+00
          2   -1    0    0  502    0  0.00000000000E+00  0.00000000000E+00  0.16528934715E+03  0.16528934715E+03  0.00000000000E+00 0.  1.
          1   -1    0    0  501    0 -0.00000000000E+00 -0.00000000000E+00 -0.32797501969E+03  0.32797501969E+03  0.00000000000E+00 0. -1.
          2    1    1    2  501    0 -0.18594142281E+02  0.42328661015E+02  0.35147206234E+02  0.58075672846E+02  0.00000000000E+00 0.  1.
          1    1    1    2  502    0  0.37725288311E+02 -0.53746632828E+02 -0.27536005419E+03  0.28308136173E+03  0.00000000000E+00 0. -1.
         22    1    1    2    0    0 -0.27721535314E+02  0.24541243904E+02  0.10998988633E+03  0.11605400151E+03  0.00000000000E+00 0.  1.
         22    1    1    2    0    0  0.85903892828E+01 -0.13123272092E+02 -0.32462710907E+02  0.36053330746E+02  0.00000000000E+00 0. -1.
</event>
<event>
 6    1  0.1715574E-005  0.1762668E+03  0.7818608E-02  0.1223835E+00
          2   -1    0    0  502    0  0.00000000000E+00  0.00000000000E+00  0.40938243287E+03  0.40938243287E+03  0.00000000000E+00 0. -1.
          1   -1    0    0  501    0 -0.00000000000E+00 -0.00000000000E+00 -0.11682577120E+03  0.11682577120E+03  0.00000000000E+00 0. -1.
          2    1    1    2  501    0  0.40871260166E+02  0.14532427389E+02  0.30138873893E+03  0.30449437319E+03  0.00000000000E+00 0. -1.
          1    1    1    2  502    0  0.36867768919E+02 -0.14645076554E+02 -0.51413042059E+02  0.64938521281E+02  0.00000000000E+00 0. -1.
         22    1    1    2    0    0 -0.82528746714E+02  0.13852175850E+02  0.80526769273E+02  0.11613542689E+03  0.00000000000E+00 0. -1.
         22    1    1    2    0    0  0.47897176279E+01 -0.13739526685E+02 -0.37945804480E+02  0.40639882703E+02  0.00000000000E+00 0. -1.
</event>
<event>
 6    1  0.1715574E-005  0.1530165E+03  0.7818608E-02  0.1199869E+00
          2   -1    0    0  502    0  0.00000000000E+00  0.00000000000E+00  0.34965577089E+03  0.34965577089E+03  0.00000000000E+00 0. -1.
          1   -1    0    0  501    0 -0.00000000000E+00 -0.00000000000E+00 -0.63064398443E+02  0.63064398443E+02  0.00000000000E+00 0. -1.
          2    1    1    2  501    0  0.15623276095E+02  0.17251111112E+02  0.31346926321E+01  0.23484332829E+02  0.00000000000E+00 0. -1.
          1    1    1    2  502    0 -0.10113099431E+03  0.31855851102E+02  0.99681292661E+02  0.14552880596E+03  0.00000000000E+00 0. -1.
         22    1    1    2    0    0 -0.51240853829E+01  0.34898463577E+02  0.54067150263E+02  0.64555524540E+02  0.00000000000E+00 0. -1.
         22    1    1    2    0    0  0.90631803594E+02 -0.84005425791E+02  0.12970823689E+03  0.17915150600E+03  0.00000000000E+00 0. -1.
</event>
<event>
 6    1  0.2053332E-005  0.1008699E+03  0.7818608E-02  0.1278584E+00
          2   -1    0    0  502    0  0.00000000000E+00  0.00000000000E+00  0.61008969998E+03  0.61008969998E+03  0.00000000000E+00 0. -1.
          1   -1    0    0  501    0 -0.00000000000E+00 -0.00000000000E+00 -0.16520629360E+03  0.16520629360E+03  0.00000000000E+00 0. -1.
          2    1    1    2  501    0 -0.73396503869E+02  0.44492348795E+02  0.51963229709E+03  0.52667289665E+03  0.00000000000E+00 0. -1.
          1    1    1    2  502    0  0.65164838257E+02 -0.46513606297E+02 -0.94940650709E+02  0.12419218523E+03  0.00000000000E+00 0. -1.
         22    1    1    2    0    0 -0.10809702272E+01  0.14494538354E+02  0.70389779227E+02  0.71874760231E+02  0.00000000000E+00 0.  1.
         22    1    1    2    0    0  0.93126358386E+01 -0.12473280852E+02 -0.50198019232E+02  0.52556151460E+02  0.00000000000E+00 0. -1.
</event>
<event>
 6    1  0.1715574E-005  0.5154320E+02  0.7818608E-02  0.1438065E+00
          2   -1    0    0  502    0  0.00000000000E+00  0.00000000000E+00  0.91107617934E+02  0.91107617934E+02  0.00000000000E+00 0.  1.
          1   -1    0    0  501    0 -0.00000000000E+00 -0.00000000000E+00 -0.14653828398E+03  0.14653828398E+03  0.00000000000E+00 0.  1.
          2    1    1    2  501    0  0.24085049343E+02  0.15776088358E+02  0.32169458479E+02  0.43172313171E+02  0.00000000000E+00 0.  1.
          1    1    1    2  502    0 -0.20232380042E+02 -0.18671826337E+02 -0.54951450367E+02  0.61462575592E+02  0.00000000000E+00 0.  1.
         22    1    1    2    0    0 -0.21258509349E+02 -0.63199075212E+01 -0.79315813333E+02  0.82358142861E+02  0.00000000000E+00 0.  1.
         22    1    1    2    0    0  0.17405840048E+02  0.92156454997E+01  0.46667139176E+02  0.50652870290E+02  0.00000000000E+00 0.  1.
</event>
<event>
 6    1  0.1715574E-005  0.2562186E+02  0.7818608E-02  0.1674814E+00
          2   -1    0    0  502    0  0.00000000000E+00  0.00000000000E+00  0.43493594694E+02  0.43493594694E+02  0.00000000000E+00 0.  1.
          1   -1    0    0  501    0 -0.00000000000E+00 -0.00000000000E+00 -0.38525732442E+03  0.38525732442E+03  0.00000000000E+00 0.  1.
          2    1    1    2  501    0  0.18475549510E+02  0.12272671442E+02 -0.52279259487E+02  0.56789835064E+02  0.00000000000E+00 0.  1.
          1    1    1    2  502    0  0.24442209256E+02  0.13661219661E+01 -0.22507944977E+03  0.22640681658E+03  0.00000000000E+00 0.  1.
         22    1    1    2    0    0 -0.25846768611E+02 -0.33385337918E+01  0.35298428508E+02  0.43876876719E+02  0.00000000000E+00 0.  1.
         22    1    1    2    0    0 -0.17070990155E+02 -0.10300259616E+02 -0.99703448978E+02  0.10167739076E+03  0.00000000000E+00 0.  1.
</event>
<event>
 6    1  0.1715574E-005  0.8910263E+02  0.7818608E-02  0.1306482E+00
          2   -1    0    0  502    0  0.00000000000E+00  0.00000000000E+00  0.17077035317E+03  0.17077035317E+03  0.00000000000E+00 0.  1.
          1   -1    0    0  501    0 -0.00000000000E+00 -0.00000000000E+00 -0.11142111556E+03  0.11142111556E+03  0.00000000000E+00 0.  1.
          2    1    1    2  501    0  0.51326914863E+02  0.14525707948E+02  0.58686308449E+02  0.79306564546E+02  0.00000000000E+00 0.  1.
          1    1    1    2  502    0 -0.56443962550E+02 -0.76312459797E+01 -0.44636052687E+02  0.72363899999E+02  0.00000000000E+00 0.  1.
         22    1    1    2    0    0  0.28529046019E+02  0.10249431961E+02  0.79844369881E+02  0.85405390485E+02  0.00000000000E+00 0.  1.
         22    1    1    2    0    0 -0.23411998331E+02 -0.17143893929E+02 -0.34545388040E+02  0.45115613702E+02  0.00000000000E+00 0. -1.
</event>
<event>
 6    1  0.1715574E-005  0.3985628E+02  0.7818608E-02  0.1513745E+00
          2   -1    0    0  502    0  0.00000000000E+00  0.00000000000E+00  0.16164232789E+03  0.16164232789E+03  0.00000000000E+00 0. -1.
          1   -1    0    0  501    0 -0.00000000000E+00 -0.00000000000E+00 -0.29748894723E+03  0.29748894723E+03  0.00000000000E+00 0. -1.
          2    1    1    2  501    0 -0.11468435554E+02  0.18692332135E+02  0.10363177237E+03  0.10592673194E+03  0.00000000000E+00 0. -1.
          1    1    1    2  502    0  0.14214411654E+02 -0.19381704067E+02 -0.22228888726E+03  0.22358454632E+03  0.00000000000E+00 0. -1.
         22    1    1    2    0    0 -0.33484322852E+01  0.14880195955E+02  0.54470660489E+02  0.56565758940E+02  0.00000000000E+00 0. -1.
         22    1    1    2    0    0  0.60245618544E+00 -0.14190824024E+02 -0.71660164937E+02  0.73054237924E+02  0.00000000000E+00 0. -1.
</event>
<event>
 6    1  0.1715574E-005  0.1710388E+03  0.7818608E-02  0.1178979E+00
          2   -1    0    0  502    0  0.00000000000E+00  0.00000000000E+00  0.21769171494E+02  0.21769171494E+02  0.00000000000E+00 0. -1.
          1   -1    0    0  501    0 -0.00000000000E+00 -0.00000000000E+00 -0.12817081394E+04  0.12817081394E+04  0.00000000000E+00 0. -1.
          2    1    1    2  501    0  0.88529259778E+02 -0.54594027437E+02 -0.35336940350E+03  0.36835834862E+03  0.00000000000E+00 0. -1.
          1    1    1    2  502    0 -0.78660898235E+02  0.65560029351E+02 -0.38397172074E+03  0.39739141496E+03  0.00000000000E+00 0. -1.
         22    1    1    2    0    0  0.58120805116E+02 -0.40130622316E+01 -0.23255724096E+03  0.23974361927E+03  0.00000000000E+00 0.  1.
         22    1    1    2    0    0 -0.67989166659E+02 -0.69529396825E+01 -0.29004060266E+03  0.29798392800E+03  0.00000000000E+00 0. -1.
</event>
<event>
 6    1  0.1715574E-005  0.8771669E+02  0.7818608E-02  0.1309173E+00
          2   -1    0    0  502    0  0.00000000000E+00  0.00000000000E+00  0.48688528933E+02  0.48688528933E+02  0.00000000000E+00 0.  1.
          1   -1    0    0  501    0 -0.00000000000E+00 -0.00000000000E+00 -0.43997292168E+03  0.43997292168E+03  0.00000000000E+00 0. -1.
          2    1    1    2  501    0 -0.17438984070E+02 -0.42984537093E+02  0.81226578675E+00  0.46394486421E+02  0.00000000000E+00 0.  1.
          1    1    1    2  502    0  0.15532476291E+02  0.53852719891E+02 -0.24110252000E+03  0.24753140894E+03  0.00000000000E+00 0. -1.
         22    1    1    2    0    0  0.11729958907E+02 -0.39617750123E+02 -0.61942437206E+00  0.41322412167E+02  0.00000000000E+00 0.  1.
         22    1    1    2    0    0 -0.98234511275E+01  0.28749567325E+02 -0.15037471416E+03  0.15341314309E+03  0.00000000000E+00 0. -1.
</event>
<event>
 6    1  0.1715574E-005  0.1074130E+03  0.7818608E-02  0.1269243E+00
          2   -1    0    0  502    0  0.00000000000E+00  0.00000000000E+00  0.13326220000E+03  0.13326220000E+03  0.00000000000E+00 0. -1.
          1   -1    0    0  501    0 -0.00000000000E+00 -0.00000000000E+00 -0.35147690418E+03  0.35147690418E+03  0.00000000000E+00 0. -1.
          2    1    1    2  501    0 -0.82245352183E+02 -0.22663808552E+02  0.95925191764E+02  0.12837284989E+03  0.00000000000E+00 0. -1.
          1    1    1    2  502    0  0.28972162605E+02  0.18302473152E+02 -0.61267705896E+02  0.70200416774E+02  0.00000000000E+00 0. -1.
         22    1    1    2    0    0 -0.13615704415E+02 -0.88752173319E+00  0.86624269587E+01  0.16162077291E+02  0.00000000000E+00 0. -1.
         22    1    1    2    0    0  0.66888893993E+02  0.52488571328E+01 -0.26153461701E+03  0.27000376023E+03  0.00000000000E+00 0. -1.
</event>
<event>
 6    1  0.1715574E-005  0.2157849E+03  0.7818608E-02  0.1148775E+00
          2   -1    0    0  502    0  0.00000000000E+00  0.00000000000E+00  0.27972169792E+03  0.27972169792E+03  0.00000000000E+00 0. -1.
          1   -1    0    0  501    0 -0.00000000000E+00 -0.00000000000E+00 -0.13327479674E+03  0.13327479674E+03  0.00000000000E+00 0. -1.
          2    1    1    2  501    0  0.36230582728E+02  0.60411911888E+02  0.97822893606E+02  0.12054697315E+03  0.00000000000E+00 0. -1.
          1    1    1    2  502    0 -0.12564587465E+03 -0.29048393038E+02  0.73717389355E+01  0.12917057517E+03  0.00000000000E+00 0. -1.
         22    1    1    2    0    0  0.12097401975E+03 -0.32785862226E+02  0.25209734792E+02  0.12784817928E+03  0.00000000000E+00 0. -1.
         22    1    1    2    0    0 -0.31558727823E+02  0.14223433771E+01  0.16042533847E+02  0.35430767064E+02  0.00000000000E+00 0. -1.
</event>
<event>
 6    1  0.1715574E-005  0.8071663E+02  0.7818608E-02  0.1328597E+00
          2   -1    0    0  502    0  0.00000000000E+00  0.00000000000E+00  0.14805112876E+03  0.14805112876E+03  0.00000000000E+00 0.  1.
          1   -1    0    0  501    0 -0.00000000000E+00 -0.00000000000E+00 -0.18357885077E+03  0.18357885077E+03  0.00000000000E+00 0. -1.
          2    1    1    2  501    0  0.56270950958E+02 -0.36216124808E+02  0.10095644484E+03  0.12112073057E+03  0.00000000000E+00 0.  1.
          1    1    1    2  502    0 -0.26220770745E+02  0.12015190954E+02 -0.37974350736E+02  0.47685898817E+02  0.00000000000E+00 0. -1.
         22    1    1    2    0    0  0.55639681856E+01 -0.91301466027E+01  0.26531389457E+02  0.28604753897E+02  0.00000000000E+00 0.  1.
         22    1    1    2    0    0 -0.35614148398E+02  0.33331080457E+02 -0.12504120557E+03  0.13421859625E+03  0.00000000000E+00 0. -1.
</event>
<event>
 6    1  0.1715574E-005  0.9144326E+02  0.7818608E-02  0.1300409E+00
          2   -1    0    0  502    0  0.00000000000E+00  0.00000000000E+00  0.26213348873E+03  0.26213348873E+03  0.00000000000E+00 0. -1.
          1   -1    0    0  501    0 -0.00000000000E+00 -0.00000000000E+00 -0.12580359343E+03  0.12580359343E+03  0.00000000000E+00 0. -1.
          2    1    1    2  501    0  0.44708899752E+02 -0.55103354177E+02  0.17287812602E+03  0.18687458847E+03  0.00000000000E+00 0. -1.
          1    1    1    2  502    0 -0.32035095287E+02  0.43715118962E+02 -0.45136771651E+02  0.70530752945E+02  0.00000000000E+00 0. -1.
         22    1    1    2    0    0  0.14860910406E+02 -0.99814133163E+01  0.63232786712E+02  0.65718038507E+02  0.00000000000E+00 0. -1.
         22    1    1    2    0    0 -0.27534714870E+02  0.21369648531E+02 -0.54644245775E+02  0.64813702237E+02  0.00000000000E+00 0. -1.
</event>
<event>
 6    1  0.1715574E-005  0.1962141E+03  0.7818608E-02  0.1179587E+00
          2   -1    0    0  502    0  0.00000000000E+00  0.00000000000E+00  0.48249866552E+02  0.48249866552E+02  0.00000000000E+00 0. -1.
          1   -1    0    0  501    0 -0.00000000000E+00 -0.00000000000E+00 -0.47815594982E+03  0.47815594982E+03  0.00000000000E+00 0. -1.
          2    1    1    2  501    0  0.20107179983E+02 -0.90707988726E+02 -0.27100330595E+03  0.28648739892E+03  0.00000000000E+00 0. -1.
          1    1    1    2  502    0 -0.93192587267E+01  0.40336070556E+02 -0.31171291301E+02  0.51821777011E+02  0.00000000000E+00 0. -1.
         22    1    1    2    0    0  0.52723309911E+02  0.30942475123E+02 -0.97599351518E+02  0.11516430693E+03  0.00000000000E+00 0.  1.
         22    1    1    2    0    0 -0.63511231168E+02  0.19429443046E+02 -0.30132134501E+02  0.72932333509E+02  0.00000000000E+00 0. -1.
</event>
<event>
 6    1  0.1715574E-005  0.1005270E+03  0.7818608E-02  0.1281174E+00
          2   -1    0    0  502    0  0.00000000000E+00  0.00000000000E+00  0.29430860615E+02  0.29430860615E+02  0.00000000000E+00 0. -1.
          1   -1    0    0  501    0 -0.00000000000E+00 -0.00000000000E+00 -0.98476008872E+03  0.98476008872E+03  0.00000000000E+00 0. -1.
          2    1    1    2  501    0 -0.17758658787E+02  0.36471045872E+02 -0.60778857024E+03  0.60914074996E+03  0.00000000000E+00 0. -1.
          1    1    1    2  502    0  0.16911679934E+02 -0.42379806418E+02 -0.10661867480E+02  0.46858599300E+02  0.00000000000E+00 0. -1.
         22    1    1    2    0    0  0.23291781622E+02 -0.38422439496E+02 -0.50755648516E+02  0.67785889419E+02  0.00000000000E+00 0. -1.
         22    1    1    2    0    0 -0.22444802769E+02  0.44331200042E+02 -0.28612314187E+03  0.29040571066E+03  0.00000000000E+00 0.  1.
</event>
<event>
 6    1  0.1715574E-005  0.1128643E+03  0.7818608E-02  0.1389046E+00
          2   -1    0    0  502    0  0.00000000000E+00  0.00000000000E+00  0.72877837561E+03  0.72877837561E+03  0.00000000000E+00 0.  1.
          1   -1    0    0  501    0 -0.00000000000E+00 -0.00000000000E+00 -0.13856906897E+03  0.13856906897E+03  0.00000000000E+00 0.  1.
          2    1    1    2  501    0 -0.90944557233E+02 -0.60762798330E+02  0.65700040682E+03  0.66604246465E+03  0.00000000000E+00 0.  1.
          1    1    1    2  502    0  0.23992207912E+02  0.37541691838E+02 -0.26964646457E+02  0.52077795893E+02  0.00000000000E+00 0.  1.
         22    1    1    2    0    0  0.58277887876E+02  0.28910785373E+02 -0.82640565482E+02  0.10517418309E+03  0.00000000000E+00 0.  1.
         22    1    1    2    0    0  0.86744614452E+01 -0.56896788803E+01  0.42814111756E+02  0.44053000948E+02  0.00000000000E+00 0. -1.
</event>
<event>
 6    1  0.1715574E-005  0.2431692E+02  0.7818608E-02  0.1701144E+00
          2   -1    0    0  502    0  0.00000000000E+00  0.00000000000E+00  0.75201800365E+02  0.75201800365E+02  0.00000000000E+00 0.  1.
          1   -1    0    0  501    0 -0.00000000000E+00 -0.00000000000E+00 -0.11766144531E+03  0.11766144531E+03  0.00000000000E+00 0. -1.
          2    1    1    2  501    0  0.13843874756E+02 -0.19073855651E+02  0.65939219938E+01  0.24473345601E+02  0.00000000000E+00 0.  1.
          1    1    1    2  502    0 -0.83700753379E+01  0.28915371235E+02 -0.21461371774E+02  0.36969546024E+02  0.00000000000E+00 0. -1.
         22    1    1    2    0    0 -0.10142853756E+02  0.10498039479E+02 -0.76692452947E+02  0.78069319545E+02  0.00000000000E+00 0.  1.
         22    1    1    2    0    0  0.46690543375E+01 -0.20339555063E+02  0.49100257782E+02  0.53351034505E+02  0.00000000000E+00 0.  1.
</event>
<event>
 6    1  0.1715574E-005  0.5788445E+02  0.7818608E-02  0.1407974E+00
          2   -1    0    0  502    0  0.00000000000E+00  0.00000000000E+00  0.13425794470E+03  0.13425794470E+03  0.00000000000E+00 0. -1.
          1   -1    0    0  501    0 -0.00000000000E+00 -0.00000000000E+00 -0.24428613984E+03  0.24428613984E+03  0.00000000000E+00 0.  1.
          2    1    1    2  501    0 -0.28561861943E+02  0.27583851896E+02  0.69508343609E+02  0.80050350870E+02  0.00000000000E+00 0. -1.
          1    1    1    2  502    0  0.27489631125E+02 -0.33392473494E+02 -0.16765277670E+03  0.17314211111E+03  0.00000000000E+00 0.  1.
         22    1    1    2    0    0 -0.11059006689E+02  0.11457629454E+02  0.54939926245E+02  0.57201174791E+02  0.00000000000E+00 0. -1.
         22    1    1    2    0    0  0.12131237507E+02 -0.56490078553E+01 -0.66823688293E+02  0.68150447763E+02  0.00000000000E+00 0.  1.
</event>
<event>
 6    1  0.1715574E-005  0.1851102E+03  0.7818608E-02  0.1203190E+00
          2   -1    0    0  502    0  0.00000000000E+00  0.00000000000E+00  0.81146283610E+02  0.81146283610E+02  0.00000000000E+00 0. -1.
          1   -1    0    0  501    0 -0.00000000000E+00 -0.00000000000E+00 -0.25869274274E+03  0.25869274274E+03  0.00000000000E+00 0. -1.
          2    1    1    2  501    0 -0.43510542060E+01 -0.43340939056E+02  0.13971143204E+02  0.45744524408E+02  0.00000000000E+00 0. -1.
          1    1    1    2  502    0 -0.55487990072E+02 -0.10901390230E+02 -0.37336155969E+01  0.56671838126E+02  0.00000000000E+00 0. -1.
         22    1    1    2    0    0  0.47750335784E+02  0.81736086535E+02 -0.18429742558E+03  0.20718692884E+03  0.00000000000E+00 0. -1.
         22    1    1    2    0    0  0.12088708493E+02 -0.27493757250E+02 -0.34865611632E+01  0.30235734975E+02  0.00000000000E+00 0.  1.
</event>
<event>
 6    1  0.1845123E-005  0.1892865E+03  0.7818608E-02  0.1167890E+00
          2   -1    0    0  502    0  0.00000000000E+00  0.00000000000E+00  0.68794090358E+03  0.68794090358E+03  0.00000000000E+00 0.  1.
          1   -1    0    0  501    0 -0.00000000000E+00 -0.00000000000E+00 -0.83971477686E+02  0.83971477686E+02  0.00000000000E+00 0. -1.
          2    1    1    2  501    0 -0.29168320381E+02 -0.59539070313E+02  0.97025586336E+02  0.11751449362E+03  0.00000000000E+00 0.  1.
          1    1    1    2  502    0  0.46512191997E+00  0.14065796666E+03  0.16662080809E+02  0.14164217190E+03  0.00000000000E+00 0. -1.
         22    1    1    2    0    0 -0.12726154371E+02  0.53007077150E+01  0.61621147450E+00  0.13799718256E+02  0.00000000000E+00 0.  1.
         22    1    1    2    0    0  0.41429352833E+02 -0.86419604062E+02  0.48966554727E+03  0.49895599749E+03  0.00000000000E+00 0.  1.
</event>
<event>
 6    1  0.1715574E-005  0.1094519E+03  0.7818608E-02  0.1367177E+00
          2   -1    0    0  502    0  0.00000000000E+00  0.00000000000E+00  0.11637586495E+03  0.11637586495E+03  0.00000000000E+00 0. -1.
          1   -1    0    0  501    0 -0.00000000000E+00 -0.00000000000E+00 -0.39487842901E+03  0.39487842901E+03  0.00000000000E+00 0. -1.
          2    1    1    2  501    0 -0.35224822743E+02 -0.31830211732E+02  0.50587812997E+02  0.69376345680E+02  0.00000000000E+00 0. -1.
          1    1    1    2  502    0  0.56708931202E+02  0.78073770275E+02 -0.27743932108E+03  0.29374137155E+03  0.00000000000E+00 0. -1.
         22    1    1    2    0    0  0.16260735319E+02  0.44017765339E+00 -0.80077429874E+02  0.81712912350E+02  0.00000000000E+00 0. -1.
         22    1    1    2    0    0 -0.37744843778E+02 -0.46683736196E+02  0.28426373893E+02  0.66423664381E+02  0.00000000000E+00 0. -1.
</event>
<event>
 6    1  0.1715574E-005  0.6845557E+02  0.7818608E-02  0.1391246E+00
          2   -1    0    0  502    0  0.00000000000E+00  0.00000000000E+00  0.12126300073E+03  0.12126300073E+03  0.00000000000E+00 0. -1.
          1   -1    0    0  501    0 -0.00000000000E+00 -0.00000000000E+00 -0.43322513065E+03  0.43322513065E+03  0.00000000000E+00 0.  1.
          2    1    1    2  501    0 -0.30565507393E+02 -0.30832843731E+01  0.69747412543E+02  0.76213243214E+02  0.00000000000E+00 0. -1.
          1    1    1    2  502    0  0.15846720424E+02  0.14428736914E+02 -0.34504111174E+03  0.34570605402E+03  0.00000000000E+00 0.  1.
         22    1    1    2    0    0  0.27510498661E+02 -0.67289634292E+01 -0.81205092225E+02  0.86002171418E+02  0.00000000000E+00 0.  1.
         22    1    1    2    0    0 -0.12791711693E+02 -0.46164891119E+01  0.44536661502E+02  0.46566662727E+02  0.00000000000E+00 0. -1.
</event>
<event>
 6    1  0.1715574E-005  0.6235099E+02  0.7818608E-02  0.1393529E+00
          2   -1    0    0  502    0  0.00000000000E+00  0.00000000000E+00  0.61152517308E+02  0.61152517308E+02  0.00000000000E+00 0.  1.
          1   -1    0    0  501    0 -0.00000000000E+00 -0.00000000000E+00 -0.42601016034E+03  0.42601016034E+03  0.00000000000E+00 0. -1.
          2    1    1    2  501    0 -0.28652446498E+02  0.30590859578E+01  0.16605933925E+02  0.33257747049E+02  0.00000000000E+00 0.  1.
          1    1    1    2  502    0  0.40159244156E+02  0.12507375184E+02 -0.30926969333E+03  0.31211687320E+03  0.00000000000E+00 0. -1.
         22    1    1    2    0    0 -0.27268870654E+02 -0.41335824096E+01  0.28246055245E+02  0.39478062860E+02  0.00000000000E+00 0.  1.
         22    1    1    2    0    0  0.15762072996E+02 -0.11432878732E+02 -0.10043993888E+03  0.10230999454E+03  0.00000000000E+00 0. -1.
</event>
<event>
 6    1  0.1715574E-005  0.1498635E+03  0.7818608E-02  0.1202625E+00
          2   -1    0    0  502    0  0.00000000000E+00  0.00000000000E+00  0.40963530391E+03  0.40963530391E+03  0.00000000000E+00 0.  1.
          1   -1    0    0  501    0 -0.00000000000E+00 -0.00000000000E+00 -0.56495569774E+02  0.56495569774E+02  0.00000000000E+00 0.  1.
          2    1    1    2  501    0 -0.23517810238E+02 -0.14188810283E+02  0.82680260045E+01  0.28683967467E+02  0.00000000000E+00 0.  1.
          1    1    1    2  502    0  0.93575579197E+02  0.48307883484E+02  0.21755285926E+03  0.24170082168E+03  0.00000000000E+00 0.  1.
         22    1    1    2    0    0 -0.10033028517E+03 -0.52101975021E+02  0.10315176597E+03  0.15303943526E+03  0.00000000000E+00 0.  1.
         22    1    1    2    0    0  0.30272516214E+02  0.17982901820E+02  0.24167082904E+02  0.42706649270E+02  0.00000000000E+00 0. -1.
</event>
<event>
 6    1  0.1715574E-005  0.8572262E+02  0.7818608E-02  0.1314288E+00
          2   -1    0    0  502    0  0.00000000000E+00  0.00000000000E+00  0.12121562807E+03  0.12121562807E+03  0.00000000000E+00 0.  1.
          1   -1    0    0  501    0 -0.00000000000E+00 -0.00000000000E+00 -0.31249152482E+03  0.31249152482E+03  0.00000000000E+00 0. -1.
          2    1    1    2  501    0 -0.13297835780E+02 -0.37057104832E+02  0.38983528844E+02  0.55405568096E+02  0.00000000000E+00 0.  1.
          1    1    1    2  502    0  0.48236699519E+02  0.53054289387E+02 -0.23381319551E+03  0.24456113182E+03  0.00000000000E+00 0. -1.
         22    1    1    2    0    0 -0.36157426693E+02 -0.28233069979E+02  0.60249683788E+02  0.75726416408E+02  0.00000000000E+00 0.  1.
         22    1    1    2    0    0  0.12185629546E+01  0.12235885424E+02 -0.56695913878E+02  0.58014036562E+02  0.00000000000E+00 0. -1.
</event>
<event>
 6    1  0.1715574E-005  0.6561181E+02  0.7818608E-02  0.1380532E+00
          2   -1    0    0  502    0  0.00000000000E+00  0.00000000000E+00  0.77045375930E+02  0.77045375930E+02  0.00000000000E+00 0. -1.
          1   -1    0    0  501    0 -0.00000000000E+00 -0.00000000000E+00 -0.81136202424E+03  0.81136202424E+03  0.00000000000E+00 0. -1.
          2    1    1    2  501    0 -0.49437953794E+02 -0.37101263241E+02 -0.62460524118E+03  0.62765621348E+03  0.00000000000E+00 0. -1.
          1    1    1    2  502    0  0.43830320273E+02  0.38401222433E+02  0.36884956185E+02  0.68965577300E+02  0.00000000000E+00 0. -1.
         22    1    1    2    0    0 -0.42362800207E+02 -0.55809652467E+01 -0.13588918553E+03  0.14244867412E+03  0.00000000000E+00 0.  1.
         22    1    1    2    0    0  0.47970433728E+02  0.42810060548E+01 -0.10707177773E+02  0.49336935260E+02  0.00000000000E+00 0. -1.
</event>
<event>
 6    1  0.1715574E-005  0.8342880E+02  0.7818608E-02  0.1349413E+00
          2   -1    0    0  502    0  0.00000000000E+00  0.00000000000E+00  0.15103172373E+03  0.15103172373E+03  0.00000000000E+00 0.  1.
          1   -1    0    0  501    0 -0.00000000000E+00 -0.00000000000E+00 -0.22997920055E+03  0.22997920055E+03  0.00000000000E+00 0. -1.
          2    1    1    2  501    0  0.62754219402E+02  0.47391463297E+02  0.98810002787E+02  0.12628325105E+03  0.00000000000E+00 0.  1.
          1    1    1    2  502    0 -0.49123763355E+02 -0.11218025450E+02 -0.61142209067E+02  0.79229779444E+02  0.00000000000E+00 0. -1.
         22    1    1    2    0    0 -0.21612445620E+02 -0.44584906683E+02 -0.14048191745E+03  0.14896335402E+03  0.00000000000E+00 0. -1.
         22    1    1    2    0    0  0.79819895723E+01  0.84114688351E+01  0.23866646912E+02  0.26534539761E+02  0.00000000000E+00 0.  1.
</event>
<event>
 6    1  0.1715574E-005  0.1233695E+03  0.7818608E-02  0.1241009E+00
          2   -1    0    0  502    0  0.00000000000E+00  0.00000000000E+00  0.56111493384E+02  0.56111493384E+02  0.00000000000E+00 0.  1.
          1   -1    0    0  501    0 -0.00000000000E+00 -0.00000000000E+00 -0.53502352746E+03  0.53502352746E+03  0.00000000000E+00 0. -1.
          2    1    1    2  501    0  0.27631295932E+02 -0.31792433820E+01 -0.11673173045E+02  0.30163870314E+02  0.00000000000E+00 0.  1.
          1    1    1    2  502    0 -0.82320592156E+02 -0.56747880327E+02 -0.36958272381E+03  0.38286863485E+03  0.00000000000E+00 0. -1.
         22    1    1    2    0    0  0.66065097786E+02  0.68271014564E+02 -0.17359273773E+02  0.96575736917E+02  0.00000000000E+00 0.  1.
         22    1    1    2    0    0 -0.11375801562E+02 -0.83438908558E+01 -0.80296863444E+02  0.81526778759E+02  0.00000000000E+00 0.  1.
</event>
<event>
 6    1  0.1715574E-005  0.6063954E+02  0.7818608E-02  0.1396272E+00
          2   -1    0    0  502    0  0.00000000000E+00  0.00000000000E+00  0.13705564650E+03  0.13705564650E+03  0.00000000000E+00 0.  1.
          1   -1    0    0  501    0 -0.00000000000E+00 -0.00000000000E+00 -0.10233009116E+03  0.10233009116E+03  0.00000000000E+00 0.  1.
          2    1    1    2  501    0 -0.92454785841E+01 -0.28411488149E+02  0.38075694609E+02  0.48398864171E+02  0.00000000000E+00 0.  1.
          1    1    1    2  502    0 -0.12390020115E+02  0.23835318193E+02 -0.51523897123E+02  0.58106341880E+02  0.00000000000E+00 0.  1.
         22    1    1    2    0    0  0.15071395911E+02  0.28329652697E+02 -0.34201260549E+02  0.46898213397E+02  0.00000000000E+00 0.  1.
         22    1    1    2    0    0  0.65641027884E+01 -0.23753482741E+02  0.82375018406E+02  0.85982318212E+02  0.00000000000E+00 0.  1.
</event>
<event>
 6    1  0.1715574E-005  0.2396011E+03  0.7818608E-02  0.1125051E+00
          2   -1    0    0  502    0  0.00000000000E+00  0.00000000000E+00  0.12526047325E+03  0.12526047325E+03  0.00000000000E+00 0. -1.
          1   -1    0    0  501    0 -0.00000000000E+00 -0.00000000000E+00 -0.47092105871E+03  0.47092105871E+03  0.00000000000E+00 0. -1.
          2    1    1    2  501    0 -0.77539670136E+02 -0.11043420356E+02 -0.17097316084E+03  0.18805897826E+03  0.00000000000E+00 0. -1.
          1    1    1    2  502    0  0.13350789405E+03 -0.10809743831E+03 -0.21665902612E+02  0.17314394382E+03  0.00000000000E+00 0. -1.
         22    1    1    2    0    0  0.31967036163E+02  0.24924499308E+01 -0.31691495354E+02  0.45082752639E+02  0.00000000000E+00 0.  1.
         22    1    1    2    0    0 -0.87935260080E+02  0.11664840874E+03 -0.12133002666E+03  0.18989585724E+03  0.00000000000E+00 0. -1.
</event>
<event>
 6    1  0.1715574E-005  0.2019684E+03  0.7818608E-02  0.1174395E+00
          2   -1    0    0  502    0  0.00000000000E+00  0.00000000000E+00  0.13149366828E+03  0.13149366828E+03  0.00000000000E+00 0.  1.
          1   -1    0    0  501    0 -0.00000000000E+00 -0.00000000000E+00 -0.22652516543E+03  0.22652516543E+03  0.00000000000E+00 0.  1.
          2    1    1    2  501    0  0.88972557301E+02  0.47039481253E+02 -0.59734302277E+00  0.10064385509E+03  0.00000000000E+00 0.  1.
          1    1    1    2  502    0 -0.73061384443E+02  0.35716214918E+02 -0.69296328793E+02  0.10684378826E+03  0.00000000000E+00 0.  1.
         22    1    1    2    0    0  0.32856509749E+01 -0.10060777199E+03  0.15825459042E+02  0.10189781372E+03  0.00000000000E+00 0. -1.
         22    1    1    2    0    0 -0.19196823832E+02  0.17852075823E+02 -0.40963284380E+02  0.48633376642E+02  0.00000000000E+00 0.  1.
</event>
<event>
 6    1  0.1715574E-005  0.1373730E+03  0.7818608E-02  0.1243511E+00
          2   -1    0    0  502    0  0.00000000000E+00  0.00000000000E+00  0.15153959882E+03  0.15153959882E+03  0.00000000000E+00 0.  1.
          1   -1    0    0  501    0 -0.00000000000E+00 -0.00000000000E+00 -0.90319091350E+02  0.90319091350E+02  0.00000000000E+00 0.  1.
          2    1    1    2  501    0 -0.37111245898E+02 -0.38925839305E+02 -0.11166554229E+02  0.54928658012E+02  0.00000000000E+00 0.  1.
          1    1    1    2  502    0  0.44359683415E+02  0.49531171510E+01  0.64126928427E+01  0.45093652676E+02  0.00000000000E+00 0.  1.
         22    1    1    2    0    0  0.24936434523E+02 -0.25494354888E+01 -0.27029050479E+02  0.36863192453E+02  0.00000000000E+00 0.  1.
         22    1    1    2    0    0 -0.32184872040E+02  0.36522157643E+02  0.93003419337E+02  0.10497318703E+03  0.00000000000E+00 0.  1.
</event>
<event>
 6    1  0.1715574E-005  0.6725434E+02  0.7818608E-02  0.1372065E+00
          2   -1    0    0  502    0  0.00000000000E+00  0.00000000000E+00  0.30205550169E+03  0.30205550169E+03  0.00000000000E+00 0. -1.
          1   -1    0    0  501    0 -0.00000000000E+00 -0.00000000000E+00 -0.35208177607E+02  0.35208177607E+02  0.00000000000E+00 0. -1.
          2    1    1    2  501    0 -0.18463988333E+02  0.13785036852E+02  0.85741790003E+02  0.88784011280E+02  0.00000000000E+00 0. -1.
          1    1    1    2  502    0  0.22709597533E+02 -0.24957407659E+02  0.13618137218E+02  0.36387520917E+02  0.00000000000E+00 0. -1.
         22    1    1    2    0    0 -0.79514577052E+01  0.40728143218E+02  0.17622895911E+03  0.18104875961E+03  0.00000000000E+00 0. -1.
         22    1    1    2    0    0  0.37058485057E+01 -0.29555772411E+02 -0.87415622464E+01  0.31043387484E+02  0.00000000000E+00 0. -1.
</event>
<event>
 6    1  0.1715574E-005  0.1334526E+03  0.7818608E-02  0.1225326E+00
          2   -1    0    0  502    0  0.00000000000E+00  0.00000000000E+00  0.40759333893E+02  0.40759333893E+02  0.00000000000E+00 0.  1.
          1   -1    0    0  501    0 -0.00000000000E+00 -0.00000000000E+00 -0.47486413828E+03  0.47486413828E+03  0.00000000000E+00 0. -1.
          2    1    1    2  501    0  0.37334256956E+02 -0.52771416022E+02 -0.12155575254E+03  0.13767523404E+03  0.00000000000E+00 0.  1.
          1    1    1    2  502    0 -0.51015638406E+02  0.50717235263E+02 -0.19893619285E+03  0.21154300305E+03  0.00000000000E+00 0. -1.
         22    1    1    2    0    0  0.18745340256E+02  0.48974095895E+02 -0.10645943766E+03  0.11867376170E+03  0.00000000000E+00 0.  1.
         22    1    1    2    0    0 -0.50639588064E+01 -0.46919915135E+02 -0.71534213474E+01  0.47731473391E+02  0.00000000000E+00 0. -1.
</event>
<event>
 6    1  0.1715574E-005  0.6512797E+02  0.7818608E-02  0.1386041E+00
          2   -1    0    0  502    0  0.00000000000E+00  0.00000000000E+00  0.15690631036E+03  0.15690631036E+03  0.00000000000E+00 0.  1.
          1   -1    0    0  501    0 -0.00000000000E+00 -0.00000000000E+00 -0.11384708573E+03  0.11384708573E+03  0.00000000000E+00 0.  1.
          2    1    1    2  501    0  0.28435969703E+02 -0.70381841642E+01  0.73605231583E+02  0.79220392107E+02  0.00000000000E+00 0.  1.
          1    1    1    2  502    0  0.11980773217E+02  0.21721422719E+02 -0.55391504466E+02  0.60692486345E+02  0.00000000000E+00 0.  1.
         22    1    1    2    0    0 -0.25434823825E+02  0.17379517986E+02 -0.43835668292E+02  0.53577455362E+02  0.00000000000E+00 0.  1.
         22    1    1    2    0    0 -0.14981919095E+02 -0.32062756541E+02  0.68681165796E+02  0.77263062274E+02  0.00000000000E+00 0.  1.
</event>
<event>
 6    1  0.1715574E-005  0.9915493E+02  0.7818608E-02  0.1282334E+00
          2   -1    0    0  502    0  0.00000000000E+00  0.00000000000E+00  0.23688711598E+03  0.23688711598E+03  0.00000000000E+00 0.  1.
          1   -1    0    0  501    0 -0.00000000000E+00 -0.00000000000E+00 -0.15726271821E+03  0.15726271821E+03  0.00000000000E+00 0. -1.
          2    1    1    2  501    0 -0.36004953085E+02  0.20494868434E+02  0.84115950502E+02  0.93765075629E+02  0.00000000000E+00 0.  1.
          1    1    1    2  502    0  0.64158623507E+02 -0.56519172153E+02 -0.10546531020E+03  0.13577067963E+03  0.00000000000E+00 0. -1.
         22    1    1    2    0    0  0.13944723836E+01 -0.12955980221E+02 -0.23922594762E+02  0.27241375091E+02  0.00000000000E+00 0. -1.
         22    1    1    2    0    0 -0.29548142806E+02  0.48980283940E+02  0.12489635223E+03  0.13737270383E+03  0.00000000000E+00 0.  1.
</event>
<event>
 6    1  0.1715574E-005  0.1164217E+03  0.7818608E-02  0.1249827E+00
          2   -1    0    0  502    0  0.00000000000E+00  0.00000000000E+00  0.25011183456E+03  0.25011183456E+03  0.00000000000E+00 0. -1.
          1   -1    0    0  501    0 -0.00000000000E+00 -0.00000000000E+00 -0.56404559661E+02  0.56404559661E+02  0.00000000000E+00 0. -1.
          2    1    1    2  501    0 -0.55794861656E+02  0.31635560668E+02  0.19425131282E+02  0.67016498053E+02  0.00000000000E+00 0. -1.
          1    1    1    2  502    0  0.29523723182E+02 -0.54980234926E+01  0.33379920867E+02  0.44900975601E+02  0.00000000000E+00 0. -1.
         22    1    1    2    0    0  0.47560250276E+02 -0.70140713403E+02  0.98000248152E+02  0.12955981522E+03  0.00000000000E+00 0. -1.
         22    1    1    2    0    0 -0.21289111802E+02  0.44003176228E+02  0.42901974603E+02  0.65039105347E+02  0.00000000000E+00 0.  1.
</event>
<event>
 6    1  0.1715574E-005  0.1037619E+03  0.7818608E-02  0.1282806E+00
          2   -1    0    0  502    0  0.00000000000E+00  0.00000000000E+00  0.57454329781E+03  0.57454329781E+03  0.00000000000E+00 0. -1.
          1   -1    0    0  501    0 -0.00000000000E+00 -0.00000000000E+00 -0.35535403626E+02  0.35535403626E+02  0.00000000000E+00 0. -1.
          2    1    1    2  501    0  0.20714234232E+02  0.94329181704E+01  0.26267527878E+03  0.26365955611E+03  0.00000000000E+00 0. -1.
          1    1    1    2  502    0 -0.38703374542E+02 -0.53002938433E+02  0.42627573838E+02  0.78258371659E+02  0.00000000000E+00 0. -1.
         22    1    1    2    0    0 -0.30765234591E+02  0.20154945875E+02  0.10147209075E+02  0.38153471070E+02  0.00000000000E+00 0. -1.
         22    1    1    2    0    0  0.48754374900E+02  0.23415074388E+02  0.22355783250E+03  0.23000730261E+03  0.00000000000E+00 0. -1.
</event>
<event>
 6    1  0.1715574E-005  0.1192645E+03  0.7818608E-02  0.1246002E+00
          2   -1    0    0  502    0  0.00000000000E+00  0.00000000000E+00  0.60639869322E+02  0.60639869322E+02  0.00000000000E+00 0. -1.
          1   -1    0    0  501    0 -0.00000000000E+00 -0.00000000000E+00 -0.61022510437E+03  0.61022510437E+03  0.00000000000E+00 0. -1.
          2    1    1    2  501    0  0.34096251727E+02 -0.34987204224E+02 -0.37580781881E+02  0.61635817574E+02  0.00000000000E+00 0. -1.
          1    1    1    2  502    0 -0.51130095728E+02  0.63537874309E+02 -0.46115999897E+03  0.46831601810E+03  0.00000000000E+00 0. -1.
         22    1    1    2    0    0  0.45201837079E+02 -0.24649369264E+02  0.26929596926E+02  0.58103361960E+02  0.00000000000E+00 0. -1.
         22    1    1    2    0    0 -0.28167993079E+02 -0.39013008215E+01 -0.77774051122E+02  0.82809776054E+02  0.00000000000E+00 0. -1.
</event>
<event>
 6    1  0.1715574E-005  0.2281414E+03  0.7818608E-02  0.1129029E+00
          2   -1    0    0  502    0  0.00000000000E+00  0.00000000000E+00  0.12110565538E+04  0.12110565538E+04  0.00000000000E+00 0. -1.
          1   -1    0    0  501    0 -0.00000000000E+00 -0.00000000000E+00 -0.41965750338E+02  0.41965750338E+02  0.00000000000E+00 0. -1.
          2    1    1    2  501    0 -0.17464660331E+03  0.49182079210E+02  0.39706200884E+03  0.43655303438E+03  0.00000000000E+00 0. -1.
          1    1    1    2  502    0  0.11473547581E+03 -0.26683625840E+02  0.44097116509E+03  0.45643379995E+03  0.00000000000E+00 0. -1.
         22    1    1    2    0    0  0.93241093023E+02 -0.32177042498E+02  0.18220841470E+03  0.20719355656E+03  0.00000000000E+00 0. -1.
         22    1    1    2    0    0 -0.33329965523E+02  0.96785891290E+01  0.14884921485E+03  0.15284191326E+03  0.00000000000E+00 0.  1.
</event>
<event>
 6    1  0.1715574E-005  0.1086376E+03  0.7818608E-02  0.1278294E+00
          2   -1    0    0  502    0  0.00000000000E+00  0.00000000000E+00  0.34793732044E+03  0.34793732044E+03  0.00000000000E+00 0. -1.
          1   -1    0    0  501    0 -0.00000000000E+00 -0.00000000000E+00 -0.82537617548E+02  0.82537617548E+02  0.00000000000E+00 0.  1.
          2    1    1    2  501    0 -0.12437543871E+02 -0.51702430480E+02  0.14317263525E+03  0.15272929417E+03  0.00000000000E+00 0. -1.
          1    1    1    2  502    0 -0.38612807232E+02  0.49259147437E+02 -0.34930439766E+02  0.71676691545E+02  0.00000000000E+00 0.  1.
         22    1    1    2    0    0 -0.19463620266E+01  0.17779186719E+02 -0.16207750599E+02  0.24136673031E+02  0.00000000000E+00 0.  1.
         22    1    1    2    0    0  0.52996713130E+02 -0.15335903677E+02  0.17336525801E+03  0.18193227924E+03  0.00000000000E+00 0. -1.
</event>
<event>
 6    1  0.1715574E-005  0.3987632E+02  0.7818608E-02  0.1596762E+00
          2   -1    0    0  502    0  0.00000000000E+00  0.00000000000E+00  0.15089195755E+03  0.15089195755E+03  0.00000000000E+00 0.  1.
          1   -1    0    0  501    0 -0.00000000000E+00 -0.00000000000E+00 -0.13244448190E+03  0.13244448190E+03  0.00000000000E+00 0.  1.
          2    1    1    2  501    0  0.21874086145E+02  0.80215530179E+01  0.79113219725E+02  0.82472555998E+02  0.00000000000E+00 0.  1.
          1    1    1    2  502    0 -0.38135728174E+01 -0.30323756174E+02  0.28641221988E+02  0.41885476279E+02  0.00000000000E+00 0.  1.
         22    1    1    2    0    0  0.69182241590E+01 -0.10983406508E+02  0.29964450814E+02  0.32655250062E+02  0.00000000000E+00 0.  1.
         22    1    1    2    0    0 -0.24978737486E+02  0.33285609664E+02 -0.11927141688E+03  0.12632315710E+03  0.00000000000E+00 0.  1.
</event>
<event>
 6    1  0.1715574E-005  0.4326921E+02  0.7818608E-02  0.1519137E+00
          2   -1    0    0  502    0  0.00000000000E+00  0.00000000000E+00  0.29494928247E+03  0.29494928247E+03  0.00000000000E+00 0.  1.
          1   -1    0    0  501    0 -0.00000000000E+00 -0.00000000000E+00 -0.54634408578E+02  0.54634408578E+02  0.00000000000E+00 0.  1.
          2    1    1    2  501    0  0.83071769878E+01 -0.63349863820E+02  0.41048893902E+02  0.75942255208E+02  0.00000000000E+00 0.  1.
          1    1    1    2  502    0  0.55964843841E+01  0.52821080696E+02  0.10488568699E+03  0.11756868009E+03  0.00000000000E+00 0.  1.
         22    1    1    2    0    0 -0.27353038193E+02  0.31800484313E+02 -0.14454121019E+02  0.44366441320E+02  0.00000000000E+00 0. -1.
         22    1    1    2    0    0  0.13449376821E+02 -0.21271701189E+02  0.10883441402E+03  0.11170631443E+03  0.00000000000E+00 0. -1.
</event>
<event>
 6    1  0.1715574E-005  0.1162230E+03  0.7818608E-02  0.1275663E+00
          2   -1    0    0  502    0  0.00000000000E+00  0.00000000000E+00  0.75409305604E+03  0.75409305604E+03  0.00000000000E+00 0. -1.
          1   -1    0    0  501    0 -0.00000000000E+00 -0.00000000000E+00 -0.32038379971E+02  0.32038379971E+02  0.00000000000E+00 0.  1.
          2    1    1    2  501    0  0.22563616360E+02  0.36881661665E+02  0.27730036399E+03  0.28065078945E+03  0.00000000000E+00 0. -1.
          1    1    1    2  502    0  0.36245445929E+02  0.56230227023E+01 -0.65187715474E+00  0.36684815370E+02  0.00000000000E+00 0.  1.
         22    1    1    2    0    0  0.12495426359E+02 -0.27422056217E+02  0.17750205832E+02  0.34973913910E+02  0.00000000000E+00 0.  1.
         22    1    1    2    0    0 -0.71304488649E+02 -0.15082628150E+02  0.42765598340E+03  0.43382191728E+03  0.00000000000E+00 0. -1.
</event>
<event>
 6    1  0.1715574E-005  0.5091764E+02  0.7818608E-02  0.1526982E+00
          2   -1    0    0  502    0  0.00000000000E+00  0.00000000000E+00  0.13621400621E+04  0.13621400621E+04  0.00000000000E+00 0. -1.
          1   -1    0    0  501    0 -0.00000000000E+00 -0.00000000000E+00 -0.12774833371E+03  0.12774833371E+03  0.00000000000E+00 0. -1.
          2    1    1    2  501    0  0.47459592222E+02 -0.20965006378E+02  0.13147045651E+04  0.13157279497E+04  0.00000000000E+00 0. -1.
          1    1    1    2  502    0 -0.46363848281E+01  0.21801033956E+02 -0.25213800410E+02  0.33652888092E+02  0.00000000000E+00 0. -1.
         22    1    1    2    0    0 -0.30836675850E+01  0.14756283806E+02 -0.86315853249E+02  0.87622391200E+02  0.00000000000E+00 0. -1.
         22    1    1    2    0    0 -0.39739539809E+02 -0.15592311384E+02  0.31216816964E+02  0.52885166728E+02  0.00000000000E+00 0. -1.
</event>
<event>
 6    1  0.1715574E-005  0.5196375E+02  0.7818608E-02  0.1437165E+00
          2   -1    0    0  502    0  0.00000000000E+00  0.00000000000E+00  0.22830161589E+03  0.22830161589E+03  0.00000000000E+00 0. -1.
          1   -1    0    0  501    0 -0.00000000000E+00 -0.00000000000E+00 -0.14860934919E+03  0.14860934919E+03  0.00000000000E+00 0. -1.
          2    1    1    2  501    0 -0.27153706737E+02  0.18079131480E+02  0.14773598074E+03  0.15129474145E+03  0.00000000000E+00 0. -1.
          1    1    1    2  502    0  0.25606492839E+02 -0.88937078807E+01 -0.94466755688E+02  0.98278982726E+02  0.00000000000E+00 0. -1.
         22    1    1    2    0    0  0.20639608733E+02 -0.74038108528E+01 -0.46780164677E+02  0.51664239770E+02  0.00000000000E+00 0. -1.
         22    1    1    2    0    0 -0.19092394835E+02 -0.17816127463E+01  0.73203206317E+02  0.75673001128E+02  0.00000000000E+00 0. -1.
</event>
<event>
 6    1  0.1715574E-005  0.6845266E+02  0.7818608E-02  0.1376537E+00
          2   -1    0    0  502    0  0.00000000000E+00  0.00000000000E+00  0.39679947616E+03  0.39679947616E+03  0.00000000000E+00 0. -1.
          1   -1    0    0  501    0 -0.00000000000E+00 -0.00000000000E+00 -0.29149627476E+02  0.29149627476E+02  0.00000000000E+00 0.  1.
          2    1    1    2  501    0  0.23209292990E+02  0.88789357856E+01  0.18815968700E+03  0.18979350514E+03  0.00000000000E+00 0. -1.
          1    1    1    2  502    0 -0.16108932787E+02  0.14643702765E+02  0.81835171695E+01  0.23257379463E+02  0.00000000000E+00 0.  1.
         22    1    1    2    0    0  0.31047823037E+02  0.29480768505E+01  0.16271573472E+03  0.16567760500E+03  0.00000000000E+00 0. -1.
         22    1    1    2    0    0 -0.38148183241E+02 -0.26470715402E+02  0.85909097929E+01  0.47220614032E+02  0.00000000000E+00 0.  1.
</event>
<event>
 6    1  0.1715574E-005  0.2600469E+02  0.7818608E-02  0.1652337E+00
          2   -1    0    0  502    0  0.00000000000E+00  0.00000000000E+00  0.34146040053E+03  0.34146040053E+03  0.00000000000E+00 0.  1.
          1   -1    0    0  501    0 -0.00000000000E+00 -0.00000000000E+00 -0.74512821275E+02  0.74512821275E+02  0.00000000000E+00 0.  1.
          2    1    1    2  501    0 -0.60551039907E+01 -0.21757453548E+02  0.25509569896E+03  0.25609347257E+03  0.00000000000E+00 0.  1.
          1    1    1    2  502    0  0.80832045479E+01  0.23315684966E+02 -0.18712198795E+02  0.30969432428E+02  0.00000000000E+00 0.  1.
         22    1    1    2    0    0  0.20005789140E+00  0.16540738842E+02 -0.46689702663E+02  0.49533467468E+02  0.00000000000E+00 0.  1.
         22    1    1    2    0    0 -0.22281584486E+01 -0.18098970260E+02  0.77253781754E+02  0.79376849332E+02  0.00000000000E+00 0.  1.
</event>
<event>
 6    1  0.1715574E-005  0.3922619E+02  0.7818608E-02  0.1514225E+00
          2   -1    0    0  502    0  0.00000000000E+00  0.00000000000E+00  0.46562660362E+03  0.46562660362E+03  0.00000000000E+00 0. -1.
          1   -1    0    0  501    0 -0.00000000000E+00 -0.00000000000E+00 -0.62746244718E+02  0.62746244718E+02  0.00000000000E+00 0.  1.
          2    1    1    2  501    0 -0.26298100143E+02  0.36524803261E+02  0.23714499250E+03  0.24137812410E+03  0.00000000000E+00 0. -1.
          1    1    1    2  502    0 -0.59215082268E+01 -0.27022274461E+02 -0.38686263862E+02  0.47559379604E+02  0.00000000000E+00 0.  1.
         22    1    1    2    0    0 -0.93710833665E+01 -0.67319633713E+01 -0.13387399948E+02  0.17673681327E+02  0.00000000000E+00 0. -1.
         22    1    1    2    0    0  0.41590691737E+02 -0.27705654288E+01  0.21780903021E+03  0.22176166331E+03  0.00000000000E+00 0. -1.
</event>
<event>
 6    1  0.1715574E-005  0.5243847E+02  0.7818608E-02  0.1443190E+00
          2   -1    0    0  502    0  0.00000000000E+00  0.00000000000E+00  0.11154794724E+03  0.11154794724E+03  0.00000000000E+00 0.  1.
          1   -1    0    0  501    0 -0.00000000000E+00 -0.00000000000E+00 -0.28332397937E+03  0.28332397937E+03  0.00000000000E+00 0. -1.
          2    1    1    2  501    0  0.21837517018E+02 -0.36500618368E+01  0.59848182213E+02  0.63812263830E+02  0.00000000000E+00 0.  1.
          1    1    1    2  502    0 -0.24974487218E+02 -0.12161011802E+02 -0.19830838901E+03  0.20024443156E+03  0.00000000000E+00 0. -1.
         22    1    1    2    0    0 -0.14771446183E+02 -0.65484685792E+01 -0.76944157427E+02  0.78622397733E+02  0.00000000000E+00 0. -1.
         22    1    1    2    0    0  0.17908416383E+02  0.22359542218E+02  0.43628332092E+02  0.52192833480E+02  0.00000000000E+00 0. -1.
</event>
<event>
 6    1  0.1715574E-005  0.7776389E+02  0.7818608E-02  0.1396612E+00
          2   -1    0    0  502    0  0.00000000000E+00  0.00000000000E+00  0.33618703180E+03  0.33618703180E+03  0.00000000000E+00 0. -1.
          1   -1    0    0  501    0 -0.00000000000E+00 -0.00000000000E+00 -0.19927755764E+03  0.19927755764E+03  0.00000000000E+00 0.  1.
          2    1    1    2  501    0 -0.11913962285E+02 -0.34538980268E+02  0.14032541059E+03  0.14500380862E+03  0.00000000000E+00 0. -1.
          1    1    1    2  502    0  0.63825403724E+02  0.28483848053E+02 -0.16348928449E+03  0.17780258126E+03  0.00000000000E+00 0.  1.
         22    1    1    2    0    0 -0.14678250538E+02  0.23960438383E+02 -0.15636362932E+02  0.32156639938E+02  0.00000000000E+00 0.  1.
         22    1    1    2    0    0 -0.37233190901E+02 -0.17905306168E+02  0.17570971099E+03  0.18050155963E+03  0.00000000000E+00 0. -1.
</event>
<event>
 6    1  0.1715574E-005  0.6550371E+02  0.7818608E-02  0.1389297E+00
          2   -1    0    0  502    0  0.00000000000E+00  0.00000000000E+00  0.49229588215E+02  0.49229588215E+02  0.00000000000E+00 0. -1.
          1   -1    0    0  501    0 -0.00000000000E+00 -0.00000000000E+00 -0.21626751265E+03  0.21626751265E+03  0.00000000000E+00 0.  1.
          2    1    1    2  501    0 -0.10218885123E+02 -0.25976789332E+02 -0.37474249789E+01  0.28164914186E+02  0.00000000000E+00 0. -1.
          1    1    1    2  502    0 -0.20123545402E+00  0.27665698279E+02 -0.90529118146E+02  0.94662308176E+02  0.00000000000E+00 0.  1.
         22    1    1    2    0    0  0.19897363735E+02 -0.24791347017E+02  0.25833501624E+02  0.40962004061E+02  0.00000000000E+00 0. -1.
         22    1    1    2    0    0 -0.94772431584E+01  0.23102438069E+02 -0.98594882939E+02  0.10170787445E+03  0.00000000000E+00 0.  1.
</event>
<event>
 6    1  0.1715574E-005  0.1231699E+03  0.7818608E-02  0.1326120E+00
          2   -1    0    0  502    0  0.00000000000E+00  0.00000000000E+00  0.67173490946E+03  0.67173490946E+03  0.00000000000E+00 0. -1.
          1   -1    0    0  501    0 -0.00000000000E+00 -0.00000000000E+00 -0.53726051218E+02  0.53726051218E+02  0.00000000000E+00 0. -1.
          2    1    1    2  501    0  0.65372044114E+02  0.76111975842E+02  0.36401943420E+03  0.37759328052E+03  0.00000000000E+00 0. -1.
          1    1    1    2  502    0 -0.45886576340E+02 -0.93611395167E+02  0.13542251605E+03  0.17090327395E+03  0.00000000000E+00 0. -1.
         22    1    1    2    0    0  0.14344008464E+01  0.27260230292E+02  0.14168688512E+03  0.14429258843E+03  0.00000000000E+00 0.  1.
         22    1    1    2    0    0 -0.20919868620E+02 -0.97608109672E+01 -0.23119977134E+02  0.32671817772E+02  0.00000000000E+00 0. -1.
</event>
<event>
 6    1  0.1715574E-005  0.1905751E+03  0.7818608E-02  0.1160662E+00
          2   -1    0    0  502    0  0.00000000000E+00  0.00000000000E+00  0.10467653820E+04  0.10467653820E+04  0.00000000000E+00 0.  1.
          1   -1    0    0  501    0 -0.00000000000E+00 -0.00000000000E+00 -0.32807957084E+02  0.32807957084E+02  0.00000000000E+00 0. -1.
          2    1    1    2  501    0 -0.35632882010E+02  0.88931401808E+02  0.33328082437E+03  0.34677745659E+03  0.00000000000E+00 0.  1.
          1    1    1    2  502    0  0.75599344441E+02 -0.10459510150E+03  0.41489915840E+03  0.43450743121E+03  0.00000000000E+00 0. -1.
         22    1    1    2    0    0 -0.48529645435E+02  0.64653978207E+02  0.20080387075E+03  0.21646583540E+03  0.00000000000E+00 0.  1.
         22    1    1    2    0    0  0.85631830043E+01 -0.48990278513E+02  0.64973571439E+02  0.81822615929E+02  0.00000000000E+00 0.  1.
</event>
<event>
 6    1  0.1715574E-005  0.6117893E+02  0.7818608E-02  0.1488204E+00
          2   -1    0    0  502    0  0.00000000000E+00  0.00000000000E+00  0.55707024669E+03  0.55707024669E+03  0.00000000000E+00 0.  1.
          1   -1    0    0  501    0 -0.00000000000E+00 -0.00000000000E+00 -0.10289045464E+03  0.10289045464E+03  0.00000000000E+00 0. -1.
          2    1    1    2  501    0 -0.51663520922E+02  0.11262962406E+02  0.48889234915E+03  0.49174353354E+03  0.00000000000E+00 0.  1.
          1    1    1    2  502    0  0.22887427704E+02  0.65044071786E+01 -0.29098744574E+02  0.37588277368E+02  0.00000000000E+00 0. -1.
         22    1    1    2    0    0 -0.78896187331E+01 -0.12436576751E+02  0.56453874149E+02  0.58343418065E+02  0.00000000000E+00 0.  1.
         22    1    1    2    0    0  0.36665711951E+02 -0.53307928328E+01 -0.62067686672E+02  0.72285472357E+02  0.00000000000E+00 0.  1.
</event>
<event>
 6    1  0.1715574E-005  0.2937619E+02  0.7818608E-02  0.1630759E+00
          2   -1    0    0  502    0  0.00000000000E+00  0.00000000000E+00  0.60029669391E+02  0.60029669391E+02  0.00000000000E+00 0.  1.
          1   -1    0    0  501    0 -0.00000000000E+00 -0.00000000000E+00 -0.36184644029E+03  0.36184644029E+03  0.00000000000E+00 0.  1.
          2    1    1    2  501    0 -0.24067977255E+02 -0.12925994545E+02 -0.25818714192E+02  0.37589291915E+02  0.00000000000E+00 0.  1.
          1    1    1    2  502    0  0.38206109476E+02  0.87097891183E+01 -0.24732881213E+03  0.25041387449E+03  0.00000000000E+00 0.  1.
         22    1    1    2    0    0 -0.18543692316E+02 -0.11056781327E+02  0.49552958182E+02  0.54051980562E+02  0.00000000000E+00 0.  1.
         22    1    1    2    0    0  0.44055600951E+01  0.15272986754E+02 -0.78222202759E+02  0.79820962714E+02  0.00000000000E+00 0. -1.
</event>
<event>
 6    1  0.1715574E-005  0.1092098E+03  0.7818608E-02  0.1267322E+00
          2   -1    0    0  502    0  0.00000000000E+00  0.00000000000E+00  0.24551294012E+02  0.24551294012E+02  0.00000000000E+00 0. -1.
          1   -1    0    0  501    0 -0.00000000000E+00 -0.00000000000E+00 -0.57185634822E+03  0.57185634822E+03  0.00000000000E+00 0. -1.
          2    1    1    2  501    0  0.14341303777E+02 -0.34865450948E+02 -0.13413257938E+03  0.13932990173E+03  0.00000000000E+00 0. -1.
          1    1    1    2  502    0 -0.37013219761E+02  0.28873152691E+02 -0.20855159309E+03  0.21376951224E+03  0.00000000000E+00 0. -1.
         22    1    1    2    0    0 -0.32245183549E+01 -0.38335975672E+02 -0.69685359748E+01  0.39097378979E+02  0.00000000000E+00 0. -1.
         22    1    1    2    0    0  0.25896434338E+02  0.44328273929E+02 -0.19765234577E+03  0.20421084929E+03  0.00000000000E+00 0. -1.
</event>
<event>
 6    1  0.1715574E-005  0.7990542E+02  0.7818608E-02  0.1391453E+00
          2   -1    0    0  502    0  0.00000000000E+00  0.00000000000E+00  0.20004711812E+03  0.20004711812E+03  0.00000000000E+00 0. -1.
          1   -1    0    0  501    0 -0.00000000000E+00 -0.00000000000E+00 -0.51135334383E+03  0.51135334383E+03  0.00000000000E+00 0. -1.
          2    1    1    2  501    0  0.47881364454E+02  0.58098910503E+02 -0.24572873200E+02  0.79195546345E+02  0.00000000000E+00 0. -1.
          1    1    1    2  502    0 -0.10682411453E+03  0.15004013595E+01 -0.41943777451E+03  0.43282986188E+03  0.00000000000E+00 0. -1.
         22    1    1    2    0    0  0.57711594137E+02 -0.35678194253E+02  0.15339025993E+03  0.16772636491E+03  0.00000000000E+00 0. -1.
         22    1    1    2    0    0  0.12311559379E+01 -0.23921117610E+02 -0.20685837932E+02  0.31648688813E+02  0.00000000000E+00 0. -1.
</event>
<event>
 6    1  0.1715574E-005  0.7351731E+02  0.7818608E-02  0.1348711E+00
          2   -1    0    0  502    0  0.00000000000E+00  0.00000000000E+00  0.11353609056E+03  0.11353609056E+03  0.00000000000E+00 0.  1.
          1   -1    0    0  501    0 -0.00000000000E+00 -0.00000000000E+00 -0.24108948100E+03  0.24108948100E+03  0.00000000000E+00 0. -1.
          2    1    1    2  501    0 -0.20714716892E+01  0.40737463158E+02  0.41343073344E+02  0.58078237000E+02  0.00000000000E+00 0.  1.
          1    1    1    2  502    0  0.43530493034E+01 -0.54201662048E+02 -0.16356511131E+03  0.17236680320E+03  0.00000000000E+00 0. -1.
         22    1    1    2    0    0  0.56337481957E+01  0.30624543602E+02  0.53767747644E+02  0.62133505263E+02  0.00000000000E+00 0. -1.
         22    1    1    2    0    0 -0.79153258098E+01 -0.17160344711E+02 -0.59099100113E+02  0.62047026097E+02  0.00000000000E+00 0. -1.
</event>
<event>
 6    1  0.1715574E-005  0.1328094E+03  0.7818608E-02  0.1223994E+00
          2   -1    0    0  502    0  0.00000000000E+00  0.00000000000E+00  0.97901793382E+03  0.97901793382E+03  0.00000000000E+00 0.  1.
          1   -1    0    0  501    0 -0.00000000000E+00 -0.00000000000E+00 -0.17872594065E+02  0.17872594065E+02  0.00000000000E+00 0. -1.
          2    1    1    2  501    0 -0.12937821031E+02 -0.16969018893E+02  0.60424095470E+02  0.64081246309E+02  0.00000000000E+00 0.  1.
          1    1    1    2  502    0  0.94382075375E+02  0.16533297922E+02  0.37205283772E+03  0.38419349311E+03  0.00000000000E+00 0. -1.
         22    1    1    2    0    0  0.27819275124E+02  0.14934767034E+02  0.68433226577E+02  0.75366211491E+02  0.00000000000E+00 0. -1.
         22    1    1    2    0    0 -0.10926352947E+03 -0.14499046063E+02  0.46023517999E+03  0.47324957697E+03  0.00000000000E+00 0.  1.
</event>
<event>
 6    1  0.1715574E-005  0.6167444E+02  0.7818608E-02  0.1420399E+00
          2   -1    0    0  502    0  0.00000000000E+00  0.00000000000E+00  0.65282053971E+02  0.65282053971E+02  0.00000000000E+00 0. -1.
          1   -1    0    0  501    0 -0.00000000000E+00 -0.00000000000E+00 -0.22560092561E+03  0.22560092561E+03  0.00000000000E+00 0.  1.
          2    1    1    2  501    0 -0.41838527711E+02  0.41132412507E+01  0.11827267894E+02  0.43672250004E+02  0.00000000000E+00 0. -1.
          1    1    1    2  502    0  0.32761404473E+02  0.18818951031E+02 -0.88408473439E+02  0.96143230219E+02  0.00000000000E+00 0.  1.
         22    1    1    2    0    0 -0.14434217999E+02 -0.36044237659E+02  0.20153037968E+02  0.43745613003E+02  0.00000000000E+00 0. -1.
         22    1    1    2    0    0  0.23511341236E+02  0.13112045377E+02 -0.10389070406E+03  0.10732188636E+03  0.00000000000E+00 0.  1.
</event>
<event>
 6    1  0.1715574E-005  0.3030721E+02  0.7818608E-02  0.1668534E+00
          2   -1    0    0  502    0  0.00000000000E+00  0.00000000000E+00  0.49894170283E+03  0.49894170283E+03  0.00000000000E+00 0. -1.
          1   -1    0    0  501    0 -0.00000000000E+00 -0.00000000000E+00 -0.30711798344E+03  0.30711798344E+03  0.00000000000E+00 0. -1.
          2    1    1    2  501    0  0.21081105661E+02  0.18065208899E+02  0.46743820047E+03  0.46826193103E+03  0.00000000000E+00 0. -1.
          1    1    1    2  502    0 -0.41826259108E+02 -0.39388267989E+02 -0.14873354076E+03  0.15944446604E+03  0.00000000000E+00 0. -1.
         22    1    1    2    0    0  0.10721237032E+02 -0.24954821763E+01  0.23403613166E+02  0.25863129432E+02  0.00000000000E+00 0. -1.
         22    1    1    2    0    0  0.10023916415E+02  0.23818541266E+02 -0.15028455349E+03  0.15249015977E+03  0.00000000000E+00 0.  1.
</event>
<event>
 6    1  0.1715574E-005  0.1249477E+03  0.7818608E-02  0.1257794E+00
          2   -1    0    0  502    0  0.00000000000E+00  0.00000000000E+00  0.59577656498E+02  0.59577656498E+02  0.00000000000E+00 0. -1.
          1   -1    0    0  501    0 -0.00000000000E+00 -0.00000000000E+00 -0.36399487219E+03  0.36399487219E+03  0.00000000000E+00 0. -1.
          2    1    1    2  501    0 -0.91910901786E+00 -0.31993418035E+02 -0.42860174355E+02  0.53492224712E+02  0.00000000000E+00 0. -1.
          1    1    1    2  502    0 -0.60064445927E+02  0.24666658763E+02 -0.21823652987E+03  0.22769138036E+03  0.00000000000E+00 0. -1.
         22    1    1    2    0    0  0.68152361513E+02 -0.40236219693E+01  0.25043401644E+02  0.72719363855E+02  0.00000000000E+00 0. -1.
         22    1    1    2    0    0 -0.71688065684E+01  0.11350381241E+02 -0.68363913110E+02  0.69669559764E+02  0.00000000000E+00 0. -1.
</event>
<event>
 6    1  0.1715574E-005  0.1418617E+03  0.7818608E-02  0.1214205E+00
          2   -1    0    0  502    0  0.00000000000E+00  0.00000000000E+00  0.24214047987E+03  0.24214047987E+03  0.00000000000E+00 0.  1.
          1   -1    0    0  501    0 -0.00000000000E+00 -0.00000000000E+00 -0.12488759866E+03  0.12488759866E+03  0.00000000000E+00 0. -1.
          2    1    1    2  501    0  0.54457516193E+02 -0.92355491474E+02  0.14353239586E+03  0.17915553728E+03  0.00000000000E+00 0.  1.
          1    1    1    2  502    0  0.73363333124E+01  0.28789918290E+02 -0.12064123835E+02  0.32065936218E+02  0.00000000000E+00 0. -1.
         22    1    1    2    0    0  0.22100249060E+02 -0.10839363473E+02  0.26815541541E+02  0.36400358201E+02  0.00000000000E+00 0.  1.
         22    1    1    2    0    0 -0.83894098566E+02  0.74404936657E+02 -0.41030932361E+02  0.11940624684E+03  0.00000000000E+00 0. -1.
</event>
<event>
 6    1  0.1715574E-005  0.7134154E+02  0.7818608E-02  0.1409814E+00
          2   -1    0    0  502    0  0.00000000000E+00  0.00000000000E+00  0.19989996030E+04  0.19989996030E+04  0.00000000000E+00 0.  1.
          1   -1    0    0  501    0 -0.00000000000E+00 -0.00000000000E+00 -0.15222314245E+03  0.15222314245E+03  0.00000000000E+00 0. -1.
          2    1    1    2  501    0  0.37105387011E+02 -0.74388013763E+01  0.18804232115E+04  0.18808039770E+04  0.00000000000E+00 0.  1.
          1    1    1    2  502    0 -0.46509058839E+02 -0.10981076809E+01 -0.11551703837E+03  0.12453306608E+03  0.00000000000E+00 0. -1.
         22    1    1    2    0    0  0.29554583849E+02 -0.92446387291E-01  0.10788890487E+03  0.11186374643E+03  0.00000000000E+00 0.  1.
         22    1    1    2    0    0 -0.20150912021E+02  0.86293554444E+01 -0.26018617469E+02  0.34021955935E+02  0.00000000000E+00 0.  1.
</event>
<event>
 6    1  0.1715574E-005  0.8476397E+02  0.7818608E-02  0.1362915E+00
          2   -1    0    0  502    0  0.00000000000E+00  0.00000000000E+00  0.97500512411E+02  0.97500512411E+02  0.00000000000E+00 0. -1.
          1   -1    0    0  501    0 -0.00000000000E+00 -0.00000000000E+00 -0.35196139852E+03  0.35196139852E+03  0.00000000000E+00 0.  1.
          2    1    1    2  501    0  0.49748705875E+02  0.86963942958E+01  0.57018832980E+02  0.76168945932E+02  0.00000000000E+00 0. -1.
          1    1    1    2  502    0 -0.57428081472E+02  0.18289460849E+02 -0.18312040397E+03  0.19278374223E+03  0.00000000000E+00 0.  1.
         22    1    1    2    0    0  0.33128905437E+02  0.69495625524E+00  0.11968080770E+02  0.35231268739E+02  0.00000000000E+00 0. -1.
         22    1    1    2    0    0 -0.25449529840E+02 -0.27680811400E+02 -0.14032739589E+03  0.14527795402E+03  0.00000000000E+00 0.  1.
</event>
<event>
 6    1  0.1715574E-005  0.1190442E+03  0.7818608E-02  0.1264150E+00
          2   -1    0    0  502    0  0.00000000000E+00  0.00000000000E+00  0.46946085778E+03  0.46946085778E+03  0.00000000000E+00 0. -1.
          1   -1    0    0  501    0 -0.00000000000E+00 -0.00000000000E+00 -0.36338956996E+02  0.36338956996E+02  0.00000000000E+00 0. -1.
          2    1    1    2  501    0 -0.17129163607E+02 -0.21126167433E+02 -0.14740866780E+02  0.30935680851E+02  0.00000000000E+00 0. -1.
          1    1    1    2  502    0  0.92000158661E+01  0.26130370825E+02  0.12116214111E+03  0.12428878070E+03  0.00000000000E+00 0. -1.
         22    1    1    2    0    0 -0.17051152477E+02  0.50401731738E+02  0.23219753008E+03  0.23821580413E+03  0.00000000000E+00 0. -1.
         22    1    1    2    0    0  0.24980300217E+02 -0.55405935130E+02  0.94503096374E+02  0.11235954909E+03  0.00000000000E+00 0. -1.
</event>
<event>
 6    1  0.1715574E-005  0.4034383E+02  0.7818608E-02  0.1511251E+00
          2   -1    0    0  502    0  0.00000000000E+00  0.00000000000E+00  0.16943062088E+03  0.16943062088E+03  0.00000000000E+00 0.  1.
          1   -1    0    0  501    0 -0.00000000000E+00 -0.00000000000E+00 -0.21432913585E+03  0.21432913585E+03  0.00000000000E+00 0. -1.
          2    1    1    2  501    0 -0.26835563210E+02  0.63137696659E+01  0.98271557809E+02  0.10206522529E+03  0.00000000000E+00 0.  1.
          1    1    1    2  502    0  0.24788252023E+02 -0.88294567722E+01 -0.15420057619E+03  0.15642964694E+03  0.00000000000E+00 0. -1.
         22    1    1    2    0    0  0.73898014861E+01 -0.81784028485E+01 -0.56052031424E+02  0.57125525520E+02  0.00000000000E+00 0. -1.
         22    1    1    2    0    0 -0.53424902991E+01  0.10694089955E+02  0.67082534829E+02  0.68139358976E+02  0.00000000000E+00 0.  1.
</event>
<event>
 6    1  0.1715574E-005  0.8673656E+02  0.7818608E-02  0.1323086E+00
          2   -1    0    0  502    0  0.00000000000E+00  0.00000000000E+00  0.36639541712E+02  0.36639541712E+02  0.00000000000E+00 0. -1.
          1   -1    0    0  501    0 -0.00000000000E+00 -0.00000000000E+00 -0.37613786097E+03  0.37613786097E+03  0.00000000000E+00 0. -1.
          2    1    1    2  501    0 -0.19073017318E+02 -0.95433470332E+01 -0.33265057034E+02  0.39514800793E+02  0.00000000000E+00 0. -1.
          1    1    1    2  502    0  0.46111505158E+02  0.29032485694E+01 -0.20550805922E+03  0.21063775104E+03  0.00000000000E+00 0. -1.
         22    1    1    2    0    0  0.17478225036E+02 -0.15772234554E+02 -0.10951374094E+03  0.11201567385E+03  0.00000000000E+00 0. -1.
         22    1    1    2    0    0 -0.44516712876E+02  0.22412333018E+02  0.87885379416E+01  0.50609176992E+02  0.00000000000E+00 0. -1.
</event>
<event>
 6    1  0.1715574E-005  0.1007350E+03  0.7818608E-02  0.1279563E+00
          2   -1    0    0  502    0  0.00000000000E+00  0.00000000000E+00  0.27833778501E+03  0.27833778501E+03  0.00000000000E+00 0. -1.
          1   -1    0    0  501    0 -0.00000000000E+00 -0.00000000000E+00 -0.53933233426E+02  0.53933233426E+02  0.00000000000E+00 0. -1.
          2    1    1    2  501    0  0.84084163859E+01 -0.25599228511E+02  0.25993138838E+02  0.37438819868E+02  0.00000000000E+00 0. -1.
          1    1    1    2  502    0 -0.41719067824E+02  0.47033863276E+02  0.58463030310E+01  0.63141461607E+02  0.00000000000E+00 0. -1.
         22    1    1    2    0    0  0.55704971148E+00  0.35978084641E+02  0.97304308991E+01  0.37274846268E+02  0.00000000000E+00 0.  1.
         22    1    1    2    0    0  0.32753601727E+02 -0.57412719406E+02  0.18283467882E+03  0.19441589069E+03  0.00000000000E+00 0. -1.
</event>
<event>
 6    1  0.1715574E-005  0.1305515E+03  0.7818608E-02  0.1227972E+00
          2   -1    0    0  502    0  0.00000000000E+00  0.00000000000E+00  0.28394442623E+03  0.28394442623E+03  0.00000000000E+00 0. -1.
          1   -1    0    0  501    0 -0.00000000000E+00 -0.00000000000E+00 -0.38584379671E+03  0.38584379671E+03  0.00000000000E+00 0.  1.
          2    1    1    2  501    0 -0.33725081434E+02 -0.45932501574E+02  0.10064420584E+03  0.11565652592E+03  0.00000000000E+00 0. -1.
          1    1    1    2  502    0  0.93910927581E+02  0.66922177758E+02 -0.34051017885E+03  0.35950663706E+03  0.00000000000E+00 0.  1.
         22    1    1    2    0    0  0.10409354491E+02 -0.20628015660E+01 -0.18839159392E+02  0.21622297237E+02  0.00000000000E+00 0.  1.
         22    1    1    2    0    0 -0.70595200638E+02 -0.18926874617E+02  0.15680576193E+03  0.17300276272E+03  0.00000000000E+00 0. -1.
</event>
<event>
 6    1  0.1715574E-005  0.5601336E+02  0.7818608E-02  0.1418183E+00
          2   -1    0    0  502    0  0.00000000000E+00  0.00000000000E+00  0.23230669911E+03  0.23230669911E+03  0.00000000000E+00 0.  1.
          1   -1    0    0  501    0 -0.00000000000E+00 -0.00000000000E+00 -0.12840763503E+03  0.12840763503E+03  0.00000000000E+00 0. -1.
          2    1    1    2  501    0 -0.33078225222E+02  0.22466050527E+02  0.15533549388E+03  0.16039952640E+03  0.00000000000E+00 0.  1.
          1    1    1    2  502    0  0.28524203019E+02 -0.10953240036E+02 -0.65660500924E+02  0.72421716403E+02  0.00000000000E+00 0. -1.
         22    1    1    2    0    0  0.12524759016E+02 -0.22160068148E+02 -0.53302814893E+02  0.59068843600E+02  0.00000000000E+00 0. -1.
         22    1    1    2    0    0 -0.79707368122E+01  0.10647257656E+02  0.67526886012E+02  0.68824247729E+02  0.00000000000E+00 0.  1.
</event>
<event>
 6    1  0.1715574E-005  0.1132002E+03  0.7818608E-02  0.1255231E+00
          2   -1    0    0  502    0  0.00000000000E+00  0.00000000000E+00  0.28484737365E+03  0.28484737365E+03  0.00000000000E+00 0. -1.
          1   -1    0    0  501    0 -0.00000000000E+00 -0.00000000000E+00 -0.12036152650E+03  0.12036152650E+03  0.00000000000E+00 0. -1.
          2    1    1    2  501    0  0.41723704225E+02 -0.72546775919E+02  0.15767347207E+03  0.17850721550E+03  0.00000000000E+00 0. -1.
          1    1    1    2  502    0 -0.23314961763E+02  0.52366146476E+02 -0.57004231178E+02  0.80841097908E+02  0.00000000000E+00 0. -1.
         22    1    1    2    0    0  0.12306187120E+02 -0.22613920606E+02  0.85203558576E+02  0.89008303212E+02  0.00000000000E+00 0. -1.
         22    1    1    2    0    0 -0.30714929582E+02  0.42794550050E+02 -0.21386952320E+02  0.56852283531E+02  0.00000000000E+00 0. -1.
</event>
<event>
 6    1  0.1715574E-005  0.7761670E+02  0.7818608E-02  0.1389249E+00
          2   -1    0    0  502    0  0.00000000000E+00  0.00000000000E+00  0.84269413085E+03  0.84269413085E+03  0.00000000000E+00 0. -1.
          1   -1    0    0  501    0 -0.00000000000E+00 -0.00000000000E+00 -0.32546885941E+02  0.32546885941E+02  0.00000000000E+00 0. -1.
          2    1    1    2  501    0 -0.47640884292E+02  0.75091063318E+02  0.23692747031E+03  0.25306708169E+03  0.00000000000E+00 0. -1.
          1    1    1    2  502    0  0.19138471317E+02 -0.10554758993E+03  0.19739190990E+03  0.22465560513E+03  0.00000000000E+00 0. -1.
         22    1    1    2    0    0  0.34199302453E+02  0.55283166569E+02  0.36341435740E+03  0.36918263226E+03  0.00000000000E+00 0. -1.
         22    1    1    2    0    0 -0.56968894793E+01 -0.24826639952E+02  0.12413507290E+02  0.28335697703E+02  0.00000000000E+00 0.  1.
</event>
<event>
 6    1  0.1715574E-005  0.3910672E+02  0.7818608E-02  0.1558872E+00
          2   -1    0    0  502    0  0.00000000000E+00  0.00000000000E+00  0.22693926874E+03  0.22693926874E+03  0.00000000000E+00 0.  1.
          1   -1    0    0  501    0 -0.00000000000E+00 -0.00000000000E+00 -0.88568549813E+02  0.88568549813E+02  0.00000000000E+00 0. -1.
          2    1    1    2  501    0  0.13145586231E+02 -0.20665672559E+02  0.13212928912E+03  0.13438015294E+03  0.00000000000E+00 0.  1.
          1    1    1    2  502    0 -0.17075464732E+02  0.14305161264E+02 -0.42652935052E+02  0.48119455558E+02  0.00000000000E+00 0. -1.
         22    1    1    2    0    0  0.39324987739E+01  0.21649620147E+02 -0.38468817995E+02  0.44317271543E+02  0.00000000000E+00 0. -1.
         22    1    1    2    0    0 -0.26202730369E-02 -0.15289108852E+02  0.87363182852E+02  0.88690938514E+02  0.00000000000E+00 0.  1.
</event>
<event>
 6    1  0.1715574E-005  0.4632674E+02  0.7818608E-02  0.1535468E+00
          2   -1    0    0  502    0  0.00000000000E+00  0.00000000000E+00  0.37059691527E+03  0.37059691527E+03  0.00000000000E+00 0.  1.
          1   -1    0    0  501    0 -0.00000000000E+00 -0.00000000000E+00 -0.79949634181E+02  0.79949634181E+02  0.00000000000E+00 0.  1.
          2    1    1    2  501    0  0.33085228351E+02 -0.11690765018E+01  0.26596071248E+03  0.26801324530E+03  0.00000000000E+00 0.  1.
          1    1    1    2  502    0 -0.25565380345E+02  0.10587413907E+02 -0.34247851543E+02  0.44029505342E+02  0.00000000000E+00 0.  1.
         22    1    1    2    0    0  0.95837631395E+01 -0.15116804505E+02  0.95804558413E+02  0.97462196297E+02  0.00000000000E+00 0. -1.
         22    1    1    2    0    0 -0.17103611146E+02  0.56984670998E+01 -0.36870138259E+02  0.41041602512E+02  0.00000000000E+00 0.  1.
</event>
<event>
 6    1  0.1715574E-005  0.4311156E+02  0.7818608E-02  0.1540060E+00
          2   -1    0    0  502    0  0.00000000000E+00  0.00000000000E+00  0.19701346653E+03  0.19701346653E+03  0.00000000000E+00 0. -1.
          1   -1    0    0  501    0 -0.00000000000E+00 -0.00000000000E+00 -0.11894242899E+03  0.11894242899E+03  0.00000000000E+00 0. -1.
          2    1    1    2  501    0 -0.68356636445E+02 -0.10904342831E+02  0.65556831068E+02  0.95337466603E+02  0.00000000000E+00 0. -1.
          1    1    1    2  502    0  0.82507162085E+02 -0.17088930424E+02 -0.28838307506E+02  0.89056787042E+02  0.00000000000E+00 0. -1.
         22    1    1    2    0    0 -0.16017976040E+02  0.16812335475E+02  0.84146442865E+02  0.87291775256E+02  0.00000000000E+00 0. -1.
         22    1    1    2    0    0  0.18674503988E+01  0.11180937780E+02 -0.42793928889E+02  0.44269866618E+02  0.00000000000E+00 0. -1.
</event>
<event>
 6    1  0.1715574E-005  0.5373027E+02  0.7818608E-02  0.1429756E+00
          2   -1    0    0  502    0  0.00000000000E+00  0.00000000000E+00  0.11289108192E+03  0.11289108192E+03  0.00000000000E+00 0.  1.
          1   -1    0    0  501    0 -0.00000000000E+00 -0.00000000000E+00 -0.18970960902E+03  0.18970960902E+03  0.00000000000E+00 0.  1.
          2    1    1    2  501    0 -0.73196572697E+01 -0.25629445861E+02  0.59915243552E+02  0.65576537630E+02  0.00000000000E+00 0.  1.
          1    1    1    2  502    0  0.22495522695E+01  0.31308978411E+02 -0.10421506860E+03  0.10883975899E+03  0.00000000000E+00 0.  1.
         22    1    1    2    0    0 -0.58991848515E+01  0.18453444827E+02 -0.75356921065E+02  0.77807426126E+02  0.00000000000E+00 0.  1.
         22    1    1    2    0    0  0.10969289852E+02 -0.24132977378E+02  0.42838219010E+02  0.50376968199E+02  0.00000000000E+00 0.  1.
</event>
<event>
 6    1  0.1715574E-005  0.5561254E+02  0.7818608E-02  0.1421677E+00
          2   -1    0    0  502    0  0.00000000000E+00  0.00000000000E+00  0.23208842514E+03  0.23208842514E+03  0.00000000000E+00 0. -1.
          1   -1    0    0  501    0 -0.00000000000E+00 -0.00000000000E+00 -0.39812489953E+03  0.39812489953E+03  0.00000000000E+00 0.  1.
          2    1    1    2  501    0 -0.54869848886E+01 -0.38952602988E+02  0.16707564186E+03  0.17164405724E+03  0.00000000000E+00 0. -1.
          1    1    1    2  502    0  0.61651218278E+01  0.35215757081E+02 -0.33639149202E+03  0.33828596509E+03  0.00000000000E+00 0.  1.
         22    1    1    2    0    0 -0.78461258826E+01 -0.97607206675E+01  0.60126934179E+02  0.61417274223E+02  0.00000000000E+00 0. -1.
         22    1    1    2    0    0  0.71679889434E+01  0.13497566575E+02 -0.56847558414E+02  0.58866028120E+02  0.00000000000E+00 0. -1.
</event>
<event>
 6    1  0.1715574E-005  0.1071829E+03  0.7818608E-02  0.1285454E+00
          2   -1    0    0  502    0  0.00000000000E+00  0.00000000000E+00  0.11005399772E+03  0.11005399772E+03  0.00000000000E+00 0. -1.
          1   -1    0    0  501    0 -0.00000000000E+00 -0.00000000000E+00 -0.53228677438E+03  0.53228677438E+03  0.00000000000E+00 0. -1.
          2    1    1    2  501    0  0.13459694239E+02  0.18567421985E+03 -0.19378618923E+03  0.26871763326E+03  0.00000000000E+00 0. -1.
          1    1    1    2  502    0  0.62037360116E+02 -0.11973675907E+03 -0.79065671093E+02  0.15632308169E+03  0.00000000000E+00 0. -1.
         22    1    1    2    0    0 -0.21055495230E+02 -0.77510342494E+02 -0.13921191222E+03  0.16072070053E+03  0.00000000000E+00 0. -1.
         22    1    1    2    0    0 -0.54441559125E+02  0.11572881714E+02 -0.10169004117E+02  0.56579356622E+02  0.00000000000E+00 0. -1.
</event>
<event>
 6    1  0.1715574E-005  0.6738804E+02  0.7818608E-02  0.1373722E+00
          2   -1    0    0  502    0  0.00000000000E+00  0.00000000000E+00  0.17477150937E+03  0.17477150937E+03  0.00000000000E+00 0. -1.
          1   -1    0    0  501    0 -0.00000000000E+00 -0.00000000000E+00 -0.13446960824E+03  0.13446960824E+03  0.00000000000E+00 0.  1.
          2    1    1    2  501    0 -0.36830234880E+02  0.14743158352E+02  0.97399872138E+02  0.10516920658E+03  0.00000000000E+00 0. -1.
          1    1    1    2  502    0  0.36248692896E+02 -0.21133103731E+02 -0.70279818607E+02  0.81852481413E+02  0.00000000000E+00 0.  1.
         22    1    1    2    0    0 -0.22420840218E+02 -0.41036887824E+01  0.62648484196E+02  0.66666085154E+02  0.00000000000E+00 0. -1.
         22    1    1    2    0    0  0.23002382203E+02  0.10493634161E+02 -0.49466636598E+02  0.55553344465E+02  0.00000000000E+00 0.  1.
</event>
<event>
 6    1  0.1715574E-005  0.5896032E+02  0.7818608E-02  0.1412496E+00
          2   -1    0    0  502    0  0.00000000000E+00  0.00000000000E+00  0.69879679378E+02  0.69879679378E+02  0.00000000000E+00 0.  1.
          1   -1    0    0  501    0 -0.00000000000E+00 -0.00000000000E+00 -0.20058866009E+03  0.20058866009E+03  0.00000000000E+00 0. -1.
          2    1    1    2  501    0 -0.73636494637E+00  0.33632581957E+02  0.33824231351E+02  0.47705046157E+02  0.00000000000E+00 0.  1.
          1    1    1    2  502    0  0.93771395443E+01 -0.21938300868E+02 -0.38970812437E+02  0.45694026010E+02  0.00000000000E+00 0. -1.
         22    1    1    2    0    0 -0.67850414094E+01  0.14837280963E+02  0.21854309151E+02  0.27272559869E+02  0.00000000000E+00 0. -1.
         22    1    1    2    0    0 -0.18557331885E+01 -0.26531562051E+02 -0.14741670878E+03  0.14979670743E+03  0.00000000000E+00 0.  1.
</event>
<event>
 6    1  0.1715574E-005  0.8638522E+02  0.7818608E-02  0.1340477E+00
          2   -1    0    0  502    0  0.00000000000E+00  0.00000000000E+00  0.84935419348E+02  0.84935419348E+02  0.00000000000E+00 0. -1.
          1   -1    0    0  501    0 -0.00000000000E+00 -0.00000000000E+00 -0.27079844241E+03  0.27079844241E+03  0.00000000000E+00 0. -1.
          2    1    1    2  501    0 -0.12522776676E+02  0.18785165839E+02  0.47622828994E+02  0.52703284837E+02  0.00000000000E+00 0. -1.
          1    1    1    2  502    0 -0.17275783814E+02 -0.26970292962E+02 -0.14878563896E+03  0.15219400700E+03  0.00000000000E+00 0. -1.
         22    1    1    2    0    0 -0.19784111097E+02 -0.29832353112E+01 -0.96589158846E+02  0.98639628707E+02  0.00000000000E+00 0.  1.
         22    1    1    2    0    0  0.49582671586E+02  0.11168362434E+02  0.11888945743E+02  0.52196941212E+02  0.00000000000E+00 0.  1.
</event>
<event>
 6    1  0.1715574E-005  0.2111447E+03  0.7818608E-02  0.1148819E+00
          2   -1    0    0  502    0  0.00000000000E+00  0.00000000000E+00  0.25284038846E+03  0.25284038846E+03  0.00000000000E+00 0.  1.
          1   -1    0    0  501    0 -0.00000000000E+00 -0.00000000000E+00 -0.14650926086E+03  0.14650926086E+03  0.00000000000E+00 0.  1.
          2    1    1    2  501    0 -0.86575941344E+02 -0.11521670675E+03  0.23226398652E+02  0.14597858997E+03  0.00000000000E+00 0.  1.
          1    1    1    2  502    0  0.19952431528E+02  0.51349008966E+02  0.84987804577E+02  0.10128053699E+03  0.00000000000E+00 0.  1.
         22    1    1    2    0    0  0.84185618507E+02  0.75111507898E+02 -0.30321243843E+02  0.11682608788E+03  0.00000000000E+00 0.  1.
         22    1    1    2    0    0 -0.17562108691E+02 -0.11243810113E+02  0.28438168221E+02  0.35264434481E+02  0.00000000000E+00 0.  1.
</event>
<event>
 6    1  0.1715574E-005  0.1498342E+03  0.7818608E-02  0.1201050E+00
          2   -1    0    0  502    0  0.00000000000E+00  0.00000000000E+00  0.12542330598E+03  0.12542330598E+03  0.00000000000E+00 0.  1.
          1   -1    0    0  501    0 -0.00000000000E+00 -0.00000000000E+00 -0.25782669067E+03  0.25782669067E+03  0.00000000000E+00 0.  1.
          2    1    1    2  501    0 -0.27466995358E+02  0.37882120266E+02  0.52495538055E+01  0.47085546456E+02  0.00000000000E+00 0.  1.
          1    1    1    2  502    0  0.10154921229E+03 -0.77675314027E+02 -0.12884013656E+03  0.18150889156E+03  0.00000000000E+00 0.  1.
         22    1    1    2    0    0  0.15739809006E+02 -0.62939233040E+01 -0.44467390271E+02  0.47588904753E+02  0.00000000000E+00 0. -1.
         22    1    1    2    0    0 -0.89822025942E+02  0.46087117065E+02  0.35654588331E+02  0.10706665388E+03  0.00000000000E+00 0.  1.
</event>
<event>
 6    1  0.1715574E-005  0.1481421E+03  0.7818608E-02  0.1221262E+00
          2   -1    0    0  502    0  0.00000000000E+00  0.00000000000E+00  0.17938322735E+02  0.17938322735E+02  0.00000000000E+00 0.  1.
          1   -1    0    0  501    0 -0.00000000000E+00 -0.00000000000E+00 -0.91032396685E+03  0.91032396685E+03  0.00000000000E+00 0.  1.
          2    1    1    2  501    0 -0.34738438487E+01  0.40441946152E+02 -0.36932195744E+03  0.37154586103E+03  0.00000000000E+00 0.  1.
          1    1    1    2  502    0 -0.38103226555E+02 -0.22771068103E+02 -0.23017371057E+03  0.23441483411E+03  0.00000000000E+00 0.  1.
         22    1    1    2    0    0  0.39297184867E+01 -0.55118534661E+02 -0.24380880024E+03  0.24999245313E+03  0.00000000000E+00 0.  1.
         22    1    1    2    0    0  0.37647351917E+02  0.37447656612E+02 -0.49081175872E+02  0.72309141311E+02  0.00000000000E+00 0.  1.
</event>
<event>
 6    1  0.1715574E-005  0.5067997E+02  0.7818608E-02  0.1522596E+00
          2   -1    0    0  502    0  0.00000000000E+00  0.00000000000E+00  0.17279624710E+03  0.17279624710E+03  0.00000000000E+00 0.  1.
          1   -1    0    0  501    0 -0.00000000000E+00 -0.00000000000E+00 -0.11037784113E+03  0.11037784113E+03  0.00000000000E+00 0. -1.
          2    1    1    2  501    0 -0.64655933162E+01  0.37294696499E+02  0.11114240812E+03  0.11741095846E+03  0.00000000000E+00 0.  1.
          1    1    1    2  502    0  0.45915558900E+01 -0.35501659495E+02 -0.20053489783E+02  0.41031605682E+02  0.00000000000E+00 0. -1.
         22    1    1    2    0    0  0.34563646808E+01  0.14335097676E+02  0.46008814445E+02  0.48314102381E+02  0.00000000000E+00 0. -1.
         22    1    1    2    0    0 -0.15823272547E+01 -0.16128134680E+02 -0.74679326814E+02  0.76417421712E+02  0.00000000000E+00 0. -1.
</event>
<event>
 6    1  0.1715574E-005  0.1216590E+03  0.7818608E-02  0.1259753E+00
          2   -1    0    0  502    0  0.00000000000E+00  0.00000000000E+00  0.70578927882E+02  0.70578927882E+02  0.00000000000E+00 0.  1.
          1   -1    0    0  501    0 -0.00000000000E+00 -0.00000000000E+00 -0.35954082220E+03  0.35954082220E+03  0.00000000000E+00 0. -1.
          2    1    1    2  501    0  0.25622185061E+02 -0.84409711142E+01 -0.39230658023E+01  0.27260535687E+02  0.00000000000E+00 0.  1.
          1    1    1    2  502    0  0.45210914724E+02  0.39019006223E+02 -0.24453556066E+03  0.25172236707E+03  0.00000000000E+00 0. -1.
         22    1    1    2    0    0 -0.79638330647E+02 -0.49767513922E+02  0.11880382760E+02  0.94658399758E+02  0.00000000000E+00 0.  1.
         22    1    1    2    0    0  0.88052308617E+01  0.19189478813E+02 -0.52383650623E+02  0.56478447573E+02  0.00000000000E+00 0. -1.
</event>
<event>
 6    1  0.1715574E-005  0.5546853E+02  0.7818608E-02  0.1422510E+00
          2   -1    0    0  502    0  0.00000000000E+00  0.00000000000E+00  0.32943660586E+02  0.32943660586E+02  0.00000000000E+00 0.  1.
          1   -1    0    0  501    0 -0.00000000000E+00 -0.00000000000E+00 -0.31628987991E+03  0.31628987991E+03  0.00000000000E+00 0. -1.
          2    1    1    2  501    0  0.22012192965E+02  0.55589285423E+01 -0.10268657665E+02  0.24917537115E+02  0.00000000000E+00 0.  1.
          1    1    1    2  502    0 -0.20158896657E+02  0.55659832803E+00 -0.13597485167E+03  0.13746218099E+03  0.00000000000E+00 0. -1.
         22    1    1    2    0    0  0.24383011975E+02  0.10267521432E+02  0.15825712283E+02  0.30828662615E+02  0.00000000000E+00 0.  1.
         22    1    1    2    0    0 -0.26236308282E+02 -0.16383048303E+02 -0.15292842227E+03  0.15602515977E+03  0.00000000000E+00 0. -1.
</event>
<event>
 6    1  0.1715574E-005  0.7568311E+02  0.7818608E-02  0.1401113E+00
          2   -1    0    0  502    0  0.00000000000E+00  0.00000000000E+00  0.20946016180E+03  0.20946016180E+03  0.00000000000E+00 0. -1.
          1   -1    0    0  501    0 -0.00000000000E+00 -0.00000000000E+00 -0.14622770446E+03  0.14622770446E+03  0.00000000000E+00 0. -1.
          2    1    1    2  501    0  0.45877382893E+02  0.21526182905E+02  0.57301378813E+02  0.76495482386E+02  0.00000000000E+00 0. -1.
          1    1    1    2  502    0 -0.53714592890E+02 -0.10152689780E+02 -0.10059603360E+03  0.11448972258E+03  0.00000000000E+00 0. -1.
         22    1    1    2    0    0  0.28357099800E+02 -0.11574784536E+01  0.12930774291E+03  0.13238563835E+03  0.00000000000E+00 0. -1.
         22    1    1    2    0    0 -0.20519889803E+02 -0.10216014672E+02 -0.22780630780E+02  0.32317022945E+02  0.00000000000E+00 0.  1.
</event>
<event>
 6    1  0.1715574E-005  0.7142859E+02  0.7818608E-02  0.1384126E+00
          2   -1    0    0  502    0  0.00000000000E+00  0.00000000000E+00  0.42169444267E+03  0.42169444267E+03  0.00000000000E+00 0.  1.
          1   -1    0    0  501    0 -0.00000000000E+00 -0.00000000000E+00 -0.45495090526E+02  0.45495090526E+02  0.00000000000E+00 0.  1.
          2    1    1    2  501    0 -0.27284278460E+01  0.20445222782E+02  0.78594039539E+01  0.22073098642E+02  0.00000000000E+00 0.  1.
          1    1    1    2  502    0  0.70209297699E+02 -0.15177717384E+02  0.32175654778E+02  0.78708203822E+02  0.00000000000E+00 0.  1.
         22    1    1    2    0    0  0.71835304385E+01  0.22170548125E+02  0.25532253731E+01  0.23444728054E+02  0.00000000000E+00 0.  1.
         22    1    1    2    0    0 -0.74664400292E+02 -0.27438053523E+02  0.33361106804E+03  0.34296350268E+03  0.00000000000E+00 0.  1.
</event>
<event>
 6    1  0.1715574E-005  0.4549333E+02  0.7818608E-02  0.1480832E+00
          2   -1    0    0  502    0  0.00000000000E+00  0.00000000000E+00  0.28426745460E+03  0.28426745460E+03  0.00000000000E+00 0.  1.
          1   -1    0    0  501    0 -0.00000000000E+00 -0.00000000000E+00 -0.25298586499E+03  0.25298586499E+03  0.00000000000E+00 0. -1.
          2    1    1    2  501    0 -0.24666682575E+02 -0.86863043001E+02  0.21826171208E+03  0.23620289674E+03  0.00000000000E+00 0.  1.
          1    1    1    2  502    0  0.31399090888E+01  0.84904623048E+02 -0.14682971849E+03  0.16963967777E+03  0.00000000000E+00 0. -1.
         22    1    1    2    0    0  0.68737752437E+01  0.16712355840E+02 -0.82380282454E+02  0.84338974152E+02  0.00000000000E+00 0. -1.
         22    1    1    2    0    0  0.14652998242E+02 -0.14753935887E+02  0.42229878473E+02  0.47071770919E+02  0.00000000000E+00 0. -1.
</event>
<event>
 6    1  0.1715574E-005  0.7056325E+02  0.7818608E-02  0.1418280E+00
          2   -1    0    0  502    0  0.00000000000E+00  0.00000000000E+00  0.16723508572E+03  0.16723508572E+03  0.00000000000E+00 0.  1.
          1   -1    0    0  501    0 -0.00000000000E+00 -0.00000000000E+00 -0.74495728406E+02  0.74495728406E+02  0.00000000000E+00 0.  1.
          2    1    1    2  501    0 -0.43388667637E+02 -0.27947108869E+02  0.25628219574E+02  0.57623111787E+02  0.00000000000E+00 0.  1.
          1    1    1    2  502    0  0.21281417477E+02  0.13000064320E+02 -0.19614806670E+02  0.31727606951E+02  0.00000000000E+00 0.  1.
         22    1    1    2    0    0 -0.24074906516E+02 -0.11738984690E+02  0.94731047308E+02  0.98444787619E+02  0.00000000000E+00 0.  1.
         22    1    1    2    0    0  0.46182156675E+02  0.26686029239E+02 -0.80051028986E+01  0.53935307769E+02  0.00000000000E+00 0.  1.
</event>
<event>
 6    1  0.1715574E-005  0.1005692E+03  0.7818608E-02  0.1281417E+00
          2   -1    0    0  502    0  0.00000000000E+00  0.00000000000E+00  0.30002719812E+02  0.30002719812E+02  0.00000000000E+00 0. -1.
          1   -1    0    0  501    0 -0.00000000000E+00 -0.00000000000E+00 -0.33245948346E+03  0.33245948346E+03  0.00000000000E+00 0. -1.
          2    1    1    2  501    0 -0.88851065680E+01  0.26089946409E+02 -0.22276446559E+02  0.35438263129E+02  0.00000000000E+00 0. -1.
          1    1    1    2  502    0  0.34153140808E+02 -0.29374964239E+02 -0.64620146115E+02  0.78772386247E+02  0.00000000000E+00 0. -1.
         22    1    1    2    0    0  0.35825956194E+02 -0.33528773532E+02 -0.11434109316E+03  0.12442493069E+03  0.00000000000E+00 0.  1.
         22    1    1    2    0    0 -0.61093990434E+02  0.36813791362E+02 -0.10121907781E+03  0.12382662321E+03  0.00000000000E+00 0. -1.
</event>
<event>
 6    1  0.1715574E-005  0.2309200E+03  0.7818608E-02  0.1131095E+00
          2   -1    0    0  502    0  0.00000000000E+00  0.00000000000E+00  0.30120214716E+03  0.30120214716E+03  0.00000000000E+00 0.  1.
          1   -1    0    0  501    0 -0.00000000000E+00 -0.00000000000E+00 -0.17993819585E+03  0.17993819585E+03  0.00000000000E+00 0.  1.
          2    1    1    2  501    0 -0.13774131094E+03 -0.12090545624E+03  0.12796015188E+03  0.22352762370E+03  0.00000000000E+00 0.  1.
          1    1    1    2  502    0 -0.66877572007E+01  0.53573694149E+02  0.10355472853E+02  0.54973653864E+02  0.00000000000E+00 0.  1.
         22    1    1    2    0    0  0.15087897681E+03  0.86642477646E+02 -0.32608908475E+02  0.17701617296E+03  0.00000000000E+00 0.  1.
         22    1    1    2    0    0 -0.64499086734E+01 -0.19310715550E+02  0.15557235055E+02  0.25622892489E+02  0.00000000000E+00 0.  1.
</event>
<event>
 6    1  0.1715574E-005  0.4133389E+02  0.7818608E-02  0.1587306E+00
          2   -1    0    0  502    0  0.00000000000E+00  0.00000000000E+00  0.24699792058E+03  0.24699792058E+03  0.00000000000E+00 0.  1.
          1   -1    0    0  501    0 -0.00000000000E+00 -0.00000000000E+00 -0.91698258453E+02  0.91698258453E+02  0.00000000000E+00 0.  1.
          2    1    1    2  501    0 -0.29159400579E+02  0.18421402112E+02  0.16593209111E+03  0.16947884103E+03  0.00000000000E+00 0.  1.
          1    1    1    2  502    0  0.20767766469E+02  0.30037844610E+01 -0.30105001922E+02  0.36696511904E+02  0.00000000000E+00 0.  1.
         22    1    1    2    0    0 -0.68447115263E+01 -0.11140456098E+02  0.73912987886E+02  0.75060572980E+02  0.00000000000E+00 0.  1.
         22    1    1    2    0    0  0.15236345637E+02 -0.10284730475E+02 -0.54440414942E+02  0.57460253118E+02  0.00000000000E+00 0.  1.
</event>
<event>
 6    1  0.1715574E-005  0.1234033E+03  0.7818608E-02  0.1244983E+00
          2   -1    0    0  502    0  0.00000000000E+00  0.00000000000E+00  0.46927945935E+02  0.46927945935E+02  0.00000000000E+00 0.  1.
          1   -1    0    0  501    0 -0.00000000000E+00 -0.00000000000E+00 -0.28544520191E+03  0.28544520191E+03  0.00000000000E+00 0.  1.
          2    1    1    2  501    0  0.65688826486E+01 -0.62155248178E+02 -0.79909783329E+02  0.10144948776E+03  0.00000000000E+00 0.  1.
          1    1    1    2  502    0  0.93606101192E+01  0.22586137072E+02 -0.25244533438E+01  0.24579004746E+02  0.00000000000E+00 0.  1.
         22    1    1    2    0    0 -0.54084341507E+02 -0.13184441228E+02 -0.27215554748E+02  0.61964763430E+02  0.00000000000E+00 0.  1.
         22    1    1    2    0    0  0.38154848739E+02  0.52753552335E+02 -0.12886746456E+03  0.14437989191E+03  0.00000000000E+00 0.  1.
</event>
<event>
 6    1  0.1715574E-005  0.9442740E+02  0.7818608E-02  0.1293141E+00
          2   -1    0    0  502    0  0.00000000000E+00  0.00000000000E+00  0.93722546751E+03  0.93722546751E+03  0.00000000000E+00 0.  1.
          1   -1    0    0  501    0 -0.00000000000E+00 -0.00000000000E+00 -0.19001507512E+03  0.19001507512E+03  0.00000000000E+00 0.  1.
          2    1    1    2  501    0  0.79648082698E+02 -0.13152379269E+02  0.86054959313E+03  0.86432771817E+03  0.00000000000E+00 0.  1.
          1    1    1    2  502    0 -0.62173450415E+02  0.22391861224E+02 -0.12112177117E+03  0.13797614590E+03  0.00000000000E+00 0.  1.
         22    1    1    2    0    0  0.94769976928E+01 -0.64361800698E+01  0.62678760583E+02  0.63717069356E+02  0.00000000000E+00 0.  1.
         22    1    1    2    0    0 -0.26951629976E+02 -0.28033018848E+01 -0.54896190151E+02  0.61219609219E+02  0.00000000000E+00 0.  1.
</event>
<event>
 6    1  0.1715574E-005  0.6632721E+02  0.7818608E-02  0.1435423E+00
          2   -1    0    0  502    0  0.00000000000E+00  0.00000000000E+00  0.21619997844E+03  0.21619997844E+03  0.00000000000E+00 0. -1.
          1   -1    0    0  501    0 -0.00000000000E+00 -0.00000000000E+00 -0.12164035207E+03  0.12164035207E+03  0.00000000000E+00 0. -1.
          2    1    1    2  501    0 -0.36254179624E+02  0.20984426939E+01 -0.36353746508E+02  0.51384471264E+02  0.00000000000E+00 0. -1.
          1    1    1    2  502    0 -0.11102102384E+02  0.47023872574E+02  0.13988764415E+03  0.14799680488E+03  0.00000000000E+00 0. -1.
         22    1    1    2    0    0  0.20581083647E+02  0.13908477632E+02  0.44908391032E+02  0.51320467059E+02  0.00000000000E+00 0. -1.
         22    1    1    2    0    0  0.26775198361E+02 -0.63030792900E+02 -0.53882662301E+02  0.87138587305E+02  0.00000000000E+00 0. -1.
</event>
<event>
 6    1  0.1715574E-005  0.1123516E+03  0.7818608E-02  0.1286276E+00
          2   -1    0    0  502    0  0.00000000000E+00  0.00000000000E+00  0.31608830021E+02  0.31608830021E+02  0.00000000000E+00 0.  1.
          1   -1    0    0  501    0 -0.00000000000E+00 -0.00000000000E+00 -0.10580952662E+04  0.10580952662E+04  0.00000000000E+00 0.  1.
          2    1    1    2  501    0  0.72729247863E+02 -0.43869387410E+02 -0.21559861667E+03  0.23172576499E+03  0.00000000000E+00 0.  1.
          1    1    1    2  502    0 -0.99516671833E+02  0.22462844436E+02 -0.59772332701E+03  0.60636731690E+03  0.00000000000E+00 0.  1.
         22    1    1    2    0    0 -0.27703038535E+02 -0.10142409778E+02 -0.17608572946E+03  0.17853994214E+03  0.00000000000E+00 0.  1.
         22    1    1    2    0    0  0.54490462504E+02  0.31548952752E+02 -0.37078763038E+02  0.73071072197E+02  0.00000000000E+00 0.  1.
</event>
<event>
 6    1  0.1715574E-005  0.5858354E+02  0.7818608E-02  0.1407005E+00
          2   -1    0    0  502    0  0.00000000000E+00  0.00000000000E+00  0.27122078197E+03  0.27122078197E+03  0.00000000000E+00 0.  1.
          1   -1    0    0  501    0 -0.00000000000E+00 -0.00000000000E+00 -0.10231913006E+03  0.10231913006E+03  0.00000000000E+00 0. -1.
          2    1    1    2  501    0 -0.33364106557E+02  0.13307080949E+02  0.15529798050E+03  0.15939794464E+03  0.00000000000E+00 0.  1.
          1    1    1    2  502    0  0.41046356738E+02 -0.15850426747E+02 -0.57765310413E+02  0.72614533784E+02  0.00000000000E+00 0. -1.
         22    1    1    2    0    0 -0.13889561917E+02  0.13811383350E+02  0.10432582544E+03  0.10614872630E+03  0.00000000000E+00 0. -1.
         22    1    1    2    0    0  0.62073117359E+01 -0.11268037552E+02 -0.32956843620E+02  0.35378707306E+02  0.00000000000E+00 0. -1.
</event>
<event>
 6    1  0.1715574E-005  0.1393821E+03  0.7818608E-02  0.1214633E+00
          2   -1    0    0  502    0  0.00000000000E+00  0.00000000000E+00  0.15316632534E+03  0.15316632534E+03  0.00000000000E+00 0. -1.
          1   -1    0    0  501    0 -0.00000000000E+00 -0.00000000000E+00 -0.36352306880E+03  0.36352306880E+03  0.00000000000E+00 0.  1.
          2    1    1    2  501    0 -0.21644324024E+02 -0.11258302935E+03  0.96640373121E+02  0.14994257893E+03  0.00000000000E+00 0. -1.
          1    1    1    2  502    0 -0.51594296561E+00  0.59186272337E+02 -0.11337090990E+03  0.12789153311E+03  0.00000000000E+00 0.  1.
         22    1    1    2    0    0 -0.36910798712E+01 -0.21326855217E+02  0.73713367633E+01  0.22864720198E+02  0.00000000000E+00 0.  1.
         22    1    1    2    0    0  0.25851346861E+02  0.74723612228E+02 -0.20099754345E+03  0.21599056190E+03  0.00000000000E+00 0.  1.
</event>
<event>
 6    1  0.1715574E-005  0.8953973E+02  0.7818608E-02  0.1352155E+00
          2   -1    0    0  502    0  0.00000000000E+00  0.00000000000E+00  0.24412732971E+03  0.24412732971E+03  0.00000000000E+00 0.  1.
          1   -1    0    0  501    0 -0.00000000000E+00 -0.00000000000E+00 -0.62871198003E+02  0.62871198003E+02  0.00000000000E+00 0.  1.
          2    1    1    2  501    0 -0.72577898803E+02  0.15913903803E+02  0.89751147312E+02  0.11651640302E+03  0.00000000000E+00 0.  1.
          1    1    1    2  502    0  0.30930973543E+02 -0.75752787884E+01 -0.24851097480E-01  0.31845103087E+02  0.00000000000E+00 0.  1.
         22    1    1    2    0    0 -0.42658000936E+01  0.38010765159E+02  0.84829359829E+02  0.93053939236E+02  0.00000000000E+00 0.  1.
         22    1    1    2    0    0  0.45912725354E+02 -0.46349390174E+02  0.67004756624E+01  0.65583082369E+02  0.00000000000E+00 0.  1.
</event>
<event>
 6    1  0.1715574E-005  0.4922759E+02  0.7818608E-02  0.1450820E+00
          2   -1    0    0  502    0  0.00000000000E+00  0.00000000000E+00  0.16041872587E+03  0.16041872587E+03  0.00000000000E+00 0.  1.
          1   -1    0    0  501    0 -0.00000000000E+00 -0.00000000000E+00 -0.23859600116E+03  0.23859600116E+03  0.00000000000E+00 0.  1.
          2    1    1    2  501    0 -0.28463456258E+02 -0.23718879330E+02  0.12961423399E+03  0.13480579821E+03  0.00000000000E+00 0.  1.
          1    1    1    2  502    0  0.18555054897E+02  0.14916333233E+02 -0.95270415362E+02  0.98199995431E+02  0.00000000000E+00 0.  1.
         22    1    1    2    0    0  0.13560830573E+02  0.19492375930E+02 -0.13700345522E+03  0.13904601968E+03  0.00000000000E+00 0.  1.
         22    1    1    2    0    0 -0.36524292116E+01 -0.10689829833E+02  0.24482361306E+02  0.26962913717E+02  0.00000000000E+00 0. -1.
</event>
<event>
 6    1  0.1715574E-005  0.8120635E+02  0.7818608E-02  0.1335453E+00
          2   -1    0    0  502    0  0.00000000000E+00  0.00000000000E+00  0.25425913415E+03  0.25425913415E+03  0.00000000000E+00 0. -1.
          1   -1    0    0  501    0 -0.00000000000E+00 -0.00000000000E+00 -0.86578868857E+02  0.86578868857E+02  0.00000000000E+00 0. -1.
          2    1    1    2  501    0 -0.60053211026E+01 -0.50776921631E+02  0.11914157510E+03  0.12964981515E+03  0.00000000000E+00 0. -1.
          1    1    1    2  502    0 -0.52005210372E+02  0.44984355631E+02 -0.58845398317E+00  0.68763947206E+02  0.00000000000E+00 0. -1.
         22    1    1    2    0    0  0.52710852312E+02  0.43538068256E+02 -0.12947113782E+02  0.69581787087E+02  0.00000000000E+00 0. -1.
         22    1    1    2    0    0  0.52996791621E+01 -0.37745502256E+02  0.62074257960E+02  0.72842453563E+02  0.00000000000E+00 0. -1.
</event>
<event>
 6    1  0.1922167E-005  0.1484788E+03  0.7818608E-02  0.1202786E+00
          2   -1    0    0  502    0  0.00000000000E+00  0.00000000000E+00  0.41308095622E+03  0.41308095622E+03  0.00000000000E+00 0.  1.
          1   -1    0    0  501    0 -0.00000000000E+00 -0.00000000000E+00 -0.19892495450E+03  0.19892495450E+03  0.00000000000E+00 0. -1.
          2    1    1    2  501    0  0.22241512497E+02  0.86057221441E+02  0.19257562864E+03  0.21209880477E+03  0.00000000000E+00 0.  1.
          1    1    1    2  502    0 -0.50090086568E+02 -0.12574857822E+03 -0.13635850438E+03  0.19213371233E+03  0.00000000000E+00 0. -1.
         22    1    1    2    0    0 -0.32957103788E+00 -0.10749070695E+02 -0.18894375822E+02  0.21740482414E+02  0.00000000000E+00 0. -1.
         22    1    1    2    0    0  0.28178145110E+02  0.50440427478E+02  0.17683325328E+03  0.18603291121E+03  0.00000000000E+00 0.  1.
</event>
<event>
 6    1  0.2283841E-005  0.8771026E+02  0.7818608E-02  0.1308780E+00
          2   -1    0    0  502    0  0.00000000000E+00  0.00000000000E+00  0.31964531027E+03  0.31964531027E+03  0.00000000000E+00 0.  1.
          1   -1    0    0  501    0 -0.00000000000E+00 -0.00000000000E+00 -0.20757407212E+03  0.20757407212E+03  0.00000000000E+00 0.  1.
          2    1    1    2  501    0  0.37989739345E+02 -0.63546970941E+02  0.24070569714E+03  0.25183460931E+03  0.00000000000E+00 0.  1.
          1    1    1    2  502    0 -0.23564176217E+02  0.61063971665E+02 -0.13093019317E+03  0.14637894152E+03  0.00000000000E+00 0.  1.
         22    1    1    2    0    0  0.12997664490E+01 -0.12029919827E+02  0.63253900484E+02  0.64400809702E+02  0.00000000000E+00 0.  1.
         22    1    1    2    0    0 -0.15725329578E+02  0.14512919103E+02 -0.60958166298E+02  0.64605021861E+02  0.00000000000E+00 0.  1.
</event>
<event>
 6    1  0.2817187E-005  0.2652556E+03  0.7818608E-02  0.1200176E+00
          2   -1    0    0  502    0  0.00000000000E+00  0.00000000000E+00  0.21206030363E+04  0.21206030363E+04  0.00000000000E+00 0. -1.
          1   -1    0    0  501    0 -0.00000000000E+00 -0.00000000000E+00 -0.17235027463E+03  0.17235027463E+03  0.00000000000E+00 0.  1.
          2    1    1    2  501    0  0.90360068203E+02 -0.23331656956E+03  0.19032611483E+04  0.19196365704E+04  0.00000000000E+00 0. -1.
          1    1    1    2  502    0 -0.85186293199E+02  0.21942150898E+03 -0.16167458672E+02  0.23593196026E+03  0.00000000000E+00 0.  1.
         22    1    1    2    0    0 -0.20819713476E+02  0.17659952045E+02 -0.32447558881E+02  0.42404934297E+02  0.00000000000E+00 0.  1.
         22    1    1    2    0    0  0.15645938472E+02 -0.37648914660E+01  0.93606630952E+02  0.94979846055E+02  0.00000000000E+00 0. -1.
</event>
<event>
 6    1  0.1715574E-005  0.8143439E+02  0.7818608E-02  0.1326183E+00
          2   -1    0    0  502    0  0.00000000000E+00  0.00000000000E+00  0.77474610100E+02  0.77474610100E+02  0.00000000000E+00 0. -1.
          1   -1    0    0  501    0 -0.00000000000E+00 -0.00000000000E+00 -0.20970717482E+03  0.20970717482E+03  0.00000000000E+00 0.  1.
          2    1    1    2  501    0 -0.40092740931E+02  0.17393238992E+02  0.32666486169E+02  0.54562367586E+02  0.00000000000E+00 0. -1.
          1    1    1    2  502    0  0.31547161616E+02  0.21432613256E+01 -0.57668021303E+02  0.65767907494E+02  0.00000000000E+00 0.  1.
         22    1    1    2    0    0 -0.34800506076E+02  0.36294406104E+01  0.12714015644E+02  0.37227600729E+02  0.00000000000E+00 0. -1.
         22    1    1    2    0    0  0.43346085390E+02 -0.23165940928E+02 -0.11994504523E+03  0.12962390911E+03  0.00000000000E+00 0.  1.
</event>
<event>
 6    1  0.1715574E-005  0.1984896E+03  0.7818608E-02  0.1151553E+00
          2   -1    0    0  502    0  0.00000000000E+00  0.00000000000E+00  0.75583130801E+03  0.75583130801E+03  0.00000000000E+00 0. -1.
          1   -1    0    0  501    0 -0.00000000000E+00 -0.00000000000E+00 -0.53200954984E+02  0.53200954984E+02  0.00000000000E+00 0. -1.
          2    1    1    2  501    0 -0.64392447279E+02 -0.25130843850E+02  0.12260099422E+03  0.14074427293E+03  0.00000000000E+00 0. -1.
          1    1    1    2  502    0  0.13128932556E+03  0.10544219884E+03  0.27335478419E+03  0.32105728826E+03  0.00000000000E+00 0. -1.
         22    1    1    2    0    0  0.17761265376E+02  0.12029771433E+02  0.72302856261E+01  0.22637468470E+02  0.00000000000E+00 0.  1.
         22    1    1    2    0    0 -0.84658143661E+02 -0.92341126428E+02  0.29944428899E+03  0.32459323334E+03  0.00000000000E+00 0. -1.
</event>
<event>
 6    1  0.1715574E-005  0.7742141E+02  0.7818608E-02  0.1426730E+00
          2   -1    0    0  502    0  0.00000000000E+00  0.00000000000E+00  0.41184483662E+03  0.41184483662E+03  0.00000000000E+00 0. -1.
          1   -1    0    0  501    0 -0.00000000000E+00 -0.00000000000E+00 -0.36806599207E+03  0.36806599207E+03  0.00000000000E+00 0. -1.
          2    1    1    2  501    0  0.25207102188E+02 -0.61547126142E+02  0.34724838679E+03  0.35356030442E+03  0.00000000000E+00 0. -1.
          1    1    1    2  502    0 -0.15722685270E+02  0.65247510245E+02 -0.28810283327E+03  0.29581697545E+03  0.00000000000E+00 0. -1.
         22    1    1    2    0    0  0.78622786833E+01 -0.77585007389E+01  0.55947677195E+02  0.57027645430E+02  0.00000000000E+00 0.  1.
         22    1    1    2    0    0 -0.17346695601E+02  0.40581166362E+01 -0.71314386159E+02  0.73505903383E+02  0.00000000000E+00 0.  1.
</event>
<event>
 6    1  0.1715574E-005  0.8386441E+02  0.7818608E-02  0.1328262E+00
          2   -1    0    0  502    0  0.00000000000E+00  0.00000000000E+00  0.31214465416E+03  0.31214465416E+03  0.00000000000E+00 0.  1.
          1   -1    0    0  501    0 -0.00000000000E+00 -0.00000000000E+00 -0.36426179647E+02  0.36426179647E+02  0.00000000000E+00 0.  1.
          2    1    1    2  501    0  0.28055656760E+02  0.19480514531E+02  0.12115005284E+03  0.12587273584E+03  0.00000000000E+00 0.  1.
          1    1    1    2  502    0 -0.24772779686E+02 -0.21805552641E+02  0.37364046246E+02  0.49852228548E+02  0.00000000000E+00 0.  1.
         22    1    1    2    0    0 -0.11611288042E+02 -0.32964529893E+02 -0.13302462195E+02  0.37395691483E+02  0.00000000000E+00 0.  1.
         22    1    1    2    0    0  0.83284109681E+01  0.35289568004E+02  0.13050683762E+03  0.13545017794E+03  0.00000000000E+00 0.  1.
</event>
<event>
 6    1  0.1715574E-005  0.6977458E+02  0.7818608E-02  0.1366936E+00
          2   -1    0    0  502    0  0.00000000000E+00  0.00000000000E+00  0.22611862923E+03  0.22611862923E+03  0.00000000000E+00 0. -1.
          1   -1    0    0  501    0 -0.00000000000E+00 -0.00000000000E+00 -0.25860381035E+03  0.25860381035E+03  0.00000000000E+00 0. -1.
          2    1    1    2  501    0 -0.13740061370E+02  0.22422631166E+02  0.37484558944E+02  0.45789254570E+02  0.00000000000E+00 0. -1.
          1    1    1    2  502    0  0.10430586743E+02 -0.39429174427E+02 -0.22949933987E+03  0.23309526794E+03  0.00000000000E+00 0. -1.
         22    1    1    2    0    0  0.50911089964E+01  0.30517674019E+02  0.17923127918E+03  0.18188210263E+03  0.00000000000E+00 0. -1.
         22    1    1    2    0    0 -0.17816343687E+01 -0.13511130758E+02 -0.19701679378E+02  0.23955814445E+02  0.00000000000E+00 0. -1.
</event>
<event>
 6    1  0.1715574E-005  0.7877868E+02  0.7818608E-02  0.1332981E+00
          2   -1    0    0  502    0  0.00000000000E+00  0.00000000000E+00  0.98908431843E+02  0.98908431843E+02  0.00000000000E+00 0. -1.
          1   -1    0    0  501    0 -0.00000000000E+00 -0.00000000000E+00 -0.17829622279E+03  0.17829622279E+03  0.00000000000E+00 0.  1.
          2    1    1    2  501    0 -0.59648983727E+02  0.17912753553E+01  0.47370931811E+02  0.76191962225E+02  0.00000000000E+00 0. -1.
          1    1    1    2  502    0  0.16899898414E+02 -0.12788384994E+02 -0.42576155330E+02  0.47559208991E+02  0.00000000000E+00 0.  1.
         22    1    1    2    0    0 -0.14232881983E+02  0.11071612584E+02  0.24688205375E+02  0.30572258984E+02  0.00000000000E+00 0.  1.
         22    1    1    2    0    0  0.56981967296E+02 -0.74502944905E-01 -0.10887077280E+03  0.12288122443E+03  0.00000000000E+00 0.  1.
</event>
<event>
 6    1  0.1715574E-005  0.1605992E+03  0.7818608E-02  0.1189566E+00
          2   -1    0    0  502    0  0.00000000000E+00  0.00000000000E+00  0.13520870418E+04  0.13520870418E+04  0.00000000000E+00 0.  1.
          1   -1    0    0  501    0 -0.00000000000E+00 -0.00000000000E+00 -0.27918776114E+02  0.27918776114E+02  0.00000000000E+00 0. -1.
          2    1    1    2  501    0 -0.97191639210E+02 -0.15851676648E+02  0.84683912463E+03  0.85254559608E+03  0.00000000000E+00 0.  1.
          1    1    1    2  502    0  0.58347243342E+02  0.54453610545E+02  0.25349287333E+03  0.26575972858E+03  0.00000000000E+00 0. -1.
         22    1    1    2    0    0  0.42917600218E+02  0.10160164429E+02  0.14056728657E+02  0.46289750164E+02  0.00000000000E+00 0. -1.
         22    1    1    2    0    0 -0.40732043496E+01 -0.48762098326E+02  0.20977953904E+03  0.21541074307E+03  0.00000000000E+00 0. -1.
</event>
<event>
 6    1  0.1715574E-005  0.1220499E+03  0.7818608E-02  0.1252524E+00
          2   -1    0    0  502    0  0.00000000000E+00  0.00000000000E+00  0.10730680717E+03  0.10730680717E+03  0.00000000000E+00 0.  1.
          1   -1    0    0  501    0 -0.00000000000E+00 -0.00000000000E+00 -0.22972646110E+03  0.22972646110E+03  0.00000000000E+00 0.  1.
          2    1    1    2  501    0 -0.25248051221E+02  0.28522509135E+02  0.20536445361E+02  0.43275203129E+02  0.00000000000E+00 0.  1.
          1    1    1    2  502    0  0.70265811392E+02  0.26620899391E+02 -0.12942895868E+03  0.14965898530E+03  0.00000000000E+00 0.  1.
         22    1    1    2    0    0  0.17908145635E+02  0.25094411505E+00 -0.49673907872E+02  0.52803993943E+02  0.00000000000E+00 0.  1.
         22    1    1    2    0    0 -0.62925905806E+02 -0.55394352641E+02  0.36146767260E+02  0.91295085900E+02  0.00000000000E+00 0.  1.
</event>
<event>
 6    1  0.1715574E-005  0.1608357E+03  0.7818608E-02  0.1214145E+00
          2   -1    0    0  502    0  0.00000000000E+00  0.00000000000E+00  0.41762547907E+03  0.41762547907E+03  0.00000000000E+00 0. -1.
          1   -1    0    0  501    0 -0.00000000000E+00 -0.00000000000E+00 -0.72192301423E+02  0.72192301423E+02  0.00000000000E+00 0. -1.
          2    1    1    2  501    0 -0.72457579953E+01  0.26928371467E+02  0.15490037424E+01  0.27929153431E+02  0.00000000000E+00 0. -1.
          1    1    1    2  502    0  0.71290680133E+02 -0.35097765853E+02 -0.11787485260E+02  0.80331557003E+02  0.00000000000E+00 0. -1.
         22    1    1    2    0    0 -0.73623248186E+02  0.12534561467E+02  0.36176581601E+03  0.36939410328E+03  0.00000000000E+00 0. -1.
         22    1    1    2    0    0  0.95783260473E+01 -0.43651670806E+01 -0.60941568366E+01  0.12162966787E+02  0.00000000000E+00 0. -1.
</event>
<event>
 6    1  0.1715574E-005  0.3893813E+02  0.7818608E-02  0.1618085E+00
          2   -1    0    0  502    0  0.00000000000E+00  0.00000000000E+00  0.20331993830E+03  0.20331993830E+03  0.00000000000E+00 0. -1.
          1   -1    0    0  501    0 -0.00000000000E+00 -0.00000000000E+00 -0.71514469909E+02  0.71514469909E+02  0.00000000000E+00 0. -1.
          2    1    1    2  501    0  0.11551866041E+02 -0.21347114104E+02  0.10802731472E+03  0.11072057449E+03  0.00000000000E+00 0. -1.
          1    1    1    2  502    0 -0.18353007060E+02  0.29177449239E+02 -0.11403603076E+02  0.36307004494E+02  0.00000000000E+00 0. -1.
         22    1    1    2    0    0  0.83143499480E+01  0.69129230579E+01 -0.44992844149E+02  0.46273890531E+02  0.00000000000E+00 0. -1.
         22    1    1    2    0    0 -0.15132089292E+01 -0.14743258193E+02  0.80174600894E+02  0.81532938693E+02  0.00000000000E+00 0. -1.
</event>
<event>
 6    1  0.1715574E-005  0.9064658E+02  0.7818608E-02  0.1307994E+00
          2   -1    0    0  502    0  0.00000000000E+00  0.00000000000E+00  0.14783752229E+02  0.14783752229E+02  0.00000000000E+00 0. -1.
          1   -1    0    0  501    0 -0.00000000000E+00 -0.00000000000E+00 -0.50656188402E+03  0.50656188402E+03  0.00000000000E+00 0. -1.
          2    1    1    2  501    0 -0.10812146307E+02 -0.18812535753E+02 -0.69867801209E+02  0.73159576646E+02  0.00000000000E+00 0. -1.
          1    1    1    2  502    0 -0.19319952526E+02  0.11700851260E+02 -0.94406278947E+02  0.97070675234E+02  0.00000000000E+00 0. -1.
         22    1    1    2    0    0 -0.19347244153E+02  0.53589445852E+02 -0.17858500225E+03  0.18745332110E+03  0.00000000000E+00 0. -1.
         22    1    1    2    0    0  0.49479342987E+02 -0.46477761359E+02 -0.14891904939E+03  0.16366206327E+03  0.00000000000E+00 0. -1.
</event>
<event>
 6    1  0.1715574E-005  0.1798415E+03  0.7818608E-02  0.1169170E+00
          2   -1    0    0  502    0  0.00000000000E+00  0.00000000000E+00  0.12561677657E+03  0.12561677657E+03  0.00000000000E+00 0. -1.
          1   -1    0    0  501    0 -0.00000000000E+00 -0.00000000000E+00 -0.31591396609E+03  0.31591396609E+03  0.00000000000E+00 0. -1.
          2    1    1    2  501    0 -0.46521267412E+02 -0.11487908815E+03 -0.11588062230E+03  0.16967543087E+03  0.00000000000E+00 0. -1.
          1    1    1    2  502    0  0.59781817464E+02  0.83866225222E+02  0.29337646622E+02  0.10708924755E+03  0.00000000000E+00 0. -1.
         22    1    1    2    0    0  0.35188861243E+02  0.53382408113E+02 -0.22950630842E+02  0.67931354377E+02  0.00000000000E+00 0.  1.
         22    1    1    2    0    0 -0.48449411295E+02 -0.22369545181E+02 -0.80803583000E+02  0.96834709851E+02  0.00000000000E+00 0. -1.
</event>
<event>
 6    1  0.1715574E-005  0.4778420E+02  0.7818608E-02  0.1458512E+00
          2   -1    0    0  502    0  0.00000000000E+00  0.00000000000E+00  0.29318701292E+02  0.29318701292E+02  0.00000000000E+00 0.  1.
          1   -1    0    0  501    0 -0.00000000000E+00 -0.00000000000E+00 -0.47102890866E+03  0.47102890866E+03  0.00000000000E+00 0.  1.
          2    1    1    2  501    0 -0.25715015584E+02  0.17767070850E+01 -0.99608724620E+01  0.27633995273E+02  0.00000000000E+00 0.  1.
          1    1    1    2  502    0  0.31411327712E+02  0.44103851782E+02 -0.16686052704E+03  0.17542592948E+03  0.00000000000E+00 0.  1.
         22    1    1    2    0    0  0.13253117277E+02 -0.49253211875E+02 -0.27202098034E+03  0.27676151782E+03  0.00000000000E+00 0.  1.
         22    1    1    2    0    0 -0.18949429405E+02  0.33726530076E+01  0.71321724761E+01  0.20526167380E+02  0.00000000000E+00 0.  1.
</event>
<event>
 6    1  0.1715574E-005  0.4764715E+02  0.7818608E-02  0.1508230E+00
          2   -1    0    0  502    0  0.00000000000E+00  0.00000000000E+00  0.28506441881E+03  0.28506441881E+03  0.00000000000E+00 0. -1.
          1   -1    0    0  501    0 -0.00000000000E+00 -0.00000000000E+00 -0.89021830929E+02  0.89021830929E+02  0.00000000000E+00 0. -1.
          2    1    1    2  501    0  0.93582367757E+01 -0.23254764847E+02  0.17559559007E+03  0.17737579298E+03  0.00000000000E+00 0. -1.
          1    1    1    2  502    0 -0.25780555360E+02  0.24330098646E+02 -0.41981546866E+02  0.54945800677E+02  0.00000000000E+00 0. -1.
         22    1    1    2    0    0  0.45475161482E+01 -0.21539775976E+02  0.97224981172E+02  0.99686201733E+02  0.00000000000E+00 0. -1.
         22    1    1    2    0    0  0.11874802436E+02  0.20464442177E+02 -0.34796436501E+02  0.42078454341E+02  0.00000000000E+00 0. -1.
</event>
<event>
 6    1  0.1715574E-005  0.1558332E+03  0.7818608E-02  0.1198424E+00
          2   -1    0    0  502    0  0.00000000000E+00  0.00000000000E+00  0.18980149341E+02  0.18980149341E+02  0.00000000000E+00 0. -1.
          1   -1    0    0  501    0 -0.00000000000E+00 -0.00000000000E+00 -0.14248595298E+04  0.14248595298E+04  0.00000000000E+00 0. -1.
          2    1    1    2  501    0  0.44766635180E+02  0.41209764399E+02 -0.10187491228E+03  0.11866252172E+03  0.00000000000E+00 0. -1.
          1    1    1    2  502    0 -0.77030530020E+02  0.60193677056E+01 -0.72896476019E+03  0.73304812730E+03  0.00000000000E+00 0. -1.
         22    1    1    2    0    0 -0.49706484910E+02 -0.23468975103E+02 -0.25899076833E+03  0.26475978833E+03  0.00000000000E+00 0.  1.
         22    1    1    2    0    0  0.81970379749E+02 -0.23760157001E+02 -0.31604893962E+03  0.32736924176E+03  0.00000000000E+00 0. -1.
</event>
<event>
 6    1  0.1715574E-005  0.4969832E+03  0.7818608E-02  0.1026585E+00
          2   -1    0    0  502    0  0.00000000000E+00  0.00000000000E+00  0.30990634743E+03  0.30990634743E+03  0.00000000000E+00 0. -1.
          1   -1    0    0  501    0 -0.00000000000E+00 -0.00000000000E+00 -0.57599909412E+03  0.57599909412E+03  0.00000000000E+00 0. -1.
          2    1    1    2  501    0 -0.26291431464E+03  0.19790194673E+03 -0.68550221009E+02  0.33613724900E+03  0.00000000000E+00 0. -1.
          1    1    1    2  502    0  0.47422951427E+02  0.10455470166E+03 -0.12646426663E+02  0.11550131630E+03  0.00000000000E+00 0. -1.
         22    1    1    2    0    0 -0.15361219555E+02 -0.44839591560E+01 -0.77225602419E+01  0.17768255193E+02  0.00000000000E+00 0.  1.
         22    1    1    2    0    0  0.23085258277E+03 -0.29797268923E+03 -0.17717353878E+03  0.41649862106E+03  0.00000000000E+00 0. -1.
</event>
<event>
 6    1  0.1715574E-005  0.1996732E+03  0.7818608E-02  0.1151206E+00
          2   -1    0    0  502    0  0.00000000000E+00  0.00000000000E+00  0.60439205037E+03  0.60439205037E+03  0.00000000000E+00 0. -1.
          1   -1    0    0  501    0 -0.00000000000E+00 -0.00000000000E+00 -0.84365644283E+02  0.84365644283E+02  0.00000000000E+00 0.  1.
          2    1    1    2  501    0 -0.14310050820E+03 -0.94859182491E+02  0.35383786084E+03  0.39329028938E+03  0.00000000000E+00 0. -1.
          1    1    1    2  502    0  0.55791511380E+02  0.68739838820E+02  0.37359055725E+02  0.96091400384E+02  0.00000000000E+00 0.  1.
         22    1    1    2    0    0  0.10689770533E+03  0.29810690201E+02  0.56856128399E+02  0.12469328768E+03  0.00000000000E+00 0. -1.
         22    1    1    2    0    0 -0.19588708508E+02 -0.36913465305E+01  0.71973361119E+02  0.74682717218E+02  0.00000000000E+00 0. -1.
</event>
<event>
 6    1  0.1715574E-005  0.5764607E+02  0.7818608E-02  0.1410742E+00
          2   -1    0    0  502    0  0.00000000000E+00  0.00000000000E+00  0.88456177694E+02  0.88456177694E+02  0.00000000000E+00 0.  1.
          1   -1    0    0  501    0 -0.00000000000E+00 -0.00000000000E+00 -0.31561582192E+03  0.31561582192E+03  0.00000000000E+00 0.  1.
          2    1    1    2  501    0 -0.96728075589E+00 -0.35047166260E+02  0.58172214231E+02  0.67920880467E+02  0.00000000000E+00 0.  1.
          1    1    1    2  502    0  0.73891023101E+01  0.19077201298E+02 -0.14377904167E+03  0.14522724009E+03  0.00000000000E+00 0.  1.
         22    1    1    2    0    0 -0.78885194358E+01  0.35006199628E+02 -0.16023951704E+03  0.16420829934E+03  0.00000000000E+00 0.  1.
         22    1    1    2    0    0  0.14666978815E+01 -0.19036234666E+02  0.18686700253E+02  0.26715579710E+02  0.00000000000E+00 0.  1.
</event>
<event>
 6    1  0.1715574E-005  0.9050741E+02  0.7818608E-02  0.1340413E+00
          2   -1    0    0  502    0  0.00000000000E+00  0.00000000000E+00  0.24104688227E+02  0.24104688227E+02  0.00000000000E+00 0. -1.
          1   -1    0    0  501    0 -0.00000000000E+00 -0.00000000000E+00 -0.24028496405E+04  0.24028496405E+04  0.00000000000E+00 0.  1.
          2    1    1    2  501    0 -0.69358250979E+01  0.27657219056E+02 -0.19233342255E+02  0.34394024045E+02  0.00000000000E+00 0. -1.
          1    1    1    2  502    0 -0.82616224172E+02  0.29906829299E+02 -0.19332160376E+04  0.19352116440E+04  0.00000000000E+00 0.  1.
         22    1    1    2    0    0  0.91182408326E+02 -0.71773355550E+02 -0.42752485648E+03  0.44299339618E+03  0.00000000000E+00 0. -1.
         22    1    1    2    0    0 -0.16303590559E+01  0.14209307195E+02  0.12292840185E+01  0.14355264568E+02  0.00000000000E+00 0. -1.
</event>
<event>
 6    1  0.1715574E-005  0.1516322E+03  0.7818608E-02  0.1199108E+00
          2   -1    0    0  502    0  0.00000000000E+00  0.00000000000E+00  0.44020911825E+03  0.44020911825E+03  0.00000000000E+00 0.  1.
          1   -1    0    0  501    0 -0.00000000000E+00 -0.00000000000E+00 -0.90661004095E+02  0.90661004095E+02  0.00000000000E+00 0.  1.
          2    1    1    2  501    0 -0.49552512833E+02 -0.12722349256E+03  0.30602444401E+03  0.33510032665E+03  0.00000000000E+00 0.  1.
          1    1    1    2  502    0  0.78118732863E+01  0.21617918946E+02  0.11850067350E+02  0.25860856134E+02  0.00000000000E+00 0.  1.
         22    1    1    2    0    0 -0.18471562657E+01 -0.11880676883E+02  0.42464560991E+02  0.44133903177E+02  0.00000000000E+00 0.  1.
         22    1    1    2    0    0  0.43587795813E+02  0.11748625049E+03 -0.10790958199E+02  0.12577503639E+03  0.00000000000E+00 0.  1.
</event>
<event>
 6    1  0.1715574E-005  0.1092622E+03  0.7818608E-02  0.1282574E+00
          2   -1    0    0  502    0  0.00000000000E+00  0.00000000000E+00  0.31666913809E+02  0.31666913809E+02  0.00000000000E+00 0. -1.
          1   -1    0    0  501    0 -0.00000000000E+00 -0.00000000000E+00 -0.27965764922E+03  0.27965764922E+03  0.00000000000E+00 0. -1.
          2    1    1    2  501    0  0.16326131671E+02 -0.15897735367E+02 -0.53304213414E+02  0.57970852441E+02  0.00000000000E+00 0. -1.
          1    1    1    2  502    0 -0.29258709554E+02 -0.11833571121E+02 -0.22571624603E+02  0.38801852114E+02  0.00000000000E+00 0. -1.
         22    1    1    2    0    0  0.10638411575E+02 -0.48829324202E+02 -0.84544674336E+02  0.98210389784E+02  0.00000000000E+00 0. -1.
         22    1    1    2    0    0  0.22941663085E+01  0.76560630689E+02 -0.87570223059E+02  0.11634146869E+03  0.00000000000E+00 0. -1.
</event>
<event>
 6    1  0.1715574E-005  0.4272685E+02  0.7818608E-02  0.1495280E+00
          2   -1    0    0  502    0  0.00000000000E+00  0.00000000000E+00  0.95751594848E+02  0.95751594848E+02  0.00000000000E+00 0. -1.
          1   -1    0    0  501    0 -0.00000000000E+00 -0.00000000000E+00 -0.17818818503E+03  0.17818818503E+03  0.00000000000E+00 0.  1.
          2    1    1    2  501    0  0.14641518962E+01 -0.24207711187E+02  0.43457695600E+02  0.49766739180E+02  0.00000000000E+00 0. -1.
          1    1    1    2  502    0  0.83933990931E+01  0.20023342412E+02 -0.94535522211E+02  0.96996640918E+02  0.00000000000E+00 0.  1.
         22    1    1    2    0    0  0.14959444038E+01 -0.13333844401E+02  0.45549871777E+02  0.47484945774E+02  0.00000000000E+00 0. -1.
         22    1    1    2    0    0 -0.11353495393E+02  0.17518213176E+02 -0.76908635353E+02  0.79691454011E+02  0.00000000000E+00 0.  1.
</event>
<event>
 6    1  0.1715574E-005  0.4752139E+02  0.7818608E-02  0.1502733E+00
          2   -1    0    0  502    0  0.00000000000E+00  0.00000000000E+00  0.29344180307E+03  0.29344180307E+03  0.00000000000E+00 0. -1.
          1   -1    0    0  501    0 -0.00000000000E+00 -0.00000000000E+00 -0.59602780420E+02  0.59602780420E+02  0.00000000000E+00 0.  1.
          2    1    1    2  501    0  0.18681699960E+02 -0.37568983783E+02  0.12301803855E+03  0.12997642965E+03  0.00000000000E+00 0. -1.
          1    1    1    2  502    0  0.82629834225E+01  0.26292818062E+02 -0.22774689546E+02  0.35752981143E+02  0.00000000000E+00 0.  1.
         22    1    1    2    0    0 -0.29337648764E+01  0.20455041459E+02 -0.21665695991E+02  0.29940241820E+02  0.00000000000E+00 0. -1.
         22    1    1    2    0    0 -0.24010918506E+02 -0.91788757387E+01  0.15526136963E+03  0.15737493087E+03  0.00000000000E+00 0. -1.
</event>
<event>
 6    1  0.1715574E-005  0.9217335E+02  0.7818608E-02  0.1385127E+00
          2   -1    0    0  502    0  0.00000000000E+00  0.00000000000E+00  0.21499749389E+03  0.21499749389E+03  0.00000000000E+00 0. -1.
          1   -1    0    0  501    0 -0.00000000000E+00 -0.00000000000E+00 -0.15520080984E+04  0.15520080984E+04  0.00000000000E+00 0.  1.
          2    1    1    2  501    0  0.28363903039E+02  0.12372752824E+03  0.17466009649E+03  0.21591470896E+03  0.00000000000E+00 0. -1.
          1    1    1    2  502    0  0.48477344050E+02 -0.14460616126E+03 -0.11378692440E+04  0.11480450389E+04  0.00000000000E+00 0.  1.
         22    1    1    2    0    0 -0.13485747582E+02  0.50929996598E+01  0.74618557713E+01  0.16232169446E+02  0.00000000000E+00 0.  1.
         22    1    1    2    0    0 -0.63355499507E+02  0.15785633354E+02 -0.38126331273E+03  0.38681367500E+03  0.00000000000E+00 0.  1.
</event>
<event>
 6    1  0.1715574E-005  0.2434308E+03  0.7818608E-02  0.1117690E+00
          2   -1    0    0  502    0  0.00000000000E+00  0.00000000000E+00  0.35695213988E+03  0.35695213988E+03  0.00000000000E+00 0.  1.
          1   -1    0    0  501    0 -0.00000000000E+00 -0.00000000000E+00 -0.55562303048E+03  0.55562303048E+03  0.00000000000E+00 0.  1.
          2    1    1    2  501    0 -0.79739135123E+02 -0.11378478015E+03  0.19148234473E+03  0.23658147478E+03  0.00000000000E+00 0.  1.
          1    1    1    2  502    0  0.93992646985E+02  0.20028903321E+03 -0.45689905568E+03  0.50764856111E+03  0.00000000000E+00 0.  1.
         22    1    1    2    0    0  0.18356790246E+02  0.87819325772E+01 -0.24913265223E+02  0.32167761377E+02  0.00000000000E+00 0.  1.
         22    1    1    2    0    0 -0.32610302109E+02 -0.95286185637E+02  0.91659085573E+02  0.13617737310E+03  0.00000000000E+00 0.  1.
</event>
<event>
 6    1  0.1715574E-005  0.1025231E+03  0.7818608E-02  0.1354933E+00
          2   -1    0    0  502    0  0.00000000000E+00  0.00000000000E+00  0.84799907548E+03  0.84799907548E+03  0.00000000000E+00 0.  1.
          1   -1    0    0  501    0 -0.00000000000E+00 -0.00000000000E+00 -0.75541434260E+02  0.75541434260E+02  0.00000000000E+00 0. -1.
          2    1    1    2  501    0 -0.14206935802E+03 -0.62046196643E+01  0.62161327847E+03  0.63767175550E+03  0.00000000000E+00 0.  1.
          1    1    1    2  502    0  0.77048573590E+02  0.42389413450E+02  0.10523806100E+03  0.13714370035E+03  0.00000000000E+00 0. -1.
         22    1    1    2    0    0 -0.23636055379E+01  0.20577596561E+02  0.56284339839E+02  0.59974586471E+02  0.00000000000E+00 0.  1.
         22    1    1    2    0    0  0.67384389969E+02 -0.56762390347E+02 -0.10678038081E+02  0.88750467416E+02  0.00000000000E+00 0. -1.
</event>
<event>
 6    1  0.1715574E-005  0.7795169E+02  0.7818608E-02  0.1338522E+00
          2   -1    0    0  502    0  0.00000000000E+00  0.00000000000E+00  0.10082819270E+03  0.10082819270E+03  0.00000000000E+00 0.  1.
          1   -1    0    0  501    0 -0.00000000000E+00 -0.00000000000E+00 -0.22022658535E+03  0.22022658535E+03  0.00000000000E+00 0.  1.
          2    1    1    2  501    0 -0.38451061374E+02  0.38282264613E+02  0.62814978785E+02  0.83004442438E+02  0.00000000000E+00 0.  1.
          1    1    1    2  502    0  0.24569994847E+02 -0.38455944297E+01 -0.47980907961E+02  0.54042953029E+02  0.00000000000E+00 0.  1.
         22    1    1    2    0    0  0.31252225848E+02 -0.41432039294E+02 -0.15050312876E+03  0.15919958313E+03  0.00000000000E+00 0.  1.
         22    1    1    2    0    0 -0.17371159322E+02  0.69953691105E+01  0.16270665283E+02  0.24807799457E+02  0.00000000000E+00 0.  1.
</event>
<event>
 6    1  0.1715574E-005  0.1490985E+03  0.7818608E-02  0.1201737E+00
          2   -1    0    0  502    0  0.00000000000E+00  0.00000000000E+00  0.60114944976E+02  0.60114944976E+02  0.00000000000E+00 0.  1.
          1   -1    0    0  501    0 -0.00000000000E+00 -0.00000000000E+00 -0.44153362153E+03  0.44153362153E+03  0.00000000000E+00 0. -1.
          2    1    1    2  501    0  0.20335373715E+02  0.88797058993E+02 -0.48097923931E+02  0.10301386022E+03  0.00000000000E+00 0.  1.
          1    1    1    2  502    0 -0.40741370463E+01 -0.88920836958E+02 -0.14170538788E+03  0.16734375038E+03  0.00000000000E+00 0. -1.
         22    1    1    2    0    0 -0.10669281260E+02  0.56098469367E+02 -0.40397296217E+02  0.69948648090E+02  0.00000000000E+00 0.  1.
         22    1    1    2    0    0 -0.55919554082E+01 -0.55974691403E+02 -0.15121806853E+03  0.16134230782E+03  0.00000000000E+00 0. -1.
</event>
<event>
 6    1  0.1870978E-005  0.8560032E+02  0.7818608E-02  0.1408445E+00
          2   -1    0    0  502    0  0.00000000000E+00  0.00000000000E+00  0.16043120694E+03  0.16043120694E+03  0.00000000000E+00 0.  1.
          1   -1    0    0  501    0 -0.00000000000E+00 -0.00000000000E+00 -0.19179476516E+03  0.19179476516E+03  0.00000000000E+00 0. -1.
          2    1    1    2  501    0 -0.29820214744E+02 -0.64574851588E+02  0.94107574706E+02  0.11796352098E+03  0.00000000000E+00 0.  1.
          1    1    1    2  502    0  0.19643746532E+02  0.62686502948E+02 -0.76501471825E+02  0.10083625152E+03  0.00000000000E+00 0. -1.
         22    1    1    2    0    0  0.17960534165E+01 -0.13450799425E+02  0.40267862369E+02  0.42492947095E+02  0.00000000000E+00 0. -1.
         22    1    1    2    0    0  0.83804147965E+01  0.15339148065E+02 -0.89237523471E+02  0.90933252503E+02  0.00000000000E+00 0. -1.
</event>
<event>
 6    1  0.1715574E-005  0.5464972E+02  0.7818608E-02  0.1423568E+00
          2   -1    0    0  502    0  0.00000000000E+00  0.00000000000E+00  0.21920681541E+03  0.21920681541E+03  0.00000000000E+00 0. -1.
          1   -1    0    0  501    0 -0.00000000000E+00 -0.00000000000E+00 -0.11606600651E+03  0.11606600651E+03  0.00000000000E+00 0. -1.
          2    1    1    2  501    0 -0.18420260236E+02 -0.22702811280E+02  0.89165800500E+02  0.93836366116E+02  0.00000000000E+00 0. -1.
          1    1    1    2  502    0  0.20818609515E+02  0.36562045880E+02 -0.75504182728E+02  0.86435405423E+02  0.00000000000E+00 0. -1.
         22    1    1    2    0    0  0.49332937169E+01  0.88375585125E+01 -0.30778971909E+02  0.32400384861E+02  0.00000000000E+00 0. -1.
         22    1    1    2    0    0 -0.73316429960E+01 -0.22696793113E+02  0.12025816304E+03  0.12260066552E+03  0.00000000000E+00 0. -1.
</event>
<event>
 6    1  0.1715574E-005  0.5650818E+02  0.7818608E-02  0.1413610E+00
          2   -1    0    0  502    0  0.00000000000E+00  0.00000000000E+00  0.38735184272E+03  0.38735184272E+03  0.00000000000E+00 0.  1.
          1   -1    0    0  501    0 -0.00000000000E+00 -0.00000000000E+00 -0.64485971477E+02  0.64485971477E+02  0.00000000000E+00 0. -1.
          2    1    1    2  501    0 -0.17500601746E+02  0.27452375393E+02  0.29328388470E+03  0.29508531139E+03  0.00000000000E+00 0.  1.
          1    1    1    2  502    0  0.14569698502E+02 -0.19334694057E+02 -0.94681365598E+01  0.25995232613E+02  0.00000000000E+00 0. -1.
         22    1    1    2    0    0  0.28197012404E+01  0.19704603893E+02  0.79337478215E+02  0.81796439893E+02  0.00000000000E+00 0. -1.
         22    1    1    2    0    0  0.11120200454E+00 -0.27822285229E+02 -0.40287355112E+02  0.48960830295E+02  0.00000000000E+00 0. -1.
</event>
<event>
 6    1  0.1715574E-005  0.7016569E+02  0.7818608E-02  0.1360297E+00
          2   -1    0    0  502    0  0.00000000000E+00  0.00000000000E+00  0.15792535468E+03  0.15792535468E+03  0.00000000000E+00 0.  1.
          1   -1    0    0  501    0 -0.00000000000E+00 -0.00000000000E+00 -0.15737833377E+03  0.15737833377E+03  0.00000000000E+00 0.  1.
          2    1    1    2  501    0  0.56351425076E+00  0.57292384334E+02  0.11061362159E+03  0.12457169876E+03  0.00000000000E+00 0.  1.
          1    1    1    2  502    0 -0.11372271592E+01 -0.23124642834E+02 -0.34726685665E+02  0.41737094881E+02  0.00000000000E+00 0.  1.
         22    1    1    2    0    0  0.74805145645E+01  0.10161777754E+02  0.31058788997E+02  0.33524143528E+02  0.00000000000E+00 0.  1.
         22    1    1    2    0    0 -0.69068016561E+01 -0.44329519254E+02 -0.10639870402E+03  0.11547075129E+03  0.00000000000E+00 0.  1.
</event>
<event>
 6    1  0.1715574E-005  0.6773482E+02  0.7818608E-02  0.1368631E+00
          2   -1    0    0  502    0  0.00000000000E+00  0.00000000000E+00  0.16415191638E+03  0.16415191638E+03  0.00000000000E+00 0. -1.
          1   -1    0    0  501    0 -0.00000000000E+00 -0.00000000000E+00 -0.25888712101E+03  0.25888712101E+03  0.00000000000E+00 0.  1.
          2    1    1    2  501    0  0.23961574169E+02  0.25082168509E+02  0.73080064603E+02  0.80894796224E+02  0.00000000000E+00 0. -1.
          1    1    1    2  502    0 -0.42912092995E+02 -0.34075635463E+02 -0.20467797117E+03  0.21188598005E+03  0.00000000000E+00 0.  1.
         22    1    1    2    0    0 -0.11951992566E+02 -0.23438108292E+01 -0.42568575299E+02  0.44276711469E+02  0.00000000000E+00 0. -1.
         22    1    1    2    0    0  0.30902511391E+02  0.11337277784E+02  0.79431277232E+02  0.85981549652E+02  0.00000000000E+00 0. -1.
</event>
<event>
 6    1  0.1715574E-005  0.1287290E+03  0.7818608E-02  0.1229466E+00
          2   -1    0    0  502    0  0.00000000000E+00  0.00000000000E+00  0.28791187531E+03  0.28791187531E+03  0.00000000000E+00 0. -1.
          1   -1    0    0  501    0 -0.00000000000E+00 -0.00000000000E+00 -0.15677089730E+03  0.15677089730E+03  0.00000000000E+00 0. -1.
          2    1    1    2  501    0 -0.48421417814E+02 -0.77852221908E+02  0.16516958436E+03  0.18890895626E+03  0.00000000000E+00 0. -1.
          1    1    1    2  502    0  0.31132809255E+02  0.88978981409E+02 -0.76443588537E+02  0.12136776002E+03  0.00000000000E+00 0. -1.
         22    1    1    2    0    0 -0.51550010198E+01 -0.36433554867E+02  0.77425565065E+02  0.85724536052E+02  0.00000000000E+00 0. -1.
         22    1    1    2    0    0  0.22443609579E+02  0.25306795366E+02 -0.35010582872E+02  0.48681520269E+02  0.00000000000E+00 0. -1.
</event>
<event>
 6    1  0.1715574E-005  0.7635541E+02  0.7818608E-02  0.1354844E+00
          2   -1    0    0  502    0  0.00000000000E+00  0.00000000000E+00  0.16349598314E+03  0.16349598314E+03  0.00000000000E+00 0. -1.
          1   -1    0    0  501    0 -0.00000000000E+00 -0.00000000000E+00 -0.66409529423E+02  0.66409529423E+02  0.00000000000E+00 0. -1.
          2    1    1    2  501    0 -0.25400467924E+01 -0.35951256428E+02  0.66653716510E+02  0.75773759317E+02  0.00000000000E+00 0. -1.
          1    1    1    2  502    0 -0.66755516921E+01  0.20658119839E+02  0.16597884403E+02  0.27327836949E+02  0.00000000000E+00 0. -1.
         22    1    1    2    0    0  0.21047469044E+02 -0.35521876956E+01  0.66387439020E+02  0.69734539865E+02  0.00000000000E+00 0. -1.
         22    1    1    2    0    0 -0.11831870559E+02  0.18845324285E+02 -0.52552586215E+02  0.57069376431E+02  0.00000000000E+00 0. -1.
</event>
<event>
 6    1  0.1715574E-005  0.3976218E+02  0.7818608E-02  0.1536729E+00
          2   -1    0    0  502    0  0.00000000000E+00  0.00000000000E+00  0.10625546810E+03  0.10625546810E+03  0.00000000000E+00 0.  1.
          1   -1    0    0  501    0 -0.00000000000E+00 -0.00000000000E+00 -0.70126087157E+03  0.70126087157E+03  0.00000000000E+00 0. -1.
          2    1    1    2  501    0  0.31656868403E+02  0.14364552167E+00  0.79230138491E+02  0.85320529747E+02  0.00000000000E+00 0.  1.
          1    1    1    2  502    0 -0.75859390627E+02 -0.81105260876E+01 -0.49185535531E+03  0.49773699715E+03  0.00000000000E+00 0. -1.
         22    1    1    2    0    0  0.30726045288E+02 -0.10418582256E+02 -0.19548882859E+03  0.19816285933E+03  0.00000000000E+00 0. -1.
         22    1    1    2    0    0  0.13476476936E+02  0.18385462821E+02  0.13108641942E+02  0.26295953440E+02  0.00000000000E+00 0. -1.
</event>
<event>
 6    1  0.1715574E-005  0.1418998E+03  0.7818608E-02  0.1210995E+00
          2   -1    0    0  502    0  0.00000000000E+00  0.00000000000E+00  0.51973385279E+03  0.51973385279E+03  0.00000000000E+00 0. -1.
          1   -1    0    0  501    0 -0.00000000000E+00 -0.00000000000E+00 -0.67923571723E+02  0.67923571723E+02  0.00000000000E+00 0. -1.
          2    1    1    2  501    0 -0.32706502964E+02  0.21268407592E+01 -0.30700071310E+01  0.32919048157E+02  0.00000000000E+00 0. -1.
          1    1    1    2  502    0  0.11457236696E+03 -0.27866307229E+02  0.36047396919E+03  0.37926882394E+03  0.00000000000E+00 0. -1.
         22    1    1    2    0    0  0.16371362039E+02 -0.16259952002E+02  0.58291188065E+02  0.62691866618E+02  0.00000000000E+00 0.  1.
         22    1    1    2    0    0 -0.98237226036E+02  0.41999418471E+02  0.36115130945E+02  0.11277768580E+03  0.00000000000E+00 0. -1.
</event>
<event>
 6    1  0.1715574E-005  0.8610121E+02  0.7818608E-02  0.1369055E+00
          2   -1    0    0  502    0  0.00000000000E+00  0.00000000000E+00  0.28687380779E+02  0.28687380779E+02  0.00000000000E+00 0. -1.
          1   -1    0    0  501    0 -0.00000000000E+00 -0.00000000000E+00 -0.49140386848E+03  0.49140386848E+03  0.00000000000E+00 0. -1.
          2    1    1    2  501    0 -0.58447324272E+02  0.38321298146E+02 -0.14095401228E+03  0.15732973395E+03  0.00000000000E+00 0. -1.
          1    1    1    2  502    0  0.19552574041E+02 -0.30966506240E+02 -0.89636843386E+02  0.96829702843E+02  0.00000000000E+00 0. -1.
         22    1    1    2    0    0  0.45885981298E+02 -0.38980505729E+02 -0.22480182508E+03  0.23272486688E+03  0.00000000000E+00 0. -1.
         22    1    1    2    0    0 -0.69912310669E+01  0.31625713823E+02 -0.73238069507E+01  0.33206945582E+02  0.00000000000E+00 0.  1.
</event>
<event>
 6    1  0.1715574E-005  0.1366492E+03  0.7818608E-02  0.1229646E+00
          2   -1    0    0  502    0  0.00000000000E+00  0.00000000000E+00  0.28470209043E+03  0.28470209043E+03  0.00000000000E+00 0.  1.
          1   -1    0    0  501    0 -0.00000000000E+00 -0.00000000000E+00 -0.99484674995E+02  0.99484674995E+02  0.00000000000E+00 0.  1.
          2    1    1    2  501    0 -0.92339237878E+02  0.45055446400E+01  0.16993161924E+03  0.19345177694E+03  0.00000000000E+00 0.  1.
          1    1    1    2  502    0  0.46145671717E+02 -0.14257188910E+02  0.28119785126E+02  0.55887501012E+02  0.00000000000E+00 0.  1.
         22    1    1    2    0    0 -0.10765717486E+02 -0.24894175753E+01  0.48800497843E+02  0.50035851773E+02  0.00000000000E+00 0. -1.
         22    1    1    2    0    0  0.56959283647E+02  0.12241061845E+02 -0.61634486778E+02  0.84811635694E+02  0.00000000000E+00 0.  1.
</event>
<event>
 6    1  0.1715574E-005  0.1755738E+03  0.7818608E-02  0.1175814E+00
          2   -1    0    0  502    0  0.00000000000E+00  0.00000000000E+00  0.11151993978E+03  0.11151993978E+03  0.00000000000E+00 0.  1.
          1   -1    0    0  501    0 -0.00000000000E+00 -0.00000000000E+00 -0.12365976477E+04  0.12365976477E+04  0.00000000000E+00 0. -1.
          2    1    1    2  501    0  0.60151728262E+02  0.56483229111E+02  0.29200021152E+02  0.87528434346E+02  0.00000000000E+00 0.  1.
          1    1    1    2  502    0 -0.51667243711E+02 -0.13340125864E+03 -0.10848860765E+04  0.10942774780E+04  0.00000000000E+00 0. -1.
         22    1    1    2    0    0 -0.84236384935E+01 -0.14143492870E+02 -0.73339748942E+02  0.75164585084E+02  0.00000000000E+00 0. -1.
         22    1    1    2    0    0 -0.60846057416E-01  0.91061522399E+02  0.39480963509E+01  0.91147090072E+02  0.00000000000E+00 0. -1.
</event>
<event>
 6    1  0.1715574E-005  0.6858865E+02  0.7818608E-02  0.1397546E+00
          2   -1    0    0  502    0  0.00000000000E+00  0.00000000000E+00  0.11141803978E+04  0.11141803978E+04  0.00000000000E+00 0.  1.
          1   -1    0    0  501    0 -0.00000000000E+00 -0.00000000000E+00 -0.19189676068E+02  0.19189676068E+02  0.00000000000E+00 0.  1.
          2    1    1    2  501    0  0.85086671883E+02 -0.35761379170E+01  0.29886946081E+03  0.31076596515E+03  0.00000000000E+00 0.  1.
          1    1    1    2  502    0 -0.20955627267E+02 -0.39070316295E+02  0.32693979257E+03  0.32993219894E+03  0.00000000000E+00 0.  1.
         22    1    1    2    0    0 -0.32999108097E+02  0.68312586683E+02  0.42925875917E+03  0.43591126730E+03  0.00000000000E+00 0.  1.
         22    1    1    2    0    0 -0.31131936519E+02 -0.25666132471E+02  0.39922709232E+02  0.56760642525E+02  0.00000000000E+00 0.  1.
</event>
<event>
 6    1  0.1715574E-005  0.1022262E+03  0.7818608E-02  0.1288259E+00
          2   -1    0    0  502    0  0.00000000000E+00  0.00000000000E+00  0.19167255701E+03  0.19167255701E+03  0.00000000000E+00 0. -1.
          1   -1    0    0  501    0 -0.00000000000E+00 -0.00000000000E+00 -0.20880194525E+03  0.20880194525E+03  0.00000000000E+00 0.  1.
          2    1    1    2  501    0  0.29365166425E+02  0.10735874108E+02  0.11269815695E+03  0.11695489119E+03  0.00000000000E+00 0. -1.
          1    1    1    2  502    0 -0.37383510997E+02 -0.52145299994E+02 -0.13692185059E+03  0.15120929990E+03  0.00000000000E+00 0.  1.
         22    1    1    2    0    0  0.12228449258E+02  0.56323753647E+02  0.56391660623E+02  0.80634481358E+02  0.00000000000E+00 0.  1.
         22    1    1    2    0    0 -0.42101046865E+01 -0.14914327760E+02 -0.49297355229E+02  0.51675829811E+02  0.00000000000E+00 0.  1.
</event>
<event>
 6    1  0.1715574E-005  0.1219842E+03  0.7818608E-02  0.1241235E+00
          2   -1    0    0  502    0  0.00000000000E+00  0.00000000000E+00  0.11418376209E+03  0.11418376209E+03  0.00000000000E+00 0. -1.
          1   -1    0    0  501    0 -0.00000000000E+00 -0.00000000000E+00 -0.21528816316E+03  0.21528816316E+03  0.00000000000E+00 0. -1.
          2    1    1    2  501    0  0.75600785737E+02 -0.29818754283E+02  0.34066752206E+02  0.88120261670E+02  0.00000000000E+00 0. -1.
          1    1    1    2  502    0 -0.63961285799E+02 -0.68539937005E+01 -0.80876661629E+02  0.10333952635E+03  0.00000000000E+00 0. -1.
         22    1    1    2    0    0 -0.48357953121E+02  0.31363979959E+02 -0.75726282899E+02  0.95166489851E+02  0.00000000000E+00 0. -1.
         22    1    1    2    0    0  0.36718453184E+02  0.53087680243E+01  0.21431791251E+02  0.42845647368E+02  0.00000000000E+00 0. -1.
</event>
<event>
 6    1  0.1715574E-005  0.2142431E+03  0.7818608E-02  0.1138915E+00
          2   -1    0    0  502    0  0.00000000000E+00  0.00000000000E+00  0.46622342824E+02  0.46622342824E+02  0.00000000000E+00 0. -1.
          1   -1    0    0  501    0 -0.00000000000E+00 -0.00000000000E+00 -0.10190783039E+04  0.10190783039E+04  0.00000000000E+00 0. -1.
          2    1    1    2  501    0 -0.79261756706E+01  0.14763130235E+03 -0.28336819496E+03  0.31961752081E+03  0.00000000000E+00 0. -1.
          1    1    1    2  502    0 -0.11756308205E+02 -0.16123640290E+03 -0.40895809104E+03  0.43975232647E+03  0.00000000000E+00 0. -1.
         22    1    1    2    0    0 -0.10798933929E+02 -0.43292558439E+02 -0.19184904449E+03  0.19696933381E+03  0.00000000000E+00 0.  1.
         22    1    1    2    0    0  0.30481417804E+02  0.56897658987E+02 -0.88280630575E+02  0.10936146563E+03  0.00000000000E+00 0. -1.
</event>
<event>
 6    1  0.1715574E-005  0.4356296E+02  0.7818608E-02  0.1507087E+00
          2   -1    0    0  502    0  0.00000000000E+00  0.00000000000E+00  0.32161932828E+03  0.32161932828E+03  0.00000000000E+00 0.  1.
          1   -1    0    0  501    0 -0.00000000000E+00 -0.00000000000E+00 -0.28293115750E+03  0.28293115750E+03  0.00000000000E+00 0.  1.
          2    1    1    2  501    0 -0.19523371302E+02  0.53103025024E+02  0.20599488238E+03  0.21362346514E+03  0.00000000000E+00 0.  1.
          1    1    1    2  502    0  0.29352339851E+02 -0.39154645310E+02 -0.23981727842E+03  0.24475901032E+03  0.00000000000E+00 0.  1.
         22    1    1    2    0    0 -0.28116870349E+02 -0.47156276478E+01  0.10442349498E+03  0.10824537795E+03  0.00000000000E+00 0.  1.
         22    1    1    2    0    0  0.18287901800E+02 -0.92327520663E+01 -0.31912928148E+02  0.37922632371E+02  0.00000000000E+00 0. -1.
</event>
<event>
 6    1  0.1715574E-005  0.1616980E+03  0.7818608E-02  0.1283101E+00
          2   -1    0    0  502    0  0.00000000000E+00  0.00000000000E+00  0.10032106335E+04  0.10032106335E+04  0.00000000000E+00 0.  1.
          1   -1    0    0  501    0 -0.00000000000E+00 -0.00000000000E+00 -0.68946895732E+02  0.68946895732E+02  0.00000000000E+00 0.  1.
          2    1    1    2  501    0 -0.89569851744E+02 -0.37012077118E+02  0.39360397406E+02  0.10460350414E+03  0.00000000000E+00 0.  1.
          1    1    1    2  502    0 -0.11642640018E+03 -0.10808505221E+02  0.36487886389E+03  0.38315599402E+03  0.00000000000E+00 0.  1.
         22    1    1    2    0    0 -0.39772989201E+01 -0.22070990840E+02  0.77182173110E+02  0.80374345344E+02  0.00000000000E+00 0.  1.
         22    1    1    2    0    0  0.20997355085E+03  0.69891573179E+02  0.45284230336E+03  0.50402368573E+03  0.00000000000E+00 0.  1.
</event>
<event>
 6    1  0.1715574E-005  0.5980953E+02  0.7818608E-02  0.1415506E+00
          2   -1    0    0  502    0  0.00000000000E+00  0.00000000000E+00  0.14398186815E+03  0.14398186815E+03  0.00000000000E+00 0. -1.
          1   -1    0    0  501    0 -0.00000000000E+00 -0.00000000000E+00 -0.69575760806E+02  0.69575760806E+02  0.00000000000E+00 0.  1.
          2    1    1    2  501    0  0.23428323052E+02  0.16057973922E+01  0.33639019918E+02  0.41024974922E+02  0.00000000000E+00 0. -1.
          1    1    1    2  502    0 -0.15848044325E+02 -0.18604370616E+02 -0.20110747127E+02  0.31650043680E+02  0.00000000000E+00 0.  1.
         22    1    1    2    0    0  0.28094947308E+01  0.33656120838E+02  0.95381731595E+02  0.10118449710E+03  0.00000000000E+00 0. -1.
         22    1    1    2    0    0 -0.10389773458E+02 -0.16657547614E+02 -0.34503897044E+02  0.39698113258E+02  0.00000000000E+00 0.  1.
</event>
<event>
 6    1  0.1715574E-005  0.1354360E+03  0.7818608E-02  0.1221486E+00
          2   -1    0    0  502    0  0.00000000000E+00  0.00000000000E+00  0.91592580133E+02  0.91592580133E+02  0.00000000000E+00 0.  1.
          1   -1    0    0  501    0 -0.00000000000E+00 -0.00000000000E+00 -0.33007219082E+03  0.33007219082E+03  0.00000000000E+00 0.  1.
          2    1    1    2  501    0 -0.77547069135E+02 -0.69185080508E+02  0.44046212078E+01  0.10401694085E+03  0.00000000000E+00 0.  1.
          1    1    1    2  502    0  0.47275257290E+02  0.54745336755E+02 -0.88989462793E+02  0.11467836037E+03  0.00000000000E+00 0.  1.
         22    1    1    2    0    0  0.35905810227E+02  0.37495210784E+02 -0.16767314493E+03  0.17552607092E+03  0.00000000000E+00 0.  1.
         22    1    1    2    0    0 -0.56339983816E+01 -0.23055467031E+02  0.13778375835E+02  0.27443398813E+02  0.00000000000E+00 0.  1.
</event>
<event>
 6    1  0.1715574E-005  0.5567916E+02  0.7818608E-02  0.1419403E+00
          2   -1    0    0  502    0  0.00000000000E+00  0.00000000000E+00  0.20002846736E+03  0.20002846736E+03  0.00000000000E+00 0. -1.
          1   -1    0    0  501    0 -0.00000000000E+00 -0.00000000000E+00 -0.16775206066E+03  0.16775206066E+03  0.00000000000E+00 0.  1.
          2    1    1    2  501    0 -0.29476414486E+02  0.12227920141E+02  0.10914026551E+03  0.11371006375E+03  0.00000000000E+00 0. -1.
          1    1    1    2  502    0  0.37069375680E+02 -0.82675175965E+01 -0.11877596472E+03  0.12470052227E+03  0.00000000000E+00 0.  1.
         22    1    1    2    0    0  0.15212081584E+02  0.27278359682E+01 -0.40632423851E+02  0.43472317436E+02  0.00000000000E+00 0. -1.
         22    1    1    2    0    0 -0.22805042778E+02 -0.66882385125E+01  0.82544529763E+02  0.85897624555E+02  0.00000000000E+00 0. -1.
</event>
<event>
 6    1  0.1715574E-005  0.6999357E+02  0.7818608E-02  0.1362474E+00
          2   -1    0    0  502    0  0.00000000000E+00  0.00000000000E+00  0.18157426352E+03  0.18157426352E+03  0.00000000000E+00 0.  1.
          1   -1    0    0  501    0 -0.00000000000E+00 -0.00000000000E+00 -0.99528539401E+02  0.99528539401E+02  0.00000000000E+00 0.  1.
          2    1    1    2  501    0 -0.41198791811E+02 -0.37554326675E+01  0.19210308019E+02  0.45612275271E+02  0.00000000000E+00 0.  1.
          1    1    1    2  502    0  0.54923934885E+02 -0.43465106269E+02  0.66791689500E+02  0.96783179698E+02  0.00000000000E+00 0.  1.
         22    1    1    2    0    0 -0.29897897986E+02 -0.18084259394E+02  0.43927177939E+02  0.56129508313E+02  0.00000000000E+00 0.  1.
         22    1    1    2    0    0  0.16172754912E+02  0.65304798330E+02 -0.47883451343E+02  0.82577839636E+02  0.00000000000E+00 0.  1.
</event>
<event>
 6    1  0.1715574E-005  0.2921912E+02  0.7818608E-02  0.1615176E+00
          2   -1    0    0  502    0  0.00000000000E+00  0.00000000000E+00  0.22858529263E+03  0.22858529263E+03  0.00000000000E+00 0. -1.
          1   -1    0    0  501    0 -0.00000000000E+00 -0.00000000000E+00 -0.60251200320E+02  0.60251200320E+02  0.00000000000E+00 0.  1.
          2    1    1    2  501    0 -0.13231369024E+02  0.30066708304E+02  0.12445398296E+03  0.12871623809E+03  0.00000000000E+00 0. -1.
          1    1    1    2  502    0  0.12674459645E+01 -0.26499826730E+02 -0.91581441547E+01  0.28066329299E+02  0.00000000000E+00 0.  1.
         22    1    1    2    0    0  0.16486714333E+02  0.15440038558E+02  0.88624199557E+02  0.91457396023E+02  0.00000000000E+00 0. -1.
         22    1    1    2    0    0 -0.45227912729E+01 -0.19006920132E+02 -0.35585946052E+02  0.40596529534E+02  0.00000000000E+00 0.  1.
</event>
<event>
 6    1  0.1715574E-005  0.1745536E+03  0.7818608E-02  0.1175232E+00
          2   -1    0    0  502    0  0.00000000000E+00  0.00000000000E+00  0.33705981394E+03  0.33705981394E+03  0.00000000000E+00 0. -1.
          1   -1    0    0  501    0 -0.00000000000E+00 -0.00000000000E+00 -0.71746159673E+03  0.71746159673E+03  0.00000000000E+00 0. -1.
          2    1    1    2  501    0 -0.99881963014E+02  0.11309282852E+03  0.28402283786E+03  0.32161369191E+03  0.00000000000E+00 0. -1.
          1    1    1    2  502    0  0.56523627335E+02 -0.10353696943E+03 -0.52162515200E+03  0.53479680598E+03  0.00000000000E+00 0. -1.
         22    1    1    2    0    0 -0.51932576708E+01  0.14302369254E+02  0.20815908752E+02  0.25784292674E+02  0.00000000000E+00 0. -1.
         22    1    1    2    0    0  0.48551593350E+02 -0.23858228341E+02 -0.16361537740E+03  0.17232662011E+03  0.00000000000E+00 0. -1.
</event>
<event>
 6    1  0.1715574E-005  0.9240789E+02  0.7818608E-02  0.1428643E+00
          2   -1    0    0  502    0  0.00000000000E+00  0.00000000000E+00  0.40943525366E+03  0.40943525366E+03  0.00000000000E+00 0. -1.
          1   -1    0    0  501    0 -0.00000000000E+00 -0.00000000000E+00 -0.18224305418E+03  0.18224305418E+03  0.00000000000E+00 0.  1.
          2    1    1    2  501    0 -0.13802972352E+01 -0.85768948593E+02  0.33370251652E+03  0.34455128398E+03  0.00000000000E+00 0. -1.
          1    1    1    2  502    0 -0.28528983497E+01  0.56109218556E+02 -0.10206676033E+03  0.11650754053E+03  0.00000000000E+00 0.  1.
         22    1    1    2    0    0  0.13551839631E+02  0.33749928559E+02 -0.62157196340E+02  0.72015464256E+02  0.00000000000E+00 0. -1.
         22    1    1    2    0    0 -0.93186440464E+01 -0.40901985221E+01  0.57713639638E+02  0.58604019069E+02  0.00000000000E+00 0.  1.
</event>
<event>
 6    1  0.1715574E-005  0.1171199E+03  0.7818608E-02  0.1265663E+00
          2   -1    0    0  502    0  0.00000000000E+00  0.00000000000E+00  0.35895986590E+03  0.35895986590E+03  0.00000000000E+00 0.  1.
          1   -1    0    0  501    0 -0.00000000000E+00 -0.00000000000E+00 -0.39103746559E+02  0.39103746559E+02  0.00000000000E+00 0. -1.
          2    1    1    2  501    0 -0.51154400593E+00  0.55716316841E+02  0.14758075892E+03  0.15774869268E+03  0.00000000000E+00 0.  1.
          1    1    1    2  502    0  0.65768730291E+01 -0.20691430240E+02  0.75907150247E+02  0.78951162138E+02  0.00000000000E+00 0. -1.
         22    1    1    2    0    0 -0.22199942291E+02 -0.54973479764E+02 -0.23823536520E+01  0.59334614889E+02  0.00000000000E+00 0. -1.
         22    1    1    2    0    0  0.16134613268E+02  0.19948593163E+02  0.98750563832E+02  0.10202914276E+03  0.00000000000E+00 0. -1.
</event>
<event>
 6    1  0.1715574E-005  0.1626423E+03  0.7818608E-02  0.1187845E+00
          2   -1    0    0  502    0  0.00000000000E+00  0.00000000000E+00  0.82374690951E+03  0.82374690951E+03  0.00000000000E+00 0.  1.
          1   -1    0    0  501    0 -0.00000000000E+00 -0.00000000000E+00 -0.30793051720E+02  0.30793051720E+02  0.00000000000E+00 0.  1.
          2    1    1    2  501    0 -0.30641621254E+02  0.85240969368E+02  0.17508443457E+03  0.19712810819E+03  0.00000000000E+00 0.  1.
          1    1    1    2  502    0  0.17384582330E+02 -0.91232249777E+02  0.31643144460E+03  0.32977932960E+03  0.00000000000E+00 0.  1.
         22    1    1    2    0    0  0.39498008215E+02 -0.49786401316E+02  0.11670565160E+03  0.13288712325E+03  0.00000000000E+00 0.  1.
         22    1    1    2    0    0 -0.26240969291E+02  0.55777681725E+02  0.18473232702E+03  0.19474540018E+03  0.00000000000E+00 0.  1.
</event>
<event>
 6    1  0.1715574E-005  0.9166818E+02  0.7818608E-02  0.1325659E+00
          2   -1    0    0  502    0  0.00000000000E+00  0.00000000000E+00  0.32925782394E+03  0.32925782394E+03  0.00000000000E+00 0.  1.
          1   -1    0    0  501    0 -0.00000000000E+00 -0.00000000000E+00 -0.83497620511E+02  0.83497620511E+02  0.00000000000E+00 0. -1.
          2    1    1    2  501    0 -0.15846187688E+02 -0.87614942102E+02  0.50382919953E+02  0.10230307115E+03  0.00000000000E+00 0.  1.
          1    1    1    2  502    0 -0.28684476777E+02  0.68083752139E+02  0.37980117977E+01  0.73977168146E+02  0.00000000000E+00 0. -1.
         22    1    1    2    0    0 -0.11563464620E+02  0.13128601554E+02 -0.14549464727E+02  0.22754358189E+02  0.00000000000E+00 0.  1.
         22    1    1    2    0    0  0.56094129085E+02  0.64025884088E+01  0.20612873641E+03  0.21372084697E+03  0.00000000000E+00 0.  1.
</event>
<event>
 6    1  0.1715574E-005  0.8374196E+02  0.7818608E-02  0.1320655E+00
          2   -1    0    0  502    0  0.00000000000E+00  0.00000000000E+00  0.86202941028E+02  0.86202941028E+02  0.00000000000E+00 0.  1.
          1   -1    0    0  501    0 -0.00000000000E+00 -0.00000000000E+00 -0.54990166837E+03  0.54990166837E+03  0.00000000000E+00 0. -1.
          2    1    1    2  501    0  0.92221499612E+01 -0.59000680463E+02  0.30471439502E+02  0.67042053745E+02  0.00000000000E+00 0.  1.
          1    1    1    2  502    0 -0.49970923759E+01  0.60704588215E+02 -0.42693743282E+03  0.43126046597E+03  0.00000000000E+00 0. -1.
         22    1    1    2    0    0  0.38041876328E+01 -0.19279106715E+02  0.31537973458E+02  0.37159111522E+02  0.00000000000E+00 0. -1.
         22    1    1    2    0    0 -0.80292452181E+01  0.17575198963E+02 -0.98770707477E+02  0.10064297816E+03  0.00000000000E+00 0.  1.
</event>
<event>
 6    1  0.1715574E-005  0.4953048E+02  0.7818608E-02  0.1479537E+00
          2   -1    0    0  502    0  0.00000000000E+00  0.00000000000E+00  0.18689549002E+03  0.18689549002E+03  0.00000000000E+00 0. -1.
          1   -1    0    0  501    0 -0.00000000000E+00 -0.00000000000E+00 -0.15133505375E+03  0.15133505375E+03  0.00000000000E+00 0. -1.
          2    1    1    2  501    0  0.55681652323E+02 -0.14049849226E+02  0.13414583156E+03  0.14592103616E+03  0.00000000000E+00 0. -1.
          1    1    1    2  502    0 -0.15242126437E+02  0.17438547592E+02 -0.43432032888E+02  0.49221609495E+02  0.00000000000E+00 0. -1.
         22    1    1    2    0    0 -0.16489584646E+02  0.16838511041E+02 -0.91849291872E+02  0.94824755594E+02  0.00000000000E+00 0. -1.
         22    1    1    2    0    0 -0.23949941240E+02 -0.20227209407E+02  0.36695929476E+02  0.48263142520E+02  0.00000000000E+00 0. -1.
</event>
<event>
 6    1  0.1715574E-005  0.1144555E+03  0.7818608E-02  0.1312445E+00
          2   -1    0    0  502    0  0.00000000000E+00  0.00000000000E+00  0.12698118744E+03  0.12698118744E+03  0.00000000000E+00 0.  1.
          1   -1    0    0  501    0 -0.00000000000E+00 -0.00000000000E+00 -0.70388266962E+03  0.70388266962E+03  0.00000000000E+00 0. -1.
          2    1    1    2  501    0 -0.44876391868E+02  0.61855132471E+02  0.45049277145E+02  0.88709556032E+02  0.00000000000E+00 0.  1.
          1    1    1    2  502    0  0.47387588408E+02 -0.61443476765E+02 -0.61336102139E+03  0.61824964774E+03  0.00000000000E+00 0. -1.
         22    1    1    2    0    0 -0.38909032523E-01 -0.36742664650E+02 -0.54237554846E+02  0.65511352262E+02  0.00000000000E+00 0. -1.
         22    1    1    2    0    0 -0.24722875071E+01  0.36331008943E+02  0.45647816909E+02  0.58393301028E+02  0.00000000000E+00 0.  1.
</event>
<event>
 6    1  0.1715574E-005  0.1063390E+03  0.7818608E-02  0.1307765E+00
          2   -1    0    0  502    0  0.00000000000E+00  0.00000000000E+00  0.40970005285E+03  0.40970005285E+03  0.00000000000E+00 0. -1.
          1   -1    0    0  501    0 -0.00000000000E+00 -0.00000000000E+00 -0.94339534351E+02  0.94339534351E+02  0.00000000000E+00 0.  1.
          2    1    1    2  501    0 -0.31840102682E+02 -0.95201891963E+02  0.28256877704E+03  0.29987048226E+03  0.00000000000E+00 0. -1.
          1    1    1    2  502    0 -0.34725938193E+00  0.75160399902E+02  0.73678209717E+01  0.75521461111E+02  0.00000000000E+00 0.  1.
         22    1    1    2    0    0  0.38655746296E+02  0.31515754643E+02 -0.38735425603E+02  0.63150160009E+02  0.00000000000E+00 0. -1.
         22    1    1    2    0    0 -0.64683842320E+01 -0.11474262582E+02  0.64159346088E+02  0.65497483820E+02  0.00000000000E+00 0.  1.
</event>
<event>
 6    1  0.1810699E-005  0.1021883E+03  0.7818608E-02  0.1339887E+00
          2   -1    0    0  502    0  0.00000000000E+00  0.00000000000E+00  0.15769685756E+03  0.15769685756E+03  0.00000000000E+00 0.  1.
          1   -1    0    0  501    0 -0.00000000000E+00 -0.00000000000E+00 -0.50843025973E+03  0.50843025973E+03  0.00000000000E+00 0.  1.
          2    1    1    2  501    0  0.87237331367E+02 -0.16499759402E+02  0.61167608368E+02  0.10781498207E+03  0.00000000000E+00 0.  1.
          1    1    1    2  502    0 -0.92600795979E+02 -0.47188761808E+01 -0.42316156041E+03  0.43320074033E+03  0.00000000000E+00 0.  1.
         22    1    1    2    0    0  0.11023869685E+02  0.29789297475E+02  0.63963940799E+02  0.71416480377E+02  0.00000000000E+00 0.  1.
         22    1    1    2    0    0 -0.56604050730E+01 -0.85706618927E+01 -0.52703390918E+02  0.53694914519E+02  0.00000000000E+00 0.  1.
</event>
<event>
 6    1  0.1715574E-005  0.2316251E+02  0.7818608E-02  0.1689469E+00
          2   -1    0    0  502    0  0.00000000000E+00  0.00000000000E+00  0.14893107087E+03  0.14893107087E+03  0.00000000000E+00 0.  1.
          1   -1    0    0  501    0 -0.00000000000E+00 -0.00000000000E+00 -0.65128291964E+02  0.65128291964E+02  0.00000000000E+00 0.  1.
          2    1    1    2  501    0 -0.14287406804E+02  0.17836708771E+02  0.53245742361E+02  0.57942965514E+02  0.00000000000E+00 0.  1.
          1    1    1    2  502    0  0.77043761778E+00 -0.20351182924E+02 -0.83784805076E+01  0.22021879033E+02  0.00000000000E+00 0.  1.
         22    1    1    2    0    0  0.10549696629E+02 -0.15473982377E+02 -0.44715900392E+02  0.48479397454E+02  0.00000000000E+00 0.  1.
         22    1    1    2    0    0  0.29672725569E+01  0.17988456530E+02  0.83651417445E+02  0.85615120833E+02  0.00000000000E+00 0.  1.
</event>
<event>
 6    1  0.1715574E-005  0.4446937E+02  0.7818608E-02  0.1540071E+00
          2   -1    0    0  502    0  0.00000000000E+00  0.00000000000E+00  0.81136531344E+02  0.81136531344E+02  0.00000000000E+00 0.  1.
          1   -1    0    0  501    0 -0.00000000000E+00 -0.00000000000E+00 -0.39557672370E+03  0.39557672370E+03  0.00000000000E+00 0.  1.
          2    1    1    2  501    0 -0.10050040825E+02 -0.24555939408E+02  0.34303190316E+02  0.43367111348E+02  0.00000000000E+00 0.  1.
          1    1    1    2  502    0  0.19258939255E+02  0.16923080341E+02 -0.29974303682E+03  0.30083747359E+03  0.00000000000E+00 0.  1.
         22    1    1    2    0    0  0.37332485203E+01  0.18686930519E+02 -0.87956232680E+02  0.89996874302E+02  0.00000000000E+00 0.  1.
         22    1    1    2    0    0 -0.12942146950E+02 -0.11054071452E+02  0.38955886836E+02  0.42511795804E+02  0.00000000000E+00 0.  1.
</event>
<event>
 6    1  0.1715574E-005  0.1220991E+03  0.7818608E-02  0.1342702E+00
          2   -1    0    0  502    0  0.00000000000E+00  0.00000000000E+00  0.77627795240E+02  0.77627795240E+02  0.00000000000E+00 0. -1.
          1   -1    0    0  501    0 -0.00000000000E+00 -0.00000000000E+00 -0.47872488538E+03  0.47872488538E+03  0.00000000000E+00 0. -1.
          2    1    1    2  501    0  0.53937993055E+02  0.40771074097E+02 -0.85678652206E+01  0.68154206710E+02  0.00000000000E+00 0. -1.
          1    1    1    2  502    0 -0.83480559385E+02 -0.77021923555E+02 -0.31617371400E+03  0.33595713704E+03  0.00000000000E+00 0. -1.
         22    1    1    2    0    0 -0.15045101224E+02  0.93921368763E+01 -0.95233823095E+02  0.96871297954E+02  0.00000000000E+00 0.  1.
         22    1    1    2    0    0  0.44587667555E+02  0.26858712582E+02  0.18878312172E+02  0.55370038920E+02  0.00000000000E+00 0. -1.
</event>
<event>
 6    1  0.1715574E-005  0.2232065E+03  0.7818608E-02  0.1151160E+00
          2   -1    0    0  502    0  0.00000000000E+00  0.00000000000E+00  0.67930672583E+03  0.67930672583E+03  0.00000000000E+00 0. -1.
          1   -1    0    0  501    0 -0.00000000000E+00 -0.00000000000E+00 -0.48808669843E+02  0.48808669843E+02  0.00000000000E+00 0. -1.
          2    1    1    2  501    0  0.61466427198E+02 -0.82458012562E+02  0.15021590446E+03  0.18205016743E+03  0.00000000000E+00 0. -1.
          1    1    1    2  502    0 -0.10349418667E+03  0.52196218600E+01  0.21625968776E+03  0.23980522029E+03  0.00000000000E+00 0. -1.
         22    1    1    2    0    0  0.36693133690E+02  0.11306669050E+03  0.20705298090E+03  0.23874965855E+03  0.00000000000E+00 0. -1.
         22    1    1    2    0    0  0.53346257772E+01 -0.35828299797E+02  0.56969482860E+02  0.67510349398E+02  0.00000000000E+00 0. -1.
</event>
<event>
 6    1  0.1715574E-005  0.8335335E+02  0.7818608E-02  0.1361696E+00
          2   -1    0    0  502    0  0.00000000000E+00  0.00000000000E+00  0.44825406464E+03  0.44825406464E+03  0.00000000000E+00 0. -1.
          1   -1    0    0  501    0 -0.00000000000E+00 -0.00000000000E+00 -0.52181986084E+02  0.52181986084E+02  0.00000000000E+00 0. -1.
          2    1    1    2  501    0 -0.56350983281E+02  0.52557410259E+01  0.27995035013E+03  0.28561382087E+03  0.00000000000E+00 0. -1.
          1    1    1    2  502    0  0.52030922147E+02  0.13809164367E+02  0.24637556513E+02  0.59202356971E+02  0.00000000000E+00 0. -1.
         22    1    1    2    0    0  0.37554045390E+02 -0.14783663808E+02 -0.15711084953E+02  0.43309366552E+02  0.00000000000E+00 0. -1.
         22    1    1    2    0    0 -0.33233984256E+02 -0.42812415858E+01  0.10719525687E+03  0.11231050634E+03  0.00000000000E+00 0. -1.
</event>
<event>
 6    1  0.1715574E-005  0.6810226E+02  0.7818608E-02  0.1395942E+00
          2   -1    0    0  502    0  0.00000000000E+00  0.00000000000E+00  0.83253639762E+02  0.83253639762E+02  0.00000000000E+00 0. -1.
          1   -1    0    0  501    0 -0.00000000000E+00 -0.00000000000E+00 -0.28990721626E+03  0.28990721626E+03  0.00000000000E+00 0.  1.
          2    1    1    2  501    0 -0.44795570569E+02 -0.36438855872E+01  0.29386180679E+02  0.53697939064E+02  0.00000000000E+00 0. -1.
          1    1    1    2  502    0  0.36171343627E+02  0.32930229236E+02 -0.16830733150E+03  0.17527157195E+03  0.00000000000E+00 0.  1.
         22    1    1    2    0    0 -0.24273354517E+02 -0.27214707486E+01  0.29418855641E+02  0.38237039763E+02  0.00000000000E+00 0. -1.
         22    1    1    2    0    0  0.32897581460E+02 -0.26564872901E+02 -0.97151281322E+02  0.10595430525E+03  0.00000000000E+00 0.  1.
</event>
<event>
 6    1  0.1715574E-005  0.1107856E+03  0.7818608E-02  0.1265409E+00
          2   -1    0    0  502    0  0.00000000000E+00  0.00000000000E+00  0.68571841936E+02  0.68571841936E+02  0.00000000000E+00 0.  1.
          1   -1    0    0  501    0 -0.00000000000E+00 -0.00000000000E+00 -0.56509740480E+03  0.56509740480E+03  0.00000000000E+00 0. -1.
          2    1    1    2  501    0 -0.35725882567E+02  0.28998150466E+02  0.99011360293E+01  0.47066590171E+02  0.00000000000E+00 0.  1.
          1    1    1    2  502    0  0.51718765651E+02  0.31061512183E+02 -0.40899091195E+03  0.41341651433E+03  0.00000000000E+00 0. -1.
         22    1    1    2    0    0 -0.42855839362E+02 -0.29252981142E+02  0.14620122579E+02  0.53908328274E+02  0.00000000000E+00 0.  1.
         22    1    1    2    0    0  0.26862956278E+02 -0.30806681508E+02 -0.11205590952E+03  0.11927781397E+03  0.00000000000E+00 0.  1.
</event>
<event>
 6    1  0.1715574E-005  0.1519770E+03  0.7818608E-02  0.1198581E+00
          2   -1    0    0  502    0  0.00000000000E+00  0.00000000000E+00  0.41689969739E+03  0.41689969739E+03  0.00000000000E+00 0. -1.
          1   -1    0    0  501    0 -0.00000000000E+00 -0.00000000000E+00 -0.10416502625E+03  0.10416502625E+03  0.00000000000E+00 0. -1.
          2    1    1    2  501    0  0.88207056576E+02 -0.58768934487E+02 -0.37311655113E+02  0.11236739784E+03  0.00000000000E+00 0. -1.
          1    1    1    2  502    0 -0.44558562006E+02  0.38564772078E+02  0.19660802975E+03  0.20524966372E+03  0.00000000000E+00 0. -1.
         22    1    1    2    0    0 -0.82128972518E+02  0.17986370673E+02  0.13867846055E+03  0.16217395931E+03  0.00000000000E+00 0. -1.
         22    1    1    2    0    0  0.38480477949E+02  0.22177917363E+01  0.14759835947E+02  0.41273702773E+02  0.00000000000E+00 0.  1.
</event>
<event>
 6    1  0.1715574E-005  0.8113017E+02  0.7818608E-02  0.1327391E+00
          2   -1    0    0  502    0  0.00000000000E+00  0.00000000000E+00  0.37713315372E+03  0.37713315372E+03  0.00000000000E+00 0. -1.
          1   -1    0    0  501    0 -0.00000000000E+00 -0.00000000000E+00 -0.35204447486E+02  0.35204447486E+02  0.00000000000E+00 0.  1.
          2    1    1    2  501    0 -0.11109259573E+02 -0.49527305345E+02  0.18393660024E+03  0.19081153668E+03  0.00000000000E+00 0. -1.
          1    1    1    2  502    0  0.21600400795E+02  0.52113688666E+01  0.21174692200E+02  0.30693700815E+02  0.00000000000E+00 0.  1.
         22    1    1    2    0    0  0.16069456200E+02  0.51334405051E+02  0.26229393343E+01  0.53854696873E+02  0.00000000000E+00 0.  1.
         22    1    1    2    0    0 -0.26560597422E+02 -0.70184685727E+01  0.13419447446E+03  0.13697766683E+03  0.00000000000E+00 0.  1.
</event>
<event>
 6    1  0.1715574E-005  0.6739872E+02  0.7818608E-02  0.1371463E+00
          2   -1    0    0  502    0  0.00000000000E+00  0.00000000000E+00  0.66287928514E+02  0.66287928514E+02  0.00000000000E+00 0.  1.
          1   -1    0    0  501    0 -0.00000000000E+00 -0.00000000000E+00 -0.33226112570E+03  0.33226112570E+03  0.00000000000E+00 0.  1.
          2    1    1    2  501    0 -0.60495885755E+01  0.22894638657E+02  0.87961696688E+01  0.25261326213E+02  0.00000000000E+00 0.  1.
          1    1    1    2  502    0 -0.16176757111E+01 -0.48556446766E+02 -0.22770905404E+03  0.23283418712E+03  0.00000000000E+00 0.  1.
         22    1    1    2    0    0  0.17301744186E+02  0.38760437758E+02  0.36097875384E+02  0.55720539251E+02  0.00000000000E+00 0.  1.
         22    1    1    2    0    0 -0.96344798996E+01 -0.13098629649E+02 -0.83158188196E+02  0.84733001633E+02  0.00000000000E+00 0.  1.
</event>
<event>
 6    1  0.1715574E-005  0.1048050E+03  0.7818608E-02  0.1278532E+00
          2   -1    0    0  502    0  0.00000000000E+00  0.00000000000E+00  0.21427726102E+02  0.21427726102E+02  0.00000000000E+00 0.  1.
          1   -1    0    0  501    0 -0.00000000000E+00 -0.00000000000E+00 -0.47805798992E+03  0.47805798992E+03  0.00000000000E+00 0.  1.
          2    1    1    2  501    0  0.25957927077E+02 -0.27533335185E+02 -0.67421177797E+02  0.77314382491E+02  0.00000000000E+00 0.  1.
          1    1    1    2  502    0 -0.26681264122E+02  0.41895590653E+01 -0.31027469406E+02  0.41135703690E+02  0.00000000000E+00 0.  1.
         22    1    1    2    0    0  0.48543602980E+02 -0.17821973413E+02 -0.76262735438E+02  0.92141787171E+02  0.00000000000E+00 0.  1.
         22    1    1    2    0    0 -0.47820265934E+02  0.41165749533E+02 -0.28191888118E+03  0.28889384267E+03  0.00000000000E+00 0.  1.
</event>
<event>
 6    1  0.1715574E-005  0.8522405E+02  0.7818608E-02  0.1337669E+00
          2   -1    0    0  502    0  0.00000000000E+00  0.00000000000E+00  0.23510310301E+02  0.23510310301E+02  0.00000000000E+00 0.  1.
          1   -1    0    0  501    0 -0.00000000000E+00 -0.00000000000E+00 -0.51036570419E+03  0.51036570419E+03  0.00000000000E+00 0. -1.
          2    1    1    2  501    0  0.11041921071E+02  0.19334167383E+02 -0.16441641756E+02  0.27677818429E+02  0.00000000000E+00 0.  1.
          1    1    1    2  502    0  0.26916172297E+02 -0.81725276391E+01 -0.24119504282E+03  0.24282981535E+03  0.00000000000E+00 0. -1.
         22    1    1    2    0    0 -0.30341380807E+02 -0.43048345310E+02 -0.22407790409E+03  0.23018398408E+03  0.00000000000E+00 0. -1.
         22    1    1    2    0    0 -0.76167125613E+01  0.31886705566E+02 -0.51408052209E+01  0.33184396641E+02  0.00000000000E+00 0.  1.
</event>
<event>
 6    1  0.1715574E-005  0.2137128E+03  0.7818608E-02  0.1171881E+00
          2   -1    0    0  502    0  0.00000000000E+00  0.00000000000E+00  0.39023391889E+02  0.39023391889E+02  0.00000000000E+00 0. -1.
          1   -1    0    0  501    0 -0.00000000000E+00 -0.00000000000E+00 -0.63680745587E+03  0.63680745587E+03  0.00000000000E+00 0. -1.
          2    1    1    2  501    0 -0.67735393915E+02 -0.63341676757E+02 -0.26504570578E+03  0.28080149172E+03  0.00000000000E+00 0. -1.
          1    1    1    2  502    0 -0.25585631338E+02  0.45156934518E+02 -0.48847211171E+02  0.71272879170E+02  0.00000000000E+00 0. -1.
         22    1    1    2    0    0  0.11359303120E+03 -0.15591952416E+02 -0.18968781001E+03  0.22164825960E+03  0.00000000000E+00 0.  1.
         22    1    1    2    0    0 -0.20272005946E+02  0.33776694655E+02 -0.94203337034E+02  0.10210821728E+03  0.00000000000E+00 0. -1.
</event>
<event>
 6    1  0.1715574E-005  0.9793898E+02  0.7818608E-02  0.1285206E+00
          2   -1    0    0  502    0  0.00000000000E+00  0.00000000000E+00  0.28607223707E+03  0.28607223707E+03  0.00000000000E+00 0. -1.
          1   -1    0    0  501    0 -0.00000000000E+00 -0.00000000000E+00 -0.63180387513E+02  0.63180387513E+02  0.00000000000E+00 0.  1.
          2    1    1    2  501    0  0.22642172394E+02 -0.21215081488E+02  0.48716502805E+02  0.57758508454E+02  0.00000000000E+00 0. -1.
          1    1    1    2  502    0 -0.36354464527E+02  0.48884176683E+02 -0.13162915017E+02  0.62326335949E+02  0.00000000000E+00 0.  1.
         22    1    1    2    0    0 -0.28341269258E+02  0.20294878655E+02  0.40455732572E+01  0.35092396695E+02  0.00000000000E+00 0.  1.
         22    1    1    2    0    0  0.42053561391E+02 -0.47963973851E+02  0.18329268852E+03  0.19407538349E+03  0.00000000000E+00 0. -1.
</event>
<event>
 6    1  0.1715574E-005  0.9928295E+02  0.7818608E-02  0.1375730E+00
          2   -1    0    0  502    0  0.00000000000E+00  0.00000000000E+00  0.41147903854E+03  0.41147903854E+03  0.00000000000E+00 0. -1.
          1   -1    0    0  501    0 -0.00000000000E+00 -0.00000000000E+00 -0.20785154362E+03  0.20785154362E+03  0.00000000000E+00 0. -1.
          2    1    1    2  501    0  0.50575060090E+02  0.96714947203E-01  0.13983989519E+03  0.14870454715E+03  0.00000000000E+00 0. -1.
          1    1    1    2  502    0 -0.86563686962E+02  0.67855145560E+01 -0.17623897959E+03  0.19646753685E+03  0.00000000000E+00 0. -1.
         22    1    1    2    0    0 -0.53513280945E+01 -0.18150099712E+02 -0.93647513717E+01  0.21113062312E+02  0.00000000000E+00 0.  1.
         22    1    1    2    0    0  0.41339954967E+02  0.11267870209E+02  0.24939133070E+03  0.25304543585E+03  0.00000000000E+00 0. -1.
</event>
<event>
 6    1  0.1715574E-005  0.1082788E+03  0.7818608E-02  0.1268004E+00
          2   -1    0    0  502    0  0.00000000000E+00  0.00000000000E+00  0.80256318646E+03  0.80256318646E+03  0.00000000000E+00 0.  1.
          1   -1    0    0  501    0 -0.00000000000E+00 -0.00000000000E+00 -0.11783573406E+03  0.11783573406E+03  0.00000000000E+00 0.  1.
          2    1    1    2  501    0 -0.69760182949E+02 -0.19252329855E+02  0.73956000236E+03  0.74309227720E+03  0.00000000000E+00 0.  1.
          1    1    1    2  502    0  0.99715136878E+01  0.27583331093E+02  0.37389010254E+01  0.29567729373E+02  0.00000000000E+00 0.  1.
         22    1    1    2    0    0  0.45606109879E+02  0.22714717166E+01 -0.96014625465E+02  0.10631973074E+03  0.00000000000E+00 0.  1.
         22    1    1    2    0    0  0.14182559383E+02 -0.10602472955E+02  0.37443174474E+02  0.41419183213E+02  0.00000000000E+00 0. -1.
</event>
<event>
 6    1  0.1715574E-005  0.7147280E+02  0.7818608E-02  0.1426720E+00
          2   -1    0    0  502    0  0.00000000000E+00  0.00000000000E+00  0.11766890951E+03  0.11766890951E+03  0.00000000000E+00 0. -1.
          1   -1    0    0  501    0 -0.00000000000E+00 -0.00000000000E+00 -0.22347490056E+03  0.22347490056E+03  0.00000000000E+00 0. -1.
          2    1    1    2  501    0  0.42641659953E+02  0.15634908053E+02  0.53888291762E+02  0.70474885615E+02  0.00000000000E+00 0. -1.
          1    1    1    2  502    0 -0.76636130670E+02 -0.15539564395E+02 -0.94465638147E+02  0.12263087448E+03  0.00000000000E+00 0. -1.
         22    1    1    2    0    0  0.15081355876E+02 -0.16895466912E+02 -0.10139998361E+03  0.10389831939E+03  0.00000000000E+00 0. -1.
         22    1    1    2    0    0  0.18913114840E+02  0.16800123255E+02  0.36171338946E+02  0.44139730578E+02  0.00000000000E+00 0. -1.
</event>
<event>
 6    1  0.1715574E-005  0.6201883E+02  0.7818608E-02  0.1481609E+00
          2   -1    0    0  502    0  0.00000000000E+00  0.00000000000E+00  0.73765043800E+02  0.73765043800E+02  0.00000000000E+00 0. -1.
          1   -1    0    0  501    0 -0.00000000000E+00 -0.00000000000E+00 -0.57648760417E+03  0.57648760417E+03  0.00000000000E+00 0. -1.
          2    1    1    2  501    0 -0.21220919385E+02 -0.86136669494E+00  0.13385418003E+02  0.25104557101E+02  0.00000000000E+00 0. -1.
          1    1    1    2  502    0  0.47558243971E+02 -0.55992203279E+01 -0.49099162294E+03  0.49332130669E+03  0.00000000000E+00 0. -1.
         22    1    1    2    0    0  0.89928084736E+01 -0.12634844283E+02 -0.69942819110E+02  0.71641523151E+02  0.00000000000E+00 0.  1.
         22    1    1    2    0    0 -0.35330133060E+02  0.19095431306E+02  0.44826463679E+02  0.60185261026E+02  0.00000000000E+00 0. -1.
</event>
<event>
 6    1  0.1715574E-005  0.8245143E+02  0.7818608E-02  0.1324670E+00
          2   -1    0    0  502    0  0.00000000000E+00  0.00000000000E+00  0.12624344517E+03  0.12624344517E+03  0.00000000000E+00 0.  1.
          1   -1    0    0  501    0 -0.00000000000E+00 -0.00000000000E+00 -0.11585636311E+03  0.11585636311E+03  0.00000000000E+00 0. -1.
          2    1    1    2  501    0  0.24886922947E+02  0.20256392094E+02  0.42162380300E+02  0.52984400223E+02  0.00000000000E+00 0.  1.
          1    1    1    2  502    0 -0.10185841894E+02 -0.43728191927E+02 -0.36550346887E+02  0.57895025709E+02  0.00000000000E+00 0. -1.
         22    1    1    2    0    0  0.33937021383E+01  0.49990277926E+02  0.53225334977E+02  0.73099120273E+02  0.00000000000E+00 0.  1.
         22    1    1    2    0    0 -0.18094783192E+02 -0.26518478093E+02 -0.48450286332E+02  0.58121262072E+02  0.00000000000E+00 0. -1.
</event>
<event>
 6    1  0.1715574E-005  0.1281955E+03  0.7818608E-02  0.1236552E+00
          2   -1    0    0  502    0  0.00000000000E+00  0.00000000000E+00  0.13706192748E+03  0.13706192748E+03  0.00000000000E+00 0. -1.
          1   -1    0    0  501    0 -0.00000000000E+00 -0.00000000000E+00 -0.17344844603E+03  0.17344844603E+03  0.00000000000E+00 0. -1.
          2    1    1    2  501    0  0.38847926416E+02  0.85727935484E+02  0.56255676302E+02  0.10965008630E+03  0.00000000000E+00 0. -1.
          1    1    1    2  502    0  0.83729685223E+01 -0.31693242500E+02 -0.74583683328E+01  0.33618380095E+02  0.00000000000E+00 0. -1.
         22    1    1    2    0    0  0.83224463525E+01  0.13291178810E+02  0.23250562530E+02  0.28044735788E+02  0.00000000000E+00 0.  1.
         22    1    1    2    0    0 -0.55543341291E+02 -0.67325871794E+02 -0.10843438906E+03  0.13919717132E+03  0.00000000000E+00 0. -1.
</event>
<event>
 6    1  0.1715574E-005  0.3158895E+02  0.7818608E-02  0.1663425E+00
          2   -1    0    0  502    0  0.00000000000E+00  0.00000000000E+00  0.94995981070E+02  0.94995981070E+02  0.00000000000E+00 0. -1.
          1   -1    0    0  501    0 -0.00000000000E+00 -0.00000000000E+00 -0.11712051797E+03  0.11712051797E+03  0.00000000000E+00 0.  1.
          2    1    1    2  501    0 -0.22547205291E+01 -0.21824122539E+02  0.13277538541E+02  0.25645060323E+02  0.00000000000E+00 0. -1.
          1    1    1    2  502    0 -0.43685218205E+01  0.20188374960E+02 -0.53717330480E+02  0.57551768524E+02  0.00000000000E+00 0.  1.
         22    1    1    2    0    0 -0.18175314003E+01  0.10253507902E+02 -0.54310058538E+02  0.55299369826E+02  0.00000000000E+00 0.  1.
         22    1    1    2    0    0  0.84407737499E+01 -0.86177603222E+01  0.72625313575E+02  0.73620300368E+02  0.00000000000E+00 0. -1.
</event>
<event>
 6    1  0.1715574E-005  0.8268397E+02  0.7818608E-02  0.1321875E+00
          2   -1    0    0  502    0  0.00000000000E+00  0.00000000000E+00  0.16869916830E+03  0.16869916830E+03  0.00000000000E+00 0. -1.
          1   -1    0    0  501    0 -0.00000000000E+00 -0.00000000000E+00 -0.53902566734E+02  0.53902566734E+02  0.00000000000E+00 0. -1.
          2    1    1    2  501    0 -0.12166923806E+02 -0.33856734480E+02  0.32134054658E+02  0.48238055239E+02  0.00000000000E+00 0. -1.
          1    1    1    2  502    0  0.15500436091E+02  0.25566298796E+02  0.79404892517E+01  0.30934616899E+02  0.00000000000E+00 0. -1.
         22    1    1    2    0    0  0.15444019285E+01 -0.42859901170E+02  0.81011047157E+02  0.91663220907E+02  0.00000000000E+00 0. -1.
         22    1    1    2    0    0 -0.48779142134E+01  0.51150336853E+02 -0.62889895051E+01  0.51765841984E+02  0.00000000000E+00 0. -1.
</event>
<event>
 6    1  0.1715574E-005  0.6064778E+02  0.7818608E-02  0.1395969E+00
          2   -1    0    0  502    0  0.00000000000E+00  0.00000000000E+00  0.30488470316E+03  0.30488470316E+03  0.00000000000E+00 0. -1.
          1   -1    0    0  501    0 -0.00000000000E+00 -0.00000000000E+00 -0.24146923156E+03  0.24146923156E+03  0.00000000000E+00 0.  1.
          2    1    1    2  501    0 -0.11305141510E+02  0.48298886466E+02  0.24476944414E+03  0.24974520905E+03  0.00000000000E+00 0. -1.
          1    1    1    2  502    0  0.10141820376E+02 -0.45041632302E+02 -0.16171819949E+03  0.16817960996E+03  0.00000000000E+00 0.  1.
         22    1    1    2    0    0  0.74284994815E+01 -0.11342310444E+02 -0.72921151323E+02  0.74170916949E+02  0.00000000000E+00 0.  1.
         22    1    1    2    0    0 -0.62651783475E+01  0.80850562803E+01  0.53285378275E+02  0.54258198760E+02  0.00000000000E+00 0.  1.
</event>
<event>
 6    1  0.1715574E-005  0.1346562E+03  0.7818608E-02  0.1232299E+00
          2   -1    0    0  502    0  0.00000000000E+00  0.00000000000E+00  0.10151630623E+04  0.10151630623E+04  0.00000000000E+00 0. -1.
          1   -1    0    0  501    0 -0.00000000000E+00 -0.00000000000E+00 -0.15041743926E+02  0.15041743926E+02  0.00000000000E+00 0. -1.
          2    1    1    2  501    0 -0.70453455202E+01 -0.40589945568E+02  0.88898368637E+02  0.97980102679E+02  0.00000000000E+00 0. -1.
          1    1    1    2  502    0  0.53162093905E+02  0.21584072007E+02  0.32620780852E+03  0.33121536005E+03  0.00000000000E+00 0. -1.
         22    1    1    2    0    0 -0.19867529483E+02  0.73877906057E+02  0.34843488751E+03  0.35673454355E+03  0.00000000000E+00 0.  1.
         22    1    1    2    0    0 -0.26249218902E+02 -0.54872032497E+02  0.23658025368E+03  0.24427479992E+03  0.00000000000E+00 0. -1.
</event>
<event>
 6    1  0.1715574E-005  0.5945208E+02  0.7818608E-02  0.1401142E+00
          2   -1    0    0  502    0  0.00000000000E+00  0.00000000000E+00  0.34181758791E+03  0.34181758791E+03  0.00000000000E+00 0.  1.
          1   -1    0    0  501    0 -0.00000000000E+00 -0.00000000000E+00 -0.38256989075E+02  0.38256989075E+02  0.00000000000E+00 0. -1.
          2    1    1    2  501    0  0.20867913362E+02  0.45559706530E+01  0.14687712382E+03  0.14842208791E+03  0.00000000000E+00 0.  1.
          1    1    1    2  502    0 -0.29646965366E+02 -0.12409678971E+02 -0.70111950438E+00  0.32147072280E+02  0.00000000000E+00 0. -1.
         22    1    1    2    0    0  0.24269899522E+02  0.27881455904E+02  0.16802349739E+03  0.17204156266E+03  0.00000000000E+00 0.  1.
         22    1    1    2    0    0 -0.15490847519E+02 -0.20027747586E+02 -0.10638902869E+02  0.27463854144E+02  0.00000000000E+00 0. -1.
</event>
<event>
 6    1  0.1715574E-005  0.7142546E+02  0.7818608E-02  0.1355908E+00
          2   -1    0    0  502    0  0.00000000000E+00  0.00000000000E+00  0.86888896550E+02  0.86888896550E+02  0.00000000000E+00 0. -1.
          1   -1    0    0  501    0 -0.00000000000E+00 -0.00000000000E+00 -0.22428315767E+03  0.22428315767E+03  0.00000000000E+00 0. -1.
          2    1    1    2  501    0 -0.11060508805E+02 -0.22352502551E+02  0.13205873174E+02  0.28219927562E+02  0.00000000000E+00 0. -1.
          1    1    1    2  502    0  0.19758765205E+02  0.53501683758E+02 -0.14779251330E+03  0.15841548521E+03  0.00000000000E+00 0. -1.
         22    1    1    2    0    0 -0.10676116604E+02 -0.43292288111E+02  0.51922430904E+02  0.68440781020E+02  0.00000000000E+00 0. -1.
         22    1    1    2    0    0  0.19778602036E+01  0.12143106904E+02 -0.54730051893E+02  0.56095860422E+02  0.00000000000E+00 0.  1.
</event>
<event>
 6    1  0.1715574E-005  0.2717234E+03  0.7818608E-02  0.1191917E+00
          2   -1    0    0  502    0  0.00000000000E+00  0.00000000000E+00  0.14911799969E+04  0.14911799969E+04  0.00000000000E+00 0. -1.
          1   -1    0    0  501    0 -0.00000000000E+00 -0.00000000000E+00 -0.12752452597E+04  0.12752452597E+04  0.00000000000E+00 0. -1.
          2    1    1    2  501    0  0.22740204259E+03 -0.81434421359E+02  0.14175134621E+04  0.14379456420E+04  0.00000000000E+00 0. -1.
          1    1    1    2  502    0 -0.21906112622E+03  0.10007700720E+03 -0.11785620873E+04  0.12029180263E+04  0.00000000000E+00 0. -1.
         22    1    1    2    0    0  0.19831556629E+02 -0.71565989584E+01  0.45745117994E+02  0.50369865667E+02  0.00000000000E+00 0.  1.
         22    1    1    2    0    0 -0.28172472999E+02 -0.11485986881E+02 -0.68761755571E+02  0.75191722674E+02  0.00000000000E+00 0. -1.
</event>
<event>
 6    1  0.1715574E-005  0.1256874E+03  0.7818608E-02  0.1333911E+00
          2   -1    0    0  502    0  0.00000000000E+00  0.00000000000E+00  0.39983389811E+03  0.39983389811E+03  0.00000000000E+00 0.  1.
          1   -1    0    0  501    0 -0.00000000000E+00 -0.00000000000E+00 -0.87674716232E+02  0.87674716232E+02  0.00000000000E+00 0. -1.
          2    1    1    2  501    0 -0.79160362213E+02 -0.14992735973E+01  0.15726460773E+03  0.17607034848E+03  0.00000000000E+00 0.  1.
          1    1    1    2  502    0  0.10693266938E+03 -0.25570383396E+02  0.38520666367E+01  0.11001490220E+03  0.00000000000E+00 0. -1.
         22    1    1    2    0    0  0.12587182220E+02  0.14155743067E+02 -0.18612402422E+02  0.26556425624E+02  0.00000000000E+00 0.  1.
         22    1    1    2    0    0 -0.40359489392E+02  0.12913913927E+02  0.16965490992E+03  0.17486693804E+03  0.00000000000E+00 0.  1.
</event>
<event>
 6    1  0.1715574E-005  0.4277303E+02  0.7818608E-02  0.1530023E+00
          2   -1    0    0  502    0  0.00000000000E+00  0.00000000000E+00  0.17550486153E+03  0.17550486153E+03  0.00000000000E+00 0.  1.
          1   -1    0    0  501    0 -0.00000000000E+00 -0.00000000000E+00 -0.59621177722E+02  0.59621177722E+02  0.00000000000E+00 0. -1.
          2    1    1    2  501    0 -0.24000195609E+01  0.26167818821E+02  0.23433025448E+02  0.35208259221E+02  0.00000000000E+00 0.  1.
          1    1    1    2  502    0  0.10937253647E+02 -0.26521321800E+02 -0.16773610577E+02  0.33231882871E+02  0.00000000000E+00 0. -1.
         22    1    1    2    0    0 -0.19767270099E+02  0.14352761144E+02  0.13393556991E+03  0.13614508293E+03  0.00000000000E+00 0.  1.
         22    1    1    2    0    0  0.11230036012E+02 -0.13999258165E+02 -0.24711300972E+02  0.30540814228E+02  0.00000000000E+00 0. -1.
</event>
<event>
 6    1  0.1715574E-005  0.2405740E+02  0.7818608E-02  0.1683499E+00
          2   -1    0    0  502    0  0.00000000000E+00  0.00000000000E+00  0.29727640522E+03  0.29727640522E+03  0.00000000000E+00 0. -1.
          1   -1    0    0  501    0 -0.00000000000E+00 -0.00000000000E+00 -0.72825112872E+03  0.72825112872E+03  0.00000000000E+00 0. -1.
          2    1    1    2  501    0  0.23442739012E+02  0.50492974871E+02  0.21060080343E+03  0.21783434286E+03  0.00000000000E+00 0. -1.
          1    1    1    2  502    0 -0.11187839033E+02 -0.28288443705E+02 -0.67404000871E+03  0.67472612009E+03  0.00000000000E+00 0. -1.
         22    1    1    2    0    0 -0.36178968707E+01 -0.13201686607E+02  0.81360779621E+02  0.82504243331E+02  0.00000000000E+00 0.  1.
         22    1    1    2    0    0 -0.86370031085E+01 -0.90028445592E+01 -0.48896297847E+02  0.50462827665E+02  0.00000000000E+00 0.  1.
</event>
<event>
 6    1  0.1715574E-005  0.4008732E+02  0.7818608E-02  0.1553657E+00
          2   -1    0    0  502    0  0.00000000000E+00  0.00000000000E+00  0.22899755563E+03  0.22899755563E+03  0.00000000000E+00 0.  1.
          1   -1    0    0  501    0 -0.00000000000E+00 -0.00000000000E+00 -0.11345922805E+03  0.11345922805E+03  0.00000000000E+00 0. -1.
          2    1    1    2  501    0  0.12759497410E+02 -0.27985085699E+02  0.17255387772E+03  0.17527353055E+03  0.00000000000E+00 0.  1.
          1    1    1    2  502    0 -0.24462761762E+02  0.12417733545E+02 -0.87342125531E+01  0.28790854249E+02  0.00000000000E+00 0. -1.
         22    1    1    2    0    0  0.85699930052E+01 -0.60381702002E+01  0.43142551771E+02  0.44398018568E+02  0.00000000000E+00 0.  1.
         22    1    1    2    0    0  0.31332713474E+01  0.21605522354E+02 -0.91423889354E+02  0.93994380311E+02  0.00000000000E+00 0. -1.
</event>
<event>
 6    1  0.1715574E-005  0.6082934E+02  0.7818608E-02  0.1421330E+00
          2   -1    0    0  502    0  0.00000000000E+00  0.00000000000E+00  0.59492691383E+02  0.59492691383E+02  0.00000000000E+00 0.  1.
          1   -1    0    0  501    0 -0.00000000000E+00 -0.00000000000E+00 -0.17682754413E+03  0.17682754413E+03  0.00000000000E+00 0.  1.
          2    1    1    2  501    0  0.21653624445E+02 -0.75797412208E+01  0.13312226484E+02  0.26524466112E+02  0.00000000000E+00 0.  1.
          1    1    1    2  502    0 -0.80593195441E+01 -0.18960754713E+02 -0.63663794609E+02  0.66914434876E+02  0.00000000000E+00 0.  1.
         22    1    1    2    0    0 -0.17622972828E+02  0.35871945324E+02 -0.10034192063E+03  0.10800864164E+03  0.00000000000E+00 0.  1.
         22    1    1    2    0    0  0.40286679276E+01 -0.93314493897E+01  0.33358636007E+02  0.34872692888E+02  0.00000000000E+00 0.  1.
</event>
<event>
 6    1  0.1715574E-005  0.1170190E+03  0.7818608E-02  0.1249332E+00
          2   -1    0    0  502    0  0.00000000000E+00  0.00000000000E+00  0.12713258044E+03  0.12713258044E+03  0.00000000000E+00 0.  1.
          1   -1    0    0  501    0 -0.00000000000E+00 -0.00000000000E+00 -0.24529864185E+03  0.24529864185E+03  0.00000000000E+00 0.  1.
          2    1    1    2  501    0  0.19668207687E+02  0.51139133069E+01  0.34220152260E+02  0.39799614616E+02  0.00000000000E+00 0.  1.
          1    1    1    2  502    0 -0.97782466850E+02  0.14676329517E+01 -0.15451696185E+03  0.18286349080E+03  0.00000000000E+00 0.  1.
         22    1    1    2    0    0  0.91220786818E+02 -0.30423781802E+01  0.47161052141E+02  0.10273584015E+03  0.00000000000E+00 0.  1.
         22    1    1    2    0    0 -0.13106527656E+02 -0.35391680784E+01 -0.45030303961E+02  0.47032276712E+02  0.00000000000E+00 0.  1.
</event>
<event>
 6    1  0.1715574E-005  0.6385755E+02  0.7818608E-02  0.1383257E+00
          2   -1    0    0  502    0  0.00000000000E+00  0.00000000000E+00  0.22134853198E+03  0.22134853198E+03  0.00000000000E+00 0. -1.
          1   -1    0    0  501    0 -0.00000000000E+00 -0.00000000000E+00 -0.17787781213E+03  0.17787781213E+03  0.00000000000E+00 0. -1.
          2    1    1    2  501    0 -0.73618295293E+01  0.27198140144E+02  0.94287527501E+02  0.98407688742E+02  0.00000000000E+00 0. -1.
          1    1    1    2  502    0  0.19652730447E+02 -0.40519490749E+02 -0.14045253250E+03  0.14749567054E+03  0.00000000000E+00 0. -1.
         22    1    1    2    0    0  0.99411010601E+01 -0.13343969564E+02 -0.26952602731E+02  0.31675381734E+02  0.00000000000E+00 0.  1.
         22    1    1    2    0    0 -0.22232001978E+02  0.26665320170E+02  0.11658832757E+03  0.12164760309E+03  0.00000000000E+00 0. -1.
</event>
<event>
 6    1  0.1715574E-005  0.7032054E+02  0.7818608E-02  0.1421760E+00
          2   -1    0    0  502    0  0.00000000000E+00  0.00000000000E+00  0.10516180566E+03  0.10516180566E+03  0.00000000000E+00 0. -1.
          1   -1    0    0  501    0 -0.00000000000E+00 -0.00000000000E+00 -0.21901154042E+03  0.21901154042E+03  0.00000000000E+00 0.  1.
          2    1    1    2  501    0 -0.33491134062E+02  0.25100034565E+02  0.35165060014E+02  0.54664881246E+02  0.00000000000E+00 0. -1.
          1    1    1    2  502    0  0.54751201715E+02 -0.13054091506E+01 -0.13359396644E+03  0.14438402284E+03  0.00000000000E+00 0.  1.
         22    1    1    2    0    0 -0.26572292600E+02  0.13015977531E+01  0.49015296922E+02  0.55769886346E+02  0.00000000000E+00 0.  1.
         22    1    1    2    0    0  0.53122249464E+01 -0.25096223167E+02 -0.64436125254E+02  0.69354555646E+02  0.00000000000E+00 0. -1.
</event>
<event>
 6    1  0.1715574E-005  0.1131737E+03  0.7818608E-02  0.1255566E+00
          2   -1    0    0  502    0  0.00000000000E+00  0.00000000000E+00  0.12012135486E+03  0.12012135486E+03  0.00000000000E+00 0.  1.
          1   -1    0    0  501    0 -0.00000000000E+00 -0.00000000000E+00 -0.20884400973E+03  0.20884400973E+03  0.00000000000E+00 0.  1.
          2    1    1    2  501    0  0.70690192508E+02 -0.91303536790E+01  0.39904537281E+02  0.81687445613E+02  0.00000000000E+00 0.  1.
          1    1    1    2  502    0 -0.56454288076E+02  0.10608748548E+02 -0.10994610036E+03  0.12404747951E+03  0.00000000000E+00 0.  1.
         22    1    1    2    0    0 -0.47946660033E+02  0.19457074548E+02 -0.50547930483E+02  0.72336389421E+02  0.00000000000E+00 0.  1.
         22    1    1    2    0    0  0.33710755601E+02 -0.20935469417E+02  0.31866838693E+02  0.50894050057E+02  0.00000000000E+00 0.  1.
</event>
<event>
 6    1  0.2340944E-005  0.4326129E+03  0.7818608E-02  0.1033378E+00
          2   -1    0    0  502    0  0.00000000000E+00  0.00000000000E+00  0.16889811164E+04  0.16889811164E+04  0.00000000000E+00 0.  1.
          1   -1    0    0  501    0 -0.00000000000E+00 -0.00000000000E+00 -0.40831185294E+03  0.40831185294E+03  0.00000000000E+00 0.  1.
          2    1    1    2  501    0 -0.35845994765E+03 -0.14578115594E+03  0.13429260149E+04  0.13975678735E+04  0.00000000000E+00 0.  1.
          1    1    1    2  502    0  0.39203400732E+03  0.13500280001E+03 -0.23903639565E+03  0.47859671682E+03  0.00000000000E+00 0.  1.
         22    1    1    2    0    0  0.10231313912E+02  0.21568349632E+01 -0.18261242485E+02  0.21042925142E+02  0.00000000000E+00 0. -1.
         22    1    1    2    0    0 -0.43805373579E+02  0.86215209600E+01  0.19504088668E+03  0.20008545388E+03  0.00000000000E+00 0.  1.
</event>
<event>
 6    1  0.1715574E-005  0.9393956E+02  0.7818608E-02  0.1305554E+00
          2   -1    0    0  502    0  0.00000000000E+00  0.00000000000E+00  0.12894834050E+03  0.12894834050E+03  0.00000000000E+00 0.  1.
          1   -1    0    0  501    0 -0.00000000000E+00 -0.00000000000E+00 -0.19721095712E+03  0.19721095712E+03  0.00000000000E+00 0. -1.
          2    1    1    2  501    0 -0.19308091861E+02  0.14985432668E+02  0.86401968206E+02  0.89792347744E+02  0.00000000000E+00 0.  1.
          1    1    1    2  502    0  0.16559947368E+02 -0.33228317269E+02 -0.83824525124E+02  0.91678263169E+02  0.00000000000E+00 0. -1.
         22    1    1    2    0    0  0.34856653397E+02 -0.15619467238E+02 -0.87232377560E+02  0.95228366244E+02  0.00000000000E+00 0.  1.
         22    1    1    2    0    0 -0.32108508904E+02  0.33862351839E+02  0.16392317856E+02  0.49460320468E+02  0.00000000000E+00 0.  1.
</event>
<event>
 6    1  0.1715574E-005  0.1012274E+03  0.7818608E-02  0.1279186E+00
          2   -1    0    0  502    0  0.00000000000E+00  0.00000000000E+00  0.53936527492E+03  0.53936527492E+03  0.00000000000E+00 0. -1.
          1   -1    0    0  501    0 -0.00000000000E+00 -0.00000000000E+00 -0.23220787162E+02  0.23220787162E+02  0.00000000000E+00 0. -1.
          2    1    1    2  501    0  0.19688022935E+02  0.24603814086E+02  0.16812995474E+03  0.17105743946E+03  0.00000000000E+00 0. -1.
          1    1    1    2  502    0 -0.31327975399E+02 -0.43846559371E+02  0.97900101987E+02  0.11175147775E+03  0.00000000000E+00 0. -1.
         22    1    1    2    0    0 -0.33282923476E+02 -0.27269116645E+02  0.35968366237E+02  0.56081022525E+02  0.00000000000E+00 0.  1.
         22    1    1    2    0    0  0.44922875940E+02  0.46511861930E+02  0.21414606480E+03  0.22369612234E+03  0.00000000000E+00 0. -1.
</event>
<event>
 6    1  0.1715574E-005  0.5548492E+02  0.7818608E-02  0.1428897E+00
          2   -1    0    0  502    0  0.00000000000E+00  0.00000000000E+00  0.46254904765E+03  0.46254904765E+03  0.00000000000E+00 0.  1.
          1   -1    0    0  501    0 -0.00000000000E+00 -0.00000000000E+00 -0.21503609239E+03  0.21503609239E+03  0.00000000000E+00 0.  1.
          2    1    1    2  501    0  0.34668284975E+02 -0.62538007789E+02  0.40033677133E+03  0.40667237781E+03  0.00000000000E+00 0.  1.
          1    1    1    2  502    0 -0.32964764187E+02  0.37620803153E+02 -0.13682096580E+03  0.14567764822E+03  0.00000000000E+00 0.  1.
         22    1    1    2    0    0  0.33556829909E+02  0.28067128511E+02  0.39805128070E+02  0.59146198163E+02  0.00000000000E+00 0. -1.
         22    1    1    2    0    0 -0.35260350697E+02 -0.31499238754E+01 -0.55807978341E+02  0.66088915850E+02  0.00000000000E+00 0.  1.
</event>
<event>
 6    1  0.1715574E-005  0.1771158E+03  0.7818608E-02  0.1171821E+00
          2   -1    0    0  502    0  0.00000000000E+00  0.00000000000E+00  0.10606076577E+03  0.10606076577E+03  0.00000000000E+00 0.  1.
          1   -1    0    0  501    0 -0.00000000000E+00 -0.00000000000E+00 -0.52823993132E+03  0.52823993132E+03  0.00000000000E+00 0. -1.
          2    1    1    2  501    0  0.11752369810E+03  0.26126032999E+02 -0.18435646248E+02  0.12179598626E+03  0.00000000000E+00 0.  1.
          1    1    1    2  502    0 -0.12391210910E+03 -0.35245437861E+02 -0.34938619939E+03  0.37238040764E+03  0.00000000000E+00 0. -1.
         22    1    1    2    0    0  0.41612701366E+02  0.30671308013E+02  0.19708838797E+02  0.55324356092E+02  0.00000000000E+00 0.  1.
         22    1    1    2    0    0 -0.35224290374E+02 -0.21551903152E+02 -0.74066158707E+02  0.84799947096E+02  0.00000000000E+00 0. -1.
</event>
<event>
 6    1  0.1715574E-005  0.1085449E+03  0.7818608E-02  0.1269101E+00
          2   -1    0    0  502    0  0.00000000000E+00  0.00000000000E+00  0.38883602671E+02  0.38883602671E+02  0.00000000000E+00 0.  1.
          1   -1    0    0  501    0 -0.00000000000E+00 -0.00000000000E+00 -0.36979473559E+03  0.36979473559E+03  0.00000000000E+00 0.  1.
          2    1    1    2  501    0 -0.17521230561E+02 -0.37289983846E+02 -0.64532155665E+02  0.76563277950E+02  0.00000000000E+00 0.  1.
          1    1    1    2  502    0  0.73949238512E+01  0.58389968023E+02 -0.14937938380E+03  0.16055613837E+03  0.00000000000E+00 0.  1.
         22    1    1    2    0    0 -0.15948288451E+02 -0.48410349478E+02 -0.25410506326E+01  0.51032996967E+02  0.00000000000E+00 0.  1.
         22    1    1    2    0    0  0.26074595161E+02  0.27310365301E+02 -0.11445854281E+03  0.12052592497E+03  0.00000000000E+00 0.  1.
</event>
<event>
 6    1  0.1715574E-005  0.3714587E+02  0.7818608E-02  0.1553362E+00
          2   -1    0    0  502    0  0.00000000000E+00  0.00000000000E+00  0.20108766030E+03  0.20108766030E+03  0.00000000000E+00 0.  1.
          1   -1    0    0  501    0 -0.00000000000E+00 -0.00000000000E+00 -0.15117729385E+04  0.15117729385E+04  0.00000000000E+00 0. -1.
          2    1    1    2  501    0  0.14598954557E+02 -0.29989029527E+02  0.12312110965E+03  0.12755892367E+03  0.00000000000E+00 0.  1.
          1    1    1    2  502    0 -0.36088719657E+02  0.49480707253E+02 -0.14570749111E+04  0.14583614204E+04  0.00000000000E+00 0. -1.
         22    1    1    2    0    0  0.27043704592E+02 -0.23008720726E+00  0.70565445973E+02  0.75570477460E+02  0.00000000000E+00 0.  1.
         22    1    1    2    0    0 -0.55539394924E+01 -0.19261590519E+02 -0.47296922698E+02  0.51369777203E+02  0.00000000000E+00 0. -1.
</event>
<event>
 6    1  0.1715574E-005  0.6252148E+02  0.7818608E-02  0.1457769E+00
          2   -1    0    0  502    0  0.00000000000E+00  0.00000000000E+00  0.11866245895E+03  0.11866245895E+03  0.00000000000E+00 0. -1.
          1   -1    0    0  501    0 -0.00000000000E+00 -0.00000000000E+00 -0.76845832217E+03  0.76845832217E+03  0.00000000000E+00 0.  1.
          2    1    1    2  501    0 -0.48950589318E+02 -0.35444769963E+01  0.74749491320E+02  0.89421529647E+02  0.00000000000E+00 0. -1.
          1    1    1    2  502    0  0.45808039269E+02  0.12943276088E+02 -0.65809485948E+03  0.65981417758E+03  0.00000000000E+00 0.  1.
         22    1    1    2    0    0 -0.94423770819E+01  0.77896692054E+01  0.33512107734E+02  0.35677707271E+02  0.00000000000E+00 0.  1.
         22    1    1    2    0    0  0.12584927130E+02 -0.17188468297E+02 -0.99962602794E+02  0.10220736662E+03  0.00000000000E+00 0. -1.
</event>
<event>
 6    1  0.1715574E-005  0.1229592E+03  0.7818608E-02  0.1333489E+00
          2   -1    0    0  502    0  0.00000000000E+00  0.00000000000E+00  0.85910369578E+02  0.85910369578E+02  0.00000000000E+00 0. -1.
          1   -1    0    0  501    0 -0.00000000000E+00 -0.00000000000E+00 -0.11689295678E+04  0.11689295678E+04  0.00000000000E+00 0. -1.
          2    1    1    2  501    0  0.67442208806E+02 -0.16936005028E+03 -0.54148678833E+02  0.19016665738E+03  0.00000000000E+00 0. -1.
          1    1    1    2  502    0 -0.79522207520E+02  0.93354362962E+02 -0.49764553890E+03  0.51253282915E+03  0.00000000000E+00 0. -1.
         22    1    1    2    0    0 -0.11004020478E+02 -0.96006709937E+01 -0.10921251410E+01  0.14644251006E+02  0.00000000000E+00 0. -1.
         22    1    1    2    0    0  0.23084019192E+02  0.85606358308E+02 -0.53013285532E+03  0.53749619982E+03  0.00000000000E+00 0. -1.
</event>
<event>
 6    1  0.1715574E-005  0.1241136E+03  0.7818608E-02  0.1237960E+00
          2   -1    0    0  502    0  0.00000000000E+00  0.00000000000E+00  0.56681220231E+03  0.56681220231E+03  0.00000000000E+00 0. -1.
          1   -1    0    0  501    0 -0.00000000000E+00 -0.00000000000E+00 -0.32775229882E+02  0.32775229882E+02  0.00000000000E+00 0. -1.
          2    1    1    2  501    0 -0.77091780241E+02 -0.19489727473E+02  0.26936153342E+03  0.28085339191E+03  0.00000000000E+00 0. -1.
          1    1    1    2  502    0  0.42912931159E+02  0.17278081251E+02  0.74570317817E+02  0.87754111310E+02  0.00000000000E+00 0. -1.
         22    1    1    2    0    0  0.74299523978E+02 -0.50431705828E+01  0.63157958489E+02  0.97646200916E+02  0.00000000000E+00 0.  1.
         22    1    1    2    0    0 -0.40120674896E+02  0.72548168046E+01  0.12694716270E+03  0.13333372806E+03  0.00000000000E+00 0. -1.
</event>
<event>
 6    1  0.1715574E-005  0.1109624E+03  0.7818608E-02  0.1258990E+00
          2   -1    0    0  502    0  0.00000000000E+00  0.00000000000E+00  0.45638739119E+02  0.45638739119E+02  0.00000000000E+00 0.  1.
          1   -1    0    0  501    0 -0.00000000000E+00 -0.00000000000E+00 -0.73926544934E+03  0.73926544934E+03  0.00000000000E+00 0. -1.
          2    1    1    2  501    0 -0.19736323186E+02 -0.33635471307E+02 -0.27514797386E+01  0.39095242980E+02  0.00000000000E+00 0.  1.
          1    1    1    2  502    0  0.51639429504E+02  0.65899676972E+02 -0.53475896138E+03  0.54127307792E+03  0.00000000000E+00 0. -1.
         22    1    1    2    0    0 -0.55559727576E+02 -0.43127627868E+02 -0.31213216581E+02  0.76948947382E+02  0.00000000000E+00 0.  1.
         22    1    1    2    0    0  0.23656621258E+02  0.10863422203E+02 -0.12490305251E+03  0.12758692017E+03  0.00000000000E+00 0.  1.
</event>
<event>
 6    1  0.1715574E-005  0.4029912E+02  0.7818608E-02  0.1578026E+00
          2   -1    0    0  502    0  0.00000000000E+00  0.00000000000E+00  0.20330631486E+03  0.20330631486E+03  0.00000000000E+00 0.  1.
          1   -1    0    0  501    0 -0.00000000000E+00 -0.00000000000E+00 -0.62305750889E+02  0.62305750889E+02  0.00000000000E+00 0.  1.
          2    1    1    2  501    0  0.53896558657E+01 -0.26864837921E+02  0.10338280127E+03  0.10695219261E+03  0.00000000000E+00 0.  1.
          1    1    1    2  502    0 -0.59599908754E+01  0.24990748886E+02 -0.32845681024E+01  0.25900722166E+02  0.00000000000E+00 0.  1.
         22    1    1    2    0    0 -0.20833513793E+01  0.15677414784E+02 -0.43971554707E+02  0.46729212605E+02  0.00000000000E+00 0.  1.
         22    1    1    2    0    0  0.26536863890E+01 -0.13803325750E+02  0.84873885516E+02  0.86029938369E+02  0.00000000000E+00 0.  1.
</event>
<event>
 6    1  0.1715574E-005  0.9980001E+02  0.7818608E-02  0.1308172E+00
          2   -1    0    0  502    0  0.00000000000E+00  0.00000000000E+00  0.22321480654E+03  0.22321480654E+03  0.00000000000E+00 0. -1.
          1   -1    0    0  501    0 -0.00000000000E+00 -0.00000000000E+00 -0.77868140359E+02  0.77868140359E+02  0.00000000000E+00 0.  1.
          2    1    1    2  501    0  0.22259294078E+02  0.10611713967E+02  0.29019472514E+02  0.38081681044E+02  0.00000000000E+00 0. -1.
          1    1    1    2  502    0 -0.25706276736E+01  0.36919823260E+02 -0.42457492702E+02  0.56323353617E+02  0.00000000000E+00 0.  1.
         22    1    1    2    0    0 -0.22306613816E+02 -0.68389218548E+02  0.16872877969E+03  0.18342320281E+03  0.00000000000E+00 0. -1.
         22    1    1    2    0    0  0.26179474117E+01  0.20857681321E+02 -0.99440933178E+01  0.23254709430E+02  0.00000000000E+00 0.  1.
</event>
<event>
 6    1  0.1715574E-005  0.7093843E+02  0.7818608E-02  0.1382096E+00
          2   -1    0    0  502    0  0.00000000000E+00  0.00000000000E+00  0.20153094674E+03  0.20153094674E+03  0.00000000000E+00 0.  1.
          1   -1    0    0  501    0 -0.00000000000E+00 -0.00000000000E+00 -0.60810243066E+02  0.60810243066E+02  0.00000000000E+00 0.  1.
          2    1    1    2  501    0  0.20673968378E+02  0.93973342523E+01  0.41312815632E+02  0.47143097003E+02  0.00000000000E+00 0.  1.
          1    1    1    2  502    0  0.16126396693E+02 -0.22250539305E+02 -0.24530252497E+02  0.36835858307E+02  0.00000000000E+00 0.  1.
         22    1    1    2    0    0 -0.30418293038E+01 -0.18980144539E+02 -0.19634705901E+02  0.27477632505E+02  0.00000000000E+00 0.  1.
         22    1    1    2    0    0 -0.33758535767E+02  0.31833349592E+02  0.14357284644E+03  0.15088460200E+03  0.00000000000E+00 0.  1.
</event>
<event>
 6    1  0.1715574E-005  0.1577666E+03  0.7818608E-02  0.1191986E+00
          2   -1    0    0  502    0  0.00000000000E+00  0.00000000000E+00  0.10796140366E+04  0.10796140366E+04  0.00000000000E+00 0.  1.
          1   -1    0    0  501    0 -0.00000000000E+00 -0.00000000000E+00 -0.35379600020E+02  0.35379600020E+02  0.00000000000E+00 0.  1.
          2    1    1    2  501    0 -0.26666674448E+02  0.12513449362E+03  0.69585763917E+03  0.70752216008E+03  0.00000000000E+00 0.  1.
          1    1    1    2  502    0 -0.47388155626E+01 -0.61997340063E+02  0.57563590407E+02  0.84733071987E+02  0.00000000000E+00 0.  1.
         22    1    1    2    0    0  0.26268041306E+02 -0.89863141212E+02  0.13331274389E+03  0.16290390366E+03  0.00000000000E+00 0.  1.
         22    1    1    2    0    0  0.51374487040E+01  0.26725987652E+02  0.15750046308E+03  0.15983450086E+03  0.00000000000E+00 0. -1.
</event>
<event>
 6    1  0.1715574E-005  0.1299408E+03  0.7818608E-02  0.1266804E+00
          2   -1    0    0  502    0  0.00000000000E+00  0.00000000000E+00  0.81881967233E+02  0.81881967233E+02  0.00000000000E+00 0. -1.
          1   -1    0    0  501    0 -0.00000000000E+00 -0.00000000000E+00 -0.15940401159E+04  0.15940401159E+04  0.00000000000E+00 0.  1.
          2    1    1    2  501    0  0.73332227903E+02 -0.82528437373E+02  0.83549365638E+01  0.11071749450E+03  0.00000000000E+00 0. -1.
          1    1    1    2  502    0 -0.50337989506E+02  0.15429238458E+03 -0.12113381780E+04  0.12221621147E+04  0.00000000000E+00 0.  1.
         22    1    1    2    0    0 -0.23436627705E+01 -0.16410840893E+02  0.93855908772E+01  0.19049875856E+02  0.00000000000E+00 0. -1.
         22    1    1    2    0    0 -0.20650575627E+02 -0.55353106313E+02 -0.31856049814E+03  0.32399259810E+03  0.00000000000E+00 0.  1.
</event>
