<event>
 6    1  0.3624778E-005  0.1849231E+03  0.7818608E-02  0.1214315E+00
          2   -1    0    0  502    0  0.00000000000E+00  0.00000000000E+00  0.11251337559E+03  0.11251337559E+03  0.00000000000E+00 0.  1.
          1   -1    0    0  501    0 -0.00000000000E+00 -0.00000000000E+00 -0.91442887737E+03  0.91442887737E+03  0.00000000000E+00 0.  1.
          2    1    1    2  501    0 -0.14267203195E+02 -0.16335403353E+03 -0.19579693155E+03  0.25539093907E+03  0.00000000000E+00 0.  1.
          1    1    1    2  502    0 -0.48125103471E+02  0.16887899299E+03 -0.60511032125E+03  0.63007510723E+03  0.00000000000E+00 0.  1.
         22    1    1    2    0    0  0.14656833081E+02 -0.41029379344E+02 -0.48615088627E+02  0.65281387604E+02  0.00000000000E+00 0.  1.
         22    1    1    2    0    0  0.47735473585E+02  0.35504419877E+02  0.47606839657E+02  0.76194819058E+02  0.00000000000E+00 0.  1.
</event>
<event>
 6    1  0.3624778E-005  0.1017601E+03  0.7818608E-02  0.1295881E+00
          2   -1    0    0  502    0  0.00000000000E+00  0.00000000000E+00  0.39853315211E+03  0.39853315211E+03  0.00000000000E+00 0.  1.
          1   -1    0    0  501    0 -0.00000000000E+00 -0.00000000000E+00 -0.92500139054E+02  0.92500139054E+02  0.00000000000E+00 0. -1.
          2    1    1    2  501    0  0.60882510697E+02 -0.55242526396E+02  0.16393707595E+03  0.18339515179E+03  0.00000000000E+00 0.  1.
          1    1    1    2  502    0 -0.80291207467E+02  0.35674747857E+02 -0.29880961568E+02  0.92802141654E+02  0.00000000000E+00 0. -1.
         22    1    1    2    0    0 -0.49088507749E+01  0.70641513457E+02  0.11097731803E+03  0.13164454169E+03  0.00000000000E+00 0. -1.
         22    1    1    2    0    0  0.24317547545E+02 -0.51073734919E+02  0.60999580654E+02  0.83191456034E+02  0.00000000000E+00 0. -1.
</event>
<event>
 6    1  0.3624778E-005  0.2505363E+03  0.7818608E-02  0.1218849E+00
          2   -1    0    0  502    0  0.00000000000E+00  0.00000000000E+00  0.80830305609E+02  0.80830305609E+02  0.00000000000E+00 0. -1.
          1   -1    0    0  501    0 -0.00000000000E+00 -0.00000000000E+00 -0.17651404769E+04  0.17651404769E+04  0.00000000000E+00 0. -1.
          2    1    1    2  501    0  0.12687972436E+03  0.13129546992E+03 -0.12417801024E+04  0.12551313826E+04  0.00000000000E+00 0. -1.
          1    1    1    2  502    0 -0.16827124791E+03 -0.17993148246E+03 -0.31508362106E+03  0.39996029742E+03  0.00000000000E+00 0. -1.
         22    1    1    2    0    0  0.21704188367E+02  0.12220793841E+01  0.23159335424E+02  0.31763502451E+02  0.00000000000E+00 0. -1.
         22    1    1    2    0    0  0.19687335174E+02  0.47413933159E+02 -0.15060578320E+03  0.15911559998E+03  0.00000000000E+00 0.  1.
</event>
<event>
 6    1  0.3624778E-005  0.2999937E+03  0.7818608E-02  0.1157090E+00
          2   -1    0    0  502    0  0.00000000000E+00  0.00000000000E+00  0.75086671264E+03  0.75086671264E+03  0.00000000000E+00 0. -1.
          1   -1    0    0  501    0 -0.00000000000E+00 -0.00000000000E+00 -0.27773289558E+03  0.27773289558E+03  0.00000000000E+00 0. -1.
          2    1    1    2  501    0  0.13638069976E+03 -0.14726378242E+03  0.27625548404E+03  0.34147241374E+03  0.00000000000E+00 0. -1.
          1    1    1    2  502    0 -0.13448590475E+03  0.46053391027E+02 -0.20744277379E+03  0.25147540197E+03  0.00000000000E+00 0. -1.
         22    1    1    2    0    0  0.47944929601E+02  0.10077269002E+03  0.29855501285E+03  0.31873021040E+03  0.00000000000E+00 0.  1.
         22    1    1    2    0    0 -0.49839724618E+02  0.43770137364E+00  0.10576609395E+03  0.11692158211E+03  0.00000000000E+00 0. -1.
</event>
<event>
 6    1  0.3624778E-005  0.9350594E+02  0.7818608E-02  0.1324539E+00
          2   -1    0    0  502    0  0.00000000000E+00  0.00000000000E+00  0.58758691420E+03  0.58758691420E+03  0.00000000000E+00 0. -1.
          1   -1    0    0  501    0 -0.00000000000E+00 -0.00000000000E+00 -0.16369666301E+03  0.16369666301E+03  0.00000000000E+00 0.  1.
          2    1    1    2  501    0  0.49963572914E+02 -0.21839512225E+02  0.96748880306E+02  0.11105705179E+03  0.00000000000E+00 0. -1.
          1    1    1    2  502    0 -0.12958765994E+02  0.54961233198E+02 -0.14129134600E+03  0.15215752109E+03  0.00000000000E+00 0.  1.
         22    1    1    2    0    0 -0.34977310507E+02  0.41483592971E+02  0.28346960931E+03  0.28861621600E+03  0.00000000000E+00 0. -1.
         22    1    1    2    0    0 -0.20274964123E+01 -0.74605313944E+02  0.18496310757E+03  0.19945278833E+03  0.00000000000E+00 0. -1.
</event>
<event>
 6    1  0.3624778E-005  0.2545667E+03  0.7818608E-02  0.1198889E+00
          2   -1    0    0  502    0  0.00000000000E+00  0.00000000000E+00  0.74236232458E+03  0.74236232458E+03  0.00000000000E+00 0. -1.
          1   -1    0    0  501    0 -0.00000000000E+00 -0.00000000000E+00 -0.62441655338E+03  0.62441655338E+03  0.00000000000E+00 0.  1.
          2    1    1    2  501    0 -0.70302723003E+01 -0.16794040910E+03  0.32488806085E+03  0.36579455685E+03  0.00000000000E+00 0. -1.
          1    1    1    2  502    0 -0.42241403358E+02  0.15813808068E+03 -0.58119245167E+03  0.60380183389E+03  0.00000000000E+00 0.  1.
         22    1    1    2    0    0 -0.31456438038E+02  0.43964822433E+01  0.30486491282E+02  0.44025705001E+02  0.00000000000E+00 0. -1.
         22    1    1    2    0    0  0.80728113696E+02  0.54058461733E+01  0.34376367073E+03  0.35315678222E+03  0.00000000000E+00 0. -1.
</event>
<event>
 6    1  0.3624778E-005  0.1337694E+03  0.7818608E-02  0.1296594E+00
          2   -1    0    0  502    0  0.00000000000E+00  0.00000000000E+00  0.29816117785E+03  0.29816117785E+03  0.00000000000E+00 0.  1.
          1   -1    0    0  501    0 -0.00000000000E+00 -0.00000000000E+00 -0.14969559128E+03  0.14969559128E+03  0.00000000000E+00 0. -1.
          2    1    1    2  501    0 -0.26945875023E+02  0.17751262529E+02  0.14868687045E+01  0.32301676128E+02  0.00000000000E+00 0.  1.
          1    1    1    2  502    0  0.13017401351E+03 -0.60332201407E+02 -0.56080924840E+02  0.15404648147E+03  0.00000000000E+00 0. -1.
         22    1    1    2    0    0 -0.24824948552E+02  0.18167224294E+02  0.17036964754E+03  0.17312464559E+03  0.00000000000E+00 0.  1.
         22    1    1    2    0    0 -0.78403189939E+02  0.24413714583E+02  0.32689995160E+02  0.88383965943E+02  0.00000000000E+00 0.  1.
</event>
<event>
 6    1  0.3624778E-005  0.7618554E+02  0.7818608E-02  0.1343257E+00
          2   -1    0    0  502    0  0.00000000000E+00  0.00000000000E+00  0.24305025863E+03  0.24305025863E+03  0.00000000000E+00 0. -1.
          1   -1    0    0  501    0 -0.00000000000E+00 -0.00000000000E+00 -0.48794886679E+02  0.48794886679E+02  0.00000000000E+00 0.  1.
          2    1    1    2  501    0  0.13739009643E+02 -0.32268534054E+02  0.38797934718E+02  0.52300080443E+02  0.00000000000E+00 0. -1.
          1    1    1    2  502    0  0.13588930910E+02  0.22361876353E+02 -0.13261670073E+02  0.29335719702E+02  0.00000000000E+00 0.  1.
         22    1    1    2    0    0  0.34152415306E+02 -0.27304261812E+02  0.27216890059E+02  0.51504070604E+02  0.00000000000E+00 0.  1.
         22    1    1    2    0    0 -0.61480355859E+02  0.37210919512E+02  0.14150221725E+03  0.15870527456E+03  0.00000000000E+00 0.  1.
</event>
<event>
 6    1  0.3624778E-005  0.6113215E+02  0.7818608E-02  0.1401068E+00
          2   -1    0    0  502    0  0.00000000000E+00  0.00000000000E+00  0.14371885698E+03  0.14371885698E+03  0.00000000000E+00 0.  1.
          1   -1    0    0  501    0 -0.00000000000E+00 -0.00000000000E+00 -0.16641112612E+03  0.16641112612E+03  0.00000000000E+00 0.  1.
          2    1    1    2  501    0 -0.24446305722E+02  0.45444644308E+02 -0.75798535675E+02  0.91696540667E+02  0.00000000000E+00 0.  1.
          1    1    1    2  502    0  0.78274362238E+01 -0.22457663717E+02 -0.50770076310E+02  0.56064392139E+02  0.00000000000E+00 0.  1.
         22    1    1    2    0    0 -0.58522536361E+00  0.26853021544E+02 -0.16102137504E+02  0.31316227215E+02  0.00000000000E+00 0. -1.
         22    1    1    2    0    0  0.17204094862E+02 -0.49840002135E+02  0.11997848035E+03  0.13105282309E+03  0.00000000000E+00 0.  1.
</event>
<event>
 6    1  0.3624778E-005  0.4857253E+02  0.7818608E-02  0.1484270E+00
          2   -1    0    0  502    0  0.00000000000E+00  0.00000000000E+00  0.62275648082E+02  0.62275648082E+02  0.00000000000E+00 0. -1.
          1   -1    0    0  501    0 -0.00000000000E+00 -0.00000000000E+00 -0.37176962620E+03  0.37176962620E+03  0.00000000000E+00 0. -1.
          2    1    1    2  501    0 -0.24943274938E+02 -0.50339867420E+01 -0.11576475676E+03  0.11852842231E+03  0.00000000000E+00 0. -1.
          1    1    1    2  502    0  0.68711058684E+02  0.14457985007E+01 -0.17121722593E+03  0.18449563240E+03  0.00000000000E+00 0. -1.
         22    1    1    2    0    0 -0.13154060092E+02  0.90429457321E+01 -0.71355529054E+02  0.73119188255E+02  0.00000000000E+00 0.  1.
         22    1    1    2    0    0 -0.30613723654E+02 -0.54547574908E+01  0.48843533620E+02  0.57902031327E+02  0.00000000000E+00 0. -1.
</event>
<event>
 6    1  0.3624778E-005  0.1129367E+03  0.7818608E-02  0.1257196E+00
          2   -1    0    0  502    0  0.00000000000E+00  0.00000000000E+00  0.90774411046E+02  0.90774411046E+02  0.00000000000E+00 0. -1.
          1   -1    0    0  501    0 -0.00000000000E+00 -0.00000000000E+00 -0.60636643019E+03  0.60636643019E+03  0.00000000000E+00 0. -1.
          2    1    1    2  501    0  0.16937928453E+02 -0.91641533671E+02  0.14288908876E+01  0.93204644965E+02  0.00000000000E+00 0. -1.
          1    1    1    2  502    0  0.80971279481E+02  0.78729663488E+02 -0.36789688485E+03  0.38484129962E+03  0.00000000000E+00 0. -1.
         22    1    1    2    0    0  0.17139111330E+02 -0.22530412001E+02 -0.11429616799E+01  0.28331518905E+02  0.00000000000E+00 0.  1.
         22    1    1    2    0    0 -0.11504831926E+03  0.35442282183E+02 -0.14798106350E+03  0.19076337774E+03  0.00000000000E+00 0.  1.
</event>
<event>
 6    1  0.3624778E-005  0.1636745E+03  0.7818608E-02  0.1229615E+00
          2   -1    0    0  502    0  0.00000000000E+00  0.00000000000E+00  0.13608612283E+03  0.13608612283E+03  0.00000000000E+00 0. -1.
          1   -1    0    0  501    0 -0.00000000000E+00 -0.00000000000E+00 -0.56741736539E+03  0.56741736539E+03  0.00000000000E+00 0. -1.
          2    1    1    2  501    0  0.27738753902E+02 -0.29558100535E+02 -0.47032412915E+02  0.62089996295E+02  0.00000000000E+00 0. -1.
          1    1    1    2  502    0 -0.61845989750E+02  0.23767215798E+02 -0.47614720305E+03  0.48073481876E+03  0.00000000000E+00 0. -1.
         22    1    1    2    0    0  0.17185446057E+01  0.58997945421E+02  0.76323952980E+02  0.96483453285E+02  0.00000000000E+00 0. -1.
         22    1    1    2    0    0  0.32388691243E+02 -0.53207060683E+02  0.15524420417E+02  0.64195219886E+02  0.00000000000E+00 0. -1.
</event>
<event>
 6    1  0.3624778E-005  0.8295368E+02  0.7818608E-02  0.1325661E+00
          2   -1    0    0  502    0  0.00000000000E+00  0.00000000000E+00  0.72704343967E+02  0.72704343967E+02  0.00000000000E+00 0. -1.
          1   -1    0    0  501    0 -0.00000000000E+00 -0.00000000000E+00 -0.37559984465E+03  0.37559984465E+03  0.00000000000E+00 0.  1.
          2    1    1    2  501    0  0.23322117218E+02 -0.12949972155E+02 -0.46167545684E+01  0.27072815759E+02  0.00000000000E+00 0. -1.
          1    1    1    2  502    0  0.42364149952E+02  0.58762099619E+01 -0.27497315565E+03  0.27827951303E+03  0.00000000000E+00 0.  1.
         22    1    1    2    0    0 -0.91992405157E+02  0.58507685696E+01  0.18044662268E+02  0.93927865598E+02  0.00000000000E+00 0. -1.
         22    1    1    2    0    0  0.26306137986E+02  0.12229936230E+01 -0.41350252726E+02  0.49023994224E+02  0.00000000000E+00 0. -1.
</event>
<event>
 6    1  0.3624778E-005  0.9886235E+02  0.7818608E-02  0.1324920E+00
          2   -1    0    0  502    0  0.00000000000E+00  0.00000000000E+00  0.36652115211E+02  0.36652115211E+02  0.00000000000E+00 0.  1.
          1   -1    0    0  501    0 -0.00000000000E+00 -0.00000000000E+00 -0.21553128146E+04  0.21553128146E+04  0.00000000000E+00 0. -1.
          2    1    1    2  501    0 -0.34785119820E+02  0.87082964260E+01 -0.94476722203E+02  0.10105290706E+03  0.00000000000E+00 0.  1.
          1    1    1    2  502    0  0.55392088506E+02  0.53686950409E+01 -0.19356359581E+04  0.19364358158E+04  0.00000000000E+00 0. -1.
         22    1    1    2    0    0 -0.65698649476E+02 -0.20878633792E+02 -0.19344969881E+02  0.71599285972E+02  0.00000000000E+00 0.  1.
         22    1    1    2    0    0  0.45091680790E+02  0.68016423253E+01 -0.69203049225E+02  0.82876921014E+02  0.00000000000E+00 0.  1.
</event>
<event>
 6    1  0.3624778E-005  0.8317319E+02  0.7818608E-02  0.1341477E+00
          2   -1    0    0  502    0  0.00000000000E+00  0.00000000000E+00  0.94245844290E+02  0.94245844290E+02  0.00000000000E+00 0.  1.
          1   -1    0    0  501    0 -0.00000000000E+00 -0.00000000000E+00 -0.23195361885E+03  0.23195361885E+03  0.00000000000E+00 0. -1.
          2    1    1    2  501    0  0.10308005516E+02 -0.40855087823E+02 -0.33624723572E+02  0.53907469001E+02  0.00000000000E+00 0.  1.
          1    1    1    2  502    0  0.16702598296E+02  0.81643564770E+02 -0.11210983320E+03  0.13968988209E+03  0.00000000000E+00 0. -1.
         22    1    1    2    0    0  0.30258263829E+02 -0.38594034016E+02 -0.35579021943E+02  0.60588190219E+02  0.00000000000E+00 0.  1.
         22    1    1    2    0    0 -0.57268867641E+02 -0.21944429311E+01  0.43605804158E+02  0.72013921828E+02  0.00000000000E+00 0.  1.
</event>
<event>
 6    1  0.3624778E-005  0.1713869E+03  0.7818608E-02  0.1184728E+00
          2   -1    0    0  502    0  0.00000000000E+00  0.00000000000E+00  0.28184895838E+03  0.28184895838E+03  0.00000000000E+00 0. -1.
          1   -1    0    0  501    0 -0.00000000000E+00 -0.00000000000E+00 -0.87320757257E+03  0.87320757257E+03  0.00000000000E+00 0. -1.
          2    1    1    2  501    0  0.77139913561E+02  0.12510330194E+03  0.48573422769E+02  0.15479269951E+03  0.00000000000E+00 0. -1.
          1    1    1    2  502    0 -0.44736130099E+02 -0.25063834697E+02 -0.78068198223E+03  0.78236428505E+03  0.00000000000E+00 0. -1.
         22    1    1    2    0    0 -0.10701865207E+02  0.27159254839E+02  0.57076455301E+02  0.64108320771E+02  0.00000000000E+00 0. -1.
         22    1    1    2    0    0 -0.21701918254E+02 -0.12719872209E+03  0.83673489963E+02  0.15379122562E+03  0.00000000000E+00 0. -1.
</event>
<event>
 6    1  0.3624778E-005  0.1353500E+03  0.7818608E-02  0.1317090E+00
          2   -1    0    0  502    0  0.00000000000E+00  0.00000000000E+00  0.14114540667E+03  0.14114540667E+03  0.00000000000E+00 0. -1.
          1   -1    0    0  501    0 -0.00000000000E+00 -0.00000000000E+00 -0.81001554540E+03  0.81001554540E+03  0.00000000000E+00 0. -1.
          2    1    1    2  501    0  0.11637557317E+03  0.40461756960E+02 -0.67656600926E+03  0.68769324025E+03  0.00000000000E+00 0. -1.
          1    1    1    2  502    0 -0.13486268254E+03 -0.19696245589E+02  0.33033219102E+01  0.13633340444E+03  0.00000000000E+00 0. -1.
         22    1    1    2    0    0  0.11933958493E+02 -0.14103665008E+01 -0.59164757578E+02  0.60372817047E+02  0.00000000000E+00 0.  1.
         22    1    1    2    0    0  0.65531508694E+01 -0.19355144871E+02  0.63557306197E+02  0.66761490324E+02  0.00000000000E+00 0. -1.
</event>
<event>
 6    1  0.3624778E-005  0.1022793E+03  0.7818608E-02  0.1299160E+00
          2   -1    0    0  502    0  0.00000000000E+00  0.00000000000E+00  0.34237447909E+03  0.34237447909E+03  0.00000000000E+00 0.  1.
          1   -1    0    0  501    0 -0.00000000000E+00 -0.00000000000E+00 -0.32246629678E+03  0.32246629678E+03  0.00000000000E+00 0.  1.
          2    1    1    2  501    0 -0.22871966425E+02  0.47061284656E+02  0.12027218154E+03  0.13116130913E+03  0.00000000000E+00 0.  1.
          1    1    1    2  502    0  0.24155137462E+02 -0.13860638485E+02 -0.29731091905E+03  0.29861240857E+03  0.00000000000E+00 0.  1.
         22    1    1    2    0    0  0.48087714785E+02  0.14064605326E+02  0.13031205824E+03  0.13961186897E+03  0.00000000000E+00 0.  1.
         22    1    1    2    0    0 -0.49370885823E+02 -0.47265251497E+02  0.66634861588E+02  0.95455189198E+02  0.00000000000E+00 0. -1.
</event>
<event>
 6    1  0.3624778E-005  0.1349252E+03  0.7818608E-02  0.1273554E+00
          2   -1    0    0  502    0  0.00000000000E+00  0.00000000000E+00  0.59203572272E+02  0.59203572272E+02  0.00000000000E+00 0. -1.
          1   -1    0    0  501    0 -0.00000000000E+00 -0.00000000000E+00 -0.21344150809E+03  0.21344150809E+03  0.00000000000E+00 0.  1.
          2    1    1    2  501    0 -0.17083807279E+02  0.41270541639E+02 -0.18019526246E+02  0.48164482811E+02  0.00000000000E+00 0. -1.
          1    1    1    2  502    0 -0.20442345647E+02  0.22087453037E+02 -0.34546459802E+02  0.45817059728E+02  0.00000000000E+00 0.  1.
         22    1    1    2    0    0  0.79217298744E+02 -0.47779767199E+02 -0.96789706343E+02  0.13389000645E+03  0.00000000000E+00 0.  1.
         22    1    1    2    0    0 -0.41691145818E+02 -0.15578227477E+02 -0.48822434323E+01  0.44773531376E+02  0.00000000000E+00 0. -1.
</event>
<event>
 6    1  0.3624778E-005  0.7258351E+02  0.7818608E-02  0.1372747E+00
          2   -1    0    0  502    0  0.00000000000E+00  0.00000000000E+00  0.49544483055E+03  0.49544483055E+03  0.00000000000E+00 0.  1.
          1   -1    0    0  501    0 -0.00000000000E+00 -0.00000000000E+00 -0.10054821103E+03  0.10054821103E+03  0.00000000000E+00 0.  1.
          2    1    1    2  501    0  0.87955046706E+01  0.22740037914E+02  0.77736386523E+02  0.81470338261E+02  0.00000000000E+00 0.  1.
          1    1    1    2  502    0 -0.61355033010E+02 -0.34836224106E+02 -0.73570505208E+02  0.10193439960E+03  0.00000000000E+00 0.  1.
         22    1    1    2    0    0  0.22334250727E+02 -0.45697378138E+02  0.77925528487E+02  0.93056204061E+02  0.00000000000E+00 0.  1.
         22    1    1    2    0    0  0.30225277613E+02  0.57793564331E+02  0.31280520972E+03  0.31953209966E+03  0.00000000000E+00 0.  1.
</event>
<event>
 6    1  0.3624778E-005  0.1707973E+03  0.7818608E-02  0.1305754E+00
          2   -1    0    0  502    0  0.00000000000E+00  0.00000000000E+00  0.31062437432E+02  0.31062437432E+02  0.00000000000E+00 0. -1.
          1   -1    0    0  501    0 -0.00000000000E+00 -0.00000000000E+00 -0.20455457923E+04  0.20455457923E+04  0.00000000000E+00 0. -1.
          2    1    1    2  501    0  0.10956687792E+02 -0.10659500982E+03 -0.88091965140E+03  0.88741308158E+03  0.00000000000E+00 0. -1.
          1    1    1    2  502    0 -0.35746632294E+01  0.14969239763E+03 -0.95838164343E+03  0.97000823017E+03  0.00000000000E+00 0. -1.
         22    1    1    2    0    0 -0.43908576583E+00  0.12478882688E+02  0.15813303694E+02  0.20148843221E+02  0.00000000000E+00 0. -1.
         22    1    1    2    0    0 -0.69429387963E+01 -0.55576270500E+02 -0.19099536378E+03  0.19903807482E+03  0.00000000000E+00 0. -1.
</event>
<event>
 6    1  0.3624778E-005  0.7600138E+02  0.7818608E-02  0.1342613E+00
          2   -1    0    0  502    0  0.00000000000E+00  0.00000000000E+00  0.18895636292E+03  0.18895636292E+03  0.00000000000E+00 0. -1.
          1   -1    0    0  501    0 -0.00000000000E+00 -0.00000000000E+00 -0.17080771933E+03  0.17080771933E+03  0.00000000000E+00 0. -1.
          2    1    1    2  501    0 -0.68324853589E+01  0.45517013336E+02  0.59698359750E+02  0.75381532991E+02  0.00000000000E+00 0. -1.
          1    1    1    2  502    0  0.32703361121E+02  0.37305169682E+02 -0.10705408783E+03  0.11799052180E+03  0.00000000000E+00 0. -1.
         22    1    1    2    0    0  0.73969738161E+00  0.21755471673E+02  0.53570117922E+02  0.57823915762E+02  0.00000000000E+00 0. -1.
         22    1    1    2    0    0 -0.26610573144E+02 -0.10457765469E+03  0.11934253754E+02  0.10856811169E+03  0.00000000000E+00 0. -1.
</event>
<event>
 6    1  0.3624778E-005  0.3246055E+03  0.7818608E-02  0.1198284E+00
          2   -1    0    0  502    0  0.00000000000E+00  0.00000000000E+00  0.58621357678E+03  0.58621357678E+03  0.00000000000E+00 0.  1.
          1   -1    0    0  501    0 -0.00000000000E+00 -0.00000000000E+00 -0.17120854940E+03  0.17120854940E+03  0.00000000000E+00 0.  1.
          2    1    1    2  501    0  0.68174745767E+02  0.10920421086E+03  0.39375589827E+03  0.41426689833E+03  0.00000000000E+00 0.  1.
          1    1    1    2  502    0 -0.94116169911E+02  0.52550322182E+01 -0.98344121172E+02  0.13622420846E+03  0.00000000000E+00 0.  1.
         22    1    1    2    0    0 -0.80896269413E+01  0.13247944993E+02  0.59959981662E+02  0.61936657252E+02  0.00000000000E+00 0.  1.
         22    1    1    2    0    0  0.34031051085E+02 -0.12770718807E+03  0.59633268617E+02  0.14499436213E+03  0.00000000000E+00 0.  1.
</event>
<event>
 6    1  0.3624778E-005  0.1116474E+03  0.7818608E-02  0.1261509E+00
          2   -1    0    0  502    0  0.00000000000E+00  0.00000000000E+00  0.80428653042E+03  0.80428653042E+03  0.00000000000E+00 0. -1.
          1   -1    0    0  501    0 -0.00000000000E+00 -0.00000000000E+00 -0.19711109168E+04  0.19711109168E+04  0.00000000000E+00 0.  1.
          2    1    1    2  501    0  0.11845427719E+03  0.13283160667E+02  0.24421074916E+03  0.27174758167E+03  0.00000000000E+00 0. -1.
          1    1    1    2  502    0 -0.55106679863E+02 -0.15234265889E+02 -0.19483771426E+04  0.19492158215E+04  0.00000000000E+00 0.  1.
         22    1    1    2    0    0 -0.88827415726E+02 -0.22959983369E+02  0.46287893416E+03  0.47188386104E+03  0.00000000000E+00 0. -1.
         22    1    1    2    0    0  0.25479818400E+02  0.24911088591E+02  0.74463072922E+02  0.82550182977E+02  0.00000000000E+00 0. -1.
</event>
<event>
 6    1  0.3624778E-005  0.2479791E+03  0.7818608E-02  0.1198642E+00
          2   -1    0    0  502    0  0.00000000000E+00  0.00000000000E+00  0.11181197364E+03  0.11181197364E+03  0.00000000000E+00 0.  1.
          1   -1    0    0  501    0 -0.00000000000E+00 -0.00000000000E+00 -0.12510581091E+04  0.12510581091E+04  0.00000000000E+00 0. -1.
          2    1    1    2  501    0 -0.95261586185E+02 -0.53274377121E+01 -0.10814304301E+03  0.14421535684E+03  0.00000000000E+00 0.  1.
          1    1    1    2  502    0  0.11367900243E+02 -0.31384522654E+02 -0.10612199904E+04  0.10617448306E+04  0.00000000000E+00 0. -1.
         22    1    1    2    0    0 -0.31794605801E+02  0.17354365155E+02  0.12380693501E+02  0.38279923191E+02  0.00000000000E+00 0.  1.
         22    1    1    2    0    0  0.11568829174E+03  0.19357595211E+02  0.17736204383E+02  0.11862997212E+03  0.00000000000E+00 0.  1.
</event>
<event>
 6    1  0.3624778E-005  0.1950083E+03  0.7818608E-02  0.1198717E+00
          2   -1    0    0  502    0  0.00000000000E+00  0.00000000000E+00  0.28237004216E+03  0.28237004216E+03  0.00000000000E+00 0.  1.
          1   -1    0    0  501    0 -0.00000000000E+00 -0.00000000000E+00 -0.28854922652E+03  0.28854922652E+03  0.00000000000E+00 0.  1.
          2    1    1    2  501    0 -0.42914726360E+01 -0.54817184938E+02 -0.33697619346E+02  0.64489301838E+02  0.00000000000E+00 0.  1.
          1    1    1    2  502    0 -0.89247333193E+01 -0.20458057029E+02 -0.21905471806E+03  0.22018890178E+03  0.00000000000E+00 0.  1.
         22    1    1    2    0    0 -0.54343269099E+02  0.46521141041E+02  0.13257248418E+03  0.15064153153E+03  0.00000000000E+00 0.  1.
         22    1    1    2    0    0  0.67559475054E+02  0.28754100926E+02  0.11400066887E+03  0.13559953353E+03  0.00000000000E+00 0. -1.
</event>
<event>
 6    1  0.3624778E-005  0.3425526E+03  0.7818608E-02  0.1146583E+00
          2   -1    0    0  502    0  0.00000000000E+00  0.00000000000E+00  0.57496065133E+03  0.57496065133E+03  0.00000000000E+00 0. -1.
          1   -1    0    0  501    0 -0.00000000000E+00 -0.00000000000E+00 -0.39942069639E+03  0.39942069639E+03  0.00000000000E+00 0. -1.
          2    1    1    2  501    0 -0.12681406013E+03  0.67491398635E+02 -0.14690327475E+03  0.20546889514E+03  0.00000000000E+00 0. -1.
          1    1    1    2  502    0  0.22140756443E+03 -0.24381039720E+03  0.40240971534E+03  0.51999845997E+03  0.00000000000E+00 0. -1.
         22    1    1    2    0    0 -0.12293327151E+03  0.14410443287E+03 -0.80968024109E+02  0.20599635372E+03  0.00000000000E+00 0. -1.
         22    1    1    2    0    0  0.28339767210E+02  0.32214565694E+02  0.10015384523E+01  0.42917638887E+02  0.00000000000E+00 0. -1.
</event>
<event>
 6    1  0.3624778E-005  0.7981537E+02  0.7818608E-02  0.1351502E+00
          2   -1    0    0  502    0  0.00000000000E+00  0.00000000000E+00  0.27197564062E+03  0.27197564062E+03  0.00000000000E+00 0. -1.
          1   -1    0    0  501    0 -0.00000000000E+00 -0.00000000000E+00 -0.21406279248E+03  0.21406279248E+03  0.00000000000E+00 0.  1.
          2    1    1    2  501    0  0.26926142662E+02 -0.12333923714E+02  0.66717997205E+02  0.72996123074E+02  0.00000000000E+00 0. -1.
          1    1    1    2  502    0  0.30045972959E+02 -0.73944121288E+02 -0.16739520453E+03  0.18544985324E+03  0.00000000000E+00 0.  1.
         22    1    1    2    0    0 -0.80263285032E+02  0.63787157292E+02  0.49592652839E+02  0.11388778501E+03  0.00000000000E+00 0. -1.
         22    1    1    2    0    0  0.23291169411E+02  0.22490887711E+02  0.10899740264E+03  0.11370467178E+03  0.00000000000E+00 0. -1.
</event>
<event>
 6    1  0.3624778E-005  0.5261724E+03  0.7818608E-02  0.1081286E+00
          2   -1    0    0  502    0  0.00000000000E+00  0.00000000000E+00  0.67857100966E+03  0.67857100966E+03  0.00000000000E+00 0. -1.
          1   -1    0    0  501    0 -0.00000000000E+00 -0.00000000000E+00 -0.88028217360E+03  0.88028217360E+03  0.00000000000E+00 0. -1.
          2    1    1    2  501    0 -0.27294322260E+03 -0.42169539777E+03 -0.63448189484E+02  0.50631085710E+03  0.00000000000E+00 0. -1.
          1    1    1    2  502    0  0.33948181485E+03  0.39417357952E+03 -0.46350497449E+03  0.69674785596E+03  0.00000000000E+00 0. -1.
         22    1    1    2    0    0 -0.57732335783E+02  0.22087566046E+02  0.33554554584E+03  0.34119158328E+03  0.00000000000E+00 0. -1.
         22    1    1    2    0    0 -0.88062564695E+01  0.54342522102E+01 -0.10303545807E+02  0.14602886916E+02  0.00000000000E+00 0.  1.
</event>
<event>
 6    1  0.3624778E-005  0.1062927E+03  0.7818608E-02  0.1320736E+00
          2   -1    0    0  502    0  0.00000000000E+00  0.00000000000E+00  0.15351251751E+03  0.15351251751E+03  0.00000000000E+00 0. -1.
          1   -1    0    0  501    0 -0.00000000000E+00 -0.00000000000E+00 -0.10898938837E+03  0.10898938837E+03  0.00000000000E+00 0. -1.
          2    1    1    2  501    0  0.58028395958E+01 -0.20816928919E+02 -0.98546419656E+01  0.23751451435E+02  0.00000000000E+00 0. -1.
          1    1    1    2  502    0 -0.64557443322E+02  0.33215891086E+02 -0.26237160628E+02  0.77196810211E+02  0.00000000000E+00 0. -1.
         22    1    1    2    0    0  0.19431065755E+02 -0.83970007681E+01  0.11017891352E+03  0.11219388986E+03  0.00000000000E+00 0. -1.
         22    1    1    2    0    0  0.39323537971E+02 -0.40019613986E+01 -0.29563981784E+02  0.49359754381E+02  0.00000000000E+00 0. -1.
</event>
<event>
 6    1  0.3624778E-005  0.9854724E+02  0.7818608E-02  0.1290462E+00
          2   -1    0    0  502    0  0.00000000000E+00  0.00000000000E+00  0.56289572186E+03  0.56289572186E+03  0.00000000000E+00 0. -1.
          1   -1    0    0  501    0 -0.00000000000E+00 -0.00000000000E+00 -0.10103352356E+04  0.10103352356E+04  0.00000000000E+00 0. -1.
          2    1    1    2  501    0  0.21929682121E+02 -0.26066271145E+02  0.32524837164E+02  0.47098051785E+02  0.00000000000E+00 0. -1.
          1    1    1    2  502    0  0.58570861250E+02 -0.29889364348E+02 -0.99000843110E+03  0.99218980722E+03  0.00000000000E+00 0. -1.
         22    1    1    2    0    0 -0.55844816762E+02  0.86044998610E+02  0.45575031032E+03  0.46715172129E+03  0.00000000000E+00 0. -1.
         22    1    1    2    0    0 -0.24655726609E+02 -0.30089363116E+02  0.54293769843E+02  0.66791377221E+02  0.00000000000E+00 0. -1.
</event>
<event>
 6    1  0.3624778E-005  0.2115144E+03  0.7818608E-02  0.1221270E+00
          2   -1    0    0  502    0  0.00000000000E+00  0.00000000000E+00  0.10810743499E+03  0.10810743499E+03  0.00000000000E+00 0. -1.
          1   -1    0    0  501    0 -0.00000000000E+00 -0.00000000000E+00 -0.87330140549E+03  0.87330140549E+03  0.00000000000E+00 0. -1.
          2    1    1    2  501    0  0.83807830687E+02  0.58219675215E+02 -0.12551144882E+03  0.16176033770E+03  0.00000000000E+00 0. -1.
          1    1    1    2  502    0 -0.27870217366E+02 -0.52960692167E+02 -0.67568999547E+03  0.67833513392E+03  0.00000000000E+00 0. -1.
         22    1    1    2    0    0  0.31755962238E+02 -0.13058089091E+02  0.40577268381E+02  0.53155145919E+02  0.00000000000E+00 0.  1.
         22    1    1    2    0    0 -0.87693575559E+02  0.77991060429E+01 -0.45697945886E+01  0.88158222940E+02  0.00000000000E+00 0. -1.
</event>
<event>
 6    1  0.3624778E-005  0.9188224E+02  0.7818608E-02  0.1347229E+00
          2   -1    0    0  502    0  0.00000000000E+00  0.00000000000E+00  0.37070866505E+03  0.37070866505E+03  0.00000000000E+00 0. -1.
          1   -1    0    0  501    0 -0.00000000000E+00 -0.00000000000E+00 -0.53396347274E+02  0.53396347274E+02  0.00000000000E+00 0.  1.
          2    1    1    2  501    0  0.24113485905E+02 -0.22372144575E+02  0.11839896788E+02  0.34959350842E+02  0.00000000000E+00 0. -1.
          1    1    1    2  502    0 -0.51227466438E+02  0.50128162794E+02  0.17237091405E+02  0.73717049200E+02  0.00000000000E+00 0.  1.
         22    1    1    2    0    0 -0.32400166934E+02  0.20802695444E+02  0.17093003005E+03  0.17521300787E+03  0.00000000000E+00 0.  1.
         22    1    1    2    0    0  0.59514147467E+02 -0.48558713663E+02  0.11730529954E+03  0.14021560441E+03  0.00000000000E+00 0. -1.
</event>
<event>
 6    1  0.3624778E-005  0.8132236E+02  0.7818608E-02  0.1356951E+00
          2   -1    0    0  502    0  0.00000000000E+00  0.00000000000E+00  0.63964522695E+03  0.63964522695E+03  0.00000000000E+00 0. -1.
          1   -1    0    0  501    0 -0.00000000000E+00 -0.00000000000E+00 -0.10136309416E+03  0.10136309416E+03  0.00000000000E+00 0. -1.
          2    1    1    2  501    0  0.13197903700E+02 -0.79711132175E+02 -0.63342195577E+02  0.10266588038E+03  0.00000000000E+00 0. -1.
          1    1    1    2  502    0  0.17939189347E+02  0.33906305331E+02  0.34491588608E+03  0.34704239010E+03  0.00000000000E+00 0. -1.
         22    1    1    2    0    0 -0.34202441225E+02  0.32032571982E+02  0.26871702191E+03  0.27277230526E+03  0.00000000000E+00 0. -1.
         22    1    1    2    0    0  0.30653481771E+01  0.13772254862E+02 -0.12008579633E+02  0.18527745363E+02  0.00000000000E+00 0.  1.
</event>
<event>
 6    1  0.3624778E-005  0.7367076E+02  0.7818608E-02  0.1351989E+00
          2   -1    0    0  502    0  0.00000000000E+00  0.00000000000E+00  0.21061014562E+03  0.21061014562E+03  0.00000000000E+00 0.  1.
          1   -1    0    0  501    0 -0.00000000000E+00 -0.00000000000E+00 -0.61156271052E+03  0.61156271052E+03  0.00000000000E+00 0.  1.
          2    1    1    2  501    0 -0.97669108975E+01  0.35894926719E+02  0.51078381011E+02  0.63188917694E+02  0.00000000000E+00 0.  1.
          1    1    1    2  502    0 -0.21589612701E+02 -0.33460350595E+01 -0.57762316667E+03  0.57803618399E+03  0.00000000000E+00 0.  1.
         22    1    1    2    0    0  0.35725808270E+02 -0.63524481902E+02  0.27348095826E+02  0.77843506619E+02  0.00000000000E+00 0.  1.
         22    1    1    2    0    0 -0.43692846719E+01  0.30975590243E+02  0.98244124932E+02  0.10310424784E+03  0.00000000000E+00 0.  1.
</event>
<event>
 6    1  0.3624778E-005  0.8802253E+02  0.7818608E-02  0.1335899E+00
          2   -1    0    0  502    0  0.00000000000E+00  0.00000000000E+00  0.30123575289E+03  0.30123575289E+03  0.00000000000E+00 0.  1.
          1   -1    0    0  501    0 -0.00000000000E+00 -0.00000000000E+00 -0.11388377217E+03  0.11388377217E+03  0.00000000000E+00 0.  1.
          2    1    1    2  501    0  0.61284099565E+01  0.22822973226E+02  0.42731294550E+01  0.24014686149E+02  0.00000000000E+00 0.  1.
          1    1    1    2  502    0 -0.94871707580E+01 -0.97759705938E+02 -0.53520496074E+02  0.11185441437E+03  0.00000000000E+00 0.  1.
         22    1    1    2    0    0  0.34991868875E+02  0.40161653566E+02  0.22446586135E+03  0.23069961469E+03  0.00000000000E+00 0.  1.
         22    1    1    2    0    0 -0.31633108074E+02  0.34775079145E+02  0.12133485987E+02  0.48550809861E+02  0.00000000000E+00 0.  1.
</event>
<event>
 6    1  0.3624778E-005  0.6882676E+02  0.7818608E-02  0.1394832E+00
          2   -1    0    0  502    0  0.00000000000E+00  0.00000000000E+00  0.92318869406E+02  0.92318869406E+02  0.00000000000E+00 0.  1.
          1   -1    0    0  501    0 -0.00000000000E+00 -0.00000000000E+00 -0.26444413281E+03  0.26444413281E+03  0.00000000000E+00 0.  1.
          2    1    1    2  501    0  0.30449317854E+02  0.37488505013E+02 -0.26851484408E+02  0.55258946613E+02  0.00000000000E+00 0.  1.
          1    1    1    2  502    0 -0.18902433631E+02 -0.51911350522E+02 -0.16717947121E+03  0.17607119555E+03  0.00000000000E+00 0.  1.
         22    1    1    2    0    0 -0.38921825229E+02  0.14948815621E+02  0.63303097434E+02  0.75800116836E+02  0.00000000000E+00 0.  1.
         22    1    1    2    0    0  0.27374941006E+02 -0.52597011239E+00 -0.41397405220E+02  0.49632743210E+02  0.00000000000E+00 0.  1.
</event>
<event>
 6    1  0.3624778E-005  0.1732780E+03  0.7818608E-02  0.1175758E+00
          2   -1    0    0  502    0  0.00000000000E+00  0.00000000000E+00  0.63171061423E+02  0.63171061423E+02  0.00000000000E+00 0. -1.
          1   -1    0    0  501    0 -0.00000000000E+00 -0.00000000000E+00 -0.77942869512E+03  0.77942869512E+03  0.00000000000E+00 0. -1.
          2    1    1    2  501    0 -0.34316680074E+02 -0.15285201831E+03 -0.11045233077E+03  0.19167965830E+03  0.00000000000E+00 0. -1.
          1    1    1    2  502    0  0.19185153529E+02 -0.12385296658E+02 -0.11741223300E+03  0.11961228259E+03  0.00000000000E+00 0. -1.
         22    1    1    2    0    0  0.98514194237E+01  0.17595228043E+03 -0.48854899231E+03  0.51936150544E+03  0.00000000000E+00 0. -1.
         22    1    1    2    0    0  0.52801071216E+01 -0.10714965456E+02  0.15592237354E+00  0.11946310214E+02  0.00000000000E+00 0.  1.
</event>
<event>
 6    1  0.3624778E-005  0.7823467E+03  0.7818608E-02  0.1016284E+00
          2   -1    0    0  502    0  0.00000000000E+00  0.00000000000E+00  0.24703422690E+04  0.24703422690E+04  0.00000000000E+00 0.  1.
          1   -1    0    0  501    0 -0.00000000000E+00 -0.00000000000E+00 -0.46955391155E+03  0.46955391155E+03  0.00000000000E+00 0.  1.
          2    1    1    2  501    0 -0.57827690745E+03 -0.43698629138E+03  0.11439774197E+04  0.13542693740E+04  0.00000000000E+00 0.  1.
          1    1    1    2  502    0  0.68473158450E+03  0.38440965335E+03  0.78632406400E+02  0.78918386941E+03  0.00000000000E+00 0.  1.
         22    1    1    2    0    0 -0.85987445554E+02  0.84984128928E+02  0.68666478614E+03  0.69722641336E+03  0.00000000000E+00 0.  1.
         22    1    1    2    0    0 -0.20467231487E+02 -0.32407490903E+02  0.91513745168E+02  0.99216523755E+02  0.00000000000E+00 0. -1.
</event>
<event>
 6    1  0.3624778E-005  0.1318362E+03  0.7818608E-02  0.1271848E+00
          2   -1    0    0  502    0  0.00000000000E+00  0.00000000000E+00  0.76740612332E+03  0.76740612332E+03  0.00000000000E+00 0.  1.
          1   -1    0    0  501    0 -0.00000000000E+00 -0.00000000000E+00 -0.17672560443E+02  0.17672560443E+02  0.00000000000E+00 0.  1.
          2    1    1    2  501    0  0.41935694701E+02 -0.82325212980E+01  0.81278523844E+02  0.91829054962E+02  0.00000000000E+00 0.  1.
          1    1    1    2  502    0  0.13024110471E+02  0.23995440501E+02  0.29959191365E+02  0.40533464763E+02  0.00000000000E+00 0.  1.
         22    1    1    2    0    0 -0.68694811191E+02  0.37386099678E+02  0.31296364123E+03  0.32258787681E+03  0.00000000000E+00 0.  1.
         22    1    1    2    0    0  0.13735006019E+02 -0.53149018881E+02  0.32553220643E+03  0.33012828722E+03  0.00000000000E+00 0.  1.
</event>
<event>
 6    1  0.3624778E-005  0.1591124E+03  0.7818608E-02  0.1311829E+00
          2   -1    0    0  502    0  0.00000000000E+00  0.00000000000E+00  0.13770985800E+03  0.13770985800E+03  0.00000000000E+00 0.  1.
          1   -1    0    0  501    0 -0.00000000000E+00 -0.00000000000E+00 -0.92590983644E+03  0.92590983644E+03  0.00000000000E+00 0.  1.
          2    1    1    2  501    0  0.58244997344E+01 -0.45389734268E+02 -0.10092197483E+02  0.46861553796E+02  0.00000000000E+00 0.  1.
          1    1    1    2  502    0  0.86581489613E+02 -0.58476835820E+01 -0.84042380352E+03  0.84489213469E+03  0.00000000000E+00 0.  1.
         22    1    1    2    0    0  0.13226391275E+02 -0.40394775578E+01  0.50154181290E+02  0.52025923404E+02  0.00000000000E+00 0.  1.
         22    1    1    2    0    0 -0.10563238062E+03  0.55276895408E+02  0.12161841270E+02  0.11984008255E+03  0.00000000000E+00 0. -1.
</event>
<event>
 6    1  0.3624778E-005  0.7394702E+03  0.7818608E-02  0.1052253E+00
          2   -1    0    0  502    0  0.00000000000E+00  0.00000000000E+00  0.88264265588E+03  0.88264265588E+03  0.00000000000E+00 0.  1.
          1   -1    0    0  501    0 -0.00000000000E+00 -0.00000000000E+00 -0.86222391073E+03  0.86222391073E+03  0.00000000000E+00 0.  1.
          2    1    1    2  501    0  0.19950472893E+03  0.66072414987E+03  0.28069980535E+03  0.74508450515E+03  0.00000000000E+00 0.  1.
          1    1    1    2  502    0 -0.20552451110E+03 -0.68804774789E+03 -0.39088280590E+03  0.81758143080E+03  0.00000000000E+00 0.  1.
         22    1    1    2    0    0  0.16578039433E+02 -0.46819647688E+02  0.70163208546E+02  0.85963868192E+02  0.00000000000E+00 0.  1.
         22    1    1    2    0    0 -0.10558257259E+02  0.74143245708E+02  0.60438537146E+02  0.96236762481E+02  0.00000000000E+00 0.  1.
</event>
<event>
 6    1  0.3624778E-005  0.1685679E+03  0.7818608E-02  0.1266387E+00
          2   -1    0    0  502    0  0.00000000000E+00  0.00000000000E+00  0.14384836301E+03  0.14384836301E+03  0.00000000000E+00 0.  1.
          1   -1    0    0  501    0 -0.00000000000E+00 -0.00000000000E+00 -0.15106294685E+04  0.15106294685E+04  0.00000000000E+00 0. -1.
          2    1    1    2  501    0  0.26380829536E+02 -0.36464940031E+02  0.37033452264E+02  0.58284788797E+02  0.00000000000E+00 0.  1.
          1    1    1    2  502    0  0.68064025030E+02 -0.91680826043E+01 -0.14321523028E+04  0.14337980973E+04  0.00000000000E+00 0. -1.
         22    1    1    2    0    0  0.26668136665E+02  0.57525087045E+01  0.21440742489E+02  0.34698505848E+02  0.00000000000E+00 0. -1.
         22    1    1    2    0    0 -0.12111299123E+03  0.39880513931E+02  0.68970026091E+01  0.12769643958E+03  0.00000000000E+00 0.  1.
</event>
<event>
 6    1  0.3624778E-005  0.1022972E+03  0.7818608E-02  0.1324975E+00
          2   -1    0    0  502    0  0.00000000000E+00  0.00000000000E+00  0.29210289398E+03  0.29210289398E+03  0.00000000000E+00 0.  1.
          1   -1    0    0  501    0 -0.00000000000E+00 -0.00000000000E+00 -0.14957074663E+03  0.14957074663E+03  0.00000000000E+00 0.  1.
          2    1    1    2  501    0  0.66761349501E+02  0.13139014917E+02 -0.95523656773E+02  0.11727949737E+03  0.00000000000E+00 0.  1.
          1    1    1    2  502    0 -0.53205055288E+02 -0.12801857996E+02  0.28379344823E+00  0.54724272632E+02  0.00000000000E+00 0.  1.
         22    1    1    2    0    0 -0.34769101992E+02  0.21954341442E+02  0.23522595304E+03  0.23879307474E+03  0.00000000000E+00 0.  1.
         22    1    1    2    0    0  0.21212807779E+02 -0.22291498364E+02  0.25460576269E+01  0.30876795861E+02  0.00000000000E+00 0. -1.
</event>
<event>
 6    1  0.3624778E-005  0.5533213E+02  0.7818608E-02  0.1510568E+00
          2   -1    0    0  502    0  0.00000000000E+00  0.00000000000E+00  0.92925960866E+02  0.92925960866E+02  0.00000000000E+00 0. -1.
          1   -1    0    0  501    0 -0.00000000000E+00 -0.00000000000E+00 -0.24968003920E+03  0.24968003920E+03  0.00000000000E+00 0. -1.
          2    1    1    2  501    0  0.26491045396E+02 -0.29243101558E+02 -0.14891242529E+03  0.15405143582E+03  0.00000000000E+00 0. -1.
          1    1    1    2  502    0 -0.27557811418E+02  0.38706822757E+02 -0.41928520435E+02  0.63369171716E+02  0.00000000000E+00 0. -1.
         22    1    1    2    0    0  0.15622424892E+02 -0.79314847916E+01 -0.43151393468E+02  0.46572646143E+02  0.00000000000E+00 0. -1.
         22    1    1    2    0    0 -0.14555658870E+02 -0.15322364072E+01  0.77238260857E+02  0.78612746382E+02  0.00000000000E+00 0. -1.
</event>
<event>
 6    1  0.3624778E-005  0.3971598E+03  0.7818608E-02  0.1174187E+00
          2   -1    0    0  502    0  0.00000000000E+00  0.00000000000E+00  0.42613855966E+02  0.42613855966E+02  0.00000000000E+00 0. -1.
          1   -1    0    0  501    0 -0.00000000000E+00 -0.00000000000E+00 -0.17983576598E+04  0.17983576598E+04  0.00000000000E+00 0. -1.
          2    1    1    2  501    0 -0.16521495998E+03 -0.11830955219E+02 -0.59941346952E+03  0.62187817291E+03  0.00000000000E+00 0. -1.
          1    1    1    2  502    0 -0.28890674298E+02 -0.71537875973E+02 -0.66523505930E+03  0.66969397703E+03  0.00000000000E+00 0. -1.
         22    1    1    2    0    0  0.20181539029E+03  0.95630447976E+02 -0.48448242746E+03  0.53347713808E+03  0.00000000000E+00 0. -1.
         22    1    1    2    0    0 -0.77097560103E+01 -0.12261616784E+02 -0.66128475864E+01  0.15922227768E+02  0.00000000000E+00 0.  1.
</event>
<event>
 6    1  0.3624778E-005  0.7978405E+02  0.7818608E-02  0.1414808E+00
          2   -1    0    0  502    0  0.00000000000E+00  0.00000000000E+00  0.61369233070E+02  0.61369233070E+02  0.00000000000E+00 0.  1.
          1   -1    0    0  501    0 -0.00000000000E+00 -0.00000000000E+00 -0.53210595455E+03  0.53210595455E+03  0.00000000000E+00 0.  1.
          2    1    1    2  501    0 -0.34906424657E+02  0.49333148258E+02 -0.20163650710E+03  0.21049821613E+03  0.00000000000E+00 0.  1.
          1    1    1    2  502    0  0.14310090182E+02 -0.64027745708E+02 -0.24128054999E+03  0.25004126601E+03  0.00000000000E+00 0.  1.
         22    1    1    2    0    0  0.60873963953E+01  0.27799540677E+02 -0.75885249658E+02  0.81045925082E+02  0.00000000000E+00 0.  1.
         22    1    1    2    0    0  0.14508938079E+02 -0.13104943228E+02  0.48065585277E+02  0.51889780393E+02  0.00000000000E+00 0.  1.
</event>
<event>
 6    1  0.3624778E-005  0.2350472E+03  0.7818608E-02  0.1186562E+00
          2   -1    0    0  502    0  0.00000000000E+00  0.00000000000E+00  0.39600601155E+03  0.39600601155E+03  0.00000000000E+00 0. -1.
          1   -1    0    0  501    0 -0.00000000000E+00 -0.00000000000E+00 -0.18013093453E+03  0.18013093453E+03  0.00000000000E+00 0.  1.
          2    1    1    2  501    0 -0.68401145185E+02  0.78952254626E+02  0.80536912064E+02  0.13190287858E+03  0.00000000000E+00 0. -1.
          1    1    1    2  502    0 -0.15628769744E+02  0.14738831556E+02 -0.12646003216E+03  0.12827170901E+03  0.00000000000E+00 0.  1.
         22    1    1    2    0    0  0.34998314838E+02 -0.11681273750E+03  0.19421351276E+03  0.22932288639E+03  0.00000000000E+00 0. -1.
         22    1    1    2    0    0  0.49031600091E+02  0.23121651320E+02  0.67584684348E+02  0.86639472100E+02  0.00000000000E+00 0. -1.
</event>
<event>
 6    1  0.3624778E-005  0.1617400E+03  0.7818608E-02  0.1252077E+00
          2   -1    0    0  502    0  0.00000000000E+00  0.00000000000E+00  0.94410357179E+02  0.94410357179E+02  0.00000000000E+00 0.  1.
          1   -1    0    0  501    0 -0.00000000000E+00 -0.00000000000E+00 -0.26362430711E+03  0.26362430711E+03  0.00000000000E+00 0.  1.
          2    1    1    2  501    0  0.29186197009E+02 -0.33452935133E+02 -0.14843106199E+03  0.15492809018E+03  0.00000000000E+00 0.  1.
          1    1    1    2  502    0 -0.38191422713E+02 -0.28953351360E+02 -0.43475434992E+02  0.64706991675E+02  0.00000000000E+00 0.  1.
         22    1    1    2    0    0  0.40454087380E+02 -0.62302657495E+01  0.43857891691E+02  0.59990533092E+02  0.00000000000E+00 0.  1.
         22    1    1    2    0    0 -0.31448861677E+02  0.68636552243E+02 -0.21165344643E+02  0.78409049340E+02  0.00000000000E+00 0.  1.
</event>
<event>
 6    1  0.3624778E-005  0.9164627E+02  0.7818608E-02  0.1320176E+00
          2   -1    0    0  502    0  0.00000000000E+00  0.00000000000E+00  0.28957968642E+03  0.28957968642E+03  0.00000000000E+00 0.  1.
          1   -1    0    0  501    0 -0.00000000000E+00 -0.00000000000E+00 -0.44343777662E+03  0.44343777662E+03  0.00000000000E+00 0. -1.
          2    1    1    2  501    0 -0.23339486853E+02 -0.18970662821E+02 -0.49980840094E+02  0.58332684414E+02  0.00000000000E+00 0.  1.
          1    1    1    2  502    0 -0.83027425902E+01  0.19066126424E+02 -0.37479017180E+03  0.37536665487E+03  0.00000000000E+00 0. -1.
         22    1    1    2    0    0 -0.25973083109E+02 -0.23797534921E+02  0.19423229601E+02  0.40226677251E+02  0.00000000000E+00 0.  1.
         22    1    1    2    0    0  0.57615312552E+02  0.23702071318E+02  0.25148969209E+03  0.25909144651E+03  0.00000000000E+00 0.  1.
</event>
<event>
 6    1  0.3624778E-005  0.1576538E+03  0.7818608E-02  0.1215691E+00
          2   -1    0    0  502    0  0.00000000000E+00  0.00000000000E+00  0.14575472819E+03  0.14575472819E+03  0.00000000000E+00 0. -1.
          1   -1    0    0  501    0 -0.00000000000E+00 -0.00000000000E+00 -0.43959537176E+03  0.43959537176E+03  0.00000000000E+00 0. -1.
          2    1    1    2  501    0 -0.17990112482E+02 -0.12714808020E+03 -0.16485942268E+03  0.20897106903E+03  0.00000000000E+00 0. -1.
          1    1    1    2  502    0 -0.82920192247E+02  0.13005528502E+03 -0.14629253197E+03  0.21258325511E+03  0.00000000000E+00 0. -1.
         22    1    1    2    0    0  0.86661665773E+02  0.34436268294E+02  0.55496981029E+02  0.10851735249E+03  0.00000000000E+00 0. -1.
         22    1    1    2    0    0  0.14248638956E+02 -0.37343473107E+02 -0.38185669941E+02  0.55278423319E+02  0.00000000000E+00 0. -1.
</event>
<event>
 6    1  0.3624778E-005  0.2376605E+03  0.7818608E-02  0.1184458E+00
          2   -1    0    0  502    0  0.00000000000E+00  0.00000000000E+00  0.32548110687E+03  0.32548110687E+03  0.00000000000E+00 0. -1.
          1   -1    0    0  501    0 -0.00000000000E+00 -0.00000000000E+00 -0.30443054460E+03  0.30443054460E+03  0.00000000000E+00 0.  1.
          2    1    1    2  501    0  0.23907302589E+01  0.65580088698E+02 -0.88364472039E+02  0.11006699571E+03  0.00000000000E+00 0. -1.
          1    1    1    2  502    0  0.66348797583E+02  0.16590020087E+02 -0.17671782326E+03  0.18949031839E+03  0.00000000000E+00 0.  1.
         22    1    1    2    0    0  0.18281682740E+02 -0.50433072626E+02  0.18759852090E+03  0.19511770751E+03  0.00000000000E+00 0. -1.
         22    1    1    2    0    0 -0.87021210582E+02 -0.31737036159E+02  0.98534336665E+02  0.13523662987E+03  0.00000000000E+00 0. -1.
</event>
<event>
 6    1  0.3624778E-005  0.5183497E+03  0.7818608E-02  0.1100935E+00
          2   -1    0    0  502    0  0.00000000000E+00  0.00000000000E+00  0.98466091969E+03  0.98466091969E+03  0.00000000000E+00 0. -1.
          1   -1    0    0  501    0 -0.00000000000E+00 -0.00000000000E+00 -0.11236865529E+03  0.11236865529E+03  0.00000000000E+00 0. -1.
          2    1    1    2  501    0 -0.23814373051E+03  0.88398078800E+02  0.62727456264E+03  0.67675699749E+03  0.00000000000E+00 0. -1.
          1    1    1    2  502    0  0.87228948788E+02  0.50473228893E+02  0.84845241777E+02  0.13173895170E+03  0.00000000000E+00 0. -1.
         22    1    1    2    0    0  0.12637962379E+01 -0.38478967614E+02  0.84933448956E+02  0.93251910871E+02  0.00000000000E+00 0. -1.
         22    1    1    2    0    0  0.14965098548E+03 -0.10039234008E+03  0.75239011024E+02  0.19528171492E+03  0.00000000000E+00 0. -1.
</event>
<event>
 6    1  0.3624778E-005  0.1395516E+03  0.7818608E-02  0.1326317E+00
          2   -1    0    0  502    0  0.00000000000E+00  0.00000000000E+00  0.46550432453E+02  0.46550432453E+02  0.00000000000E+00 0.  1.
          1   -1    0    0  501    0 -0.00000000000E+00 -0.00000000000E+00 -0.14621396028E+04  0.14621396028E+04  0.00000000000E+00 0.  1.
          2    1    1    2  501    0  0.31922127116E+02 -0.13830760090E+02 -0.54375917978E+02  0.64552711641E+02  0.00000000000E+00 0.  1.
          1    1    1    2  502    0 -0.13816956665E+03 -0.52471699188E+01 -0.12211502117E+04  0.12289532951E+04  0.00000000000E+00 0.  1.
         22    1    1    2    0    0  0.98850098945E+02  0.50974254640E+01 -0.16097042907E+03  0.18896773492E+03  0.00000000000E+00 0.  1.
         22    1    1    2    0    0  0.73973405897E+01  0.13980504545E+02  0.20907388463E+02  0.26216293550E+02  0.00000000000E+00 0. -1.
</event>
<event>
 6    1  0.3624778E-005  0.9922750E+02  0.7818608E-02  0.1283744E+00
          2   -1    0    0  502    0  0.00000000000E+00  0.00000000000E+00  0.23434717893E+04  0.23434717893E+04  0.00000000000E+00 0. -1.
          1   -1    0    0  501    0 -0.00000000000E+00 -0.00000000000E+00 -0.25571053326E+02  0.25571053326E+02  0.00000000000E+00 0. -1.
          2    1    1    2  501    0 -0.64899752644E+02  0.12371982345E+02  0.54161608681E+02  0.85431397597E+02  0.00000000000E+00 0. -1.
          1    1    1    2  502    0  0.47891346955E+00 -0.34950538845E+02  0.17590896611E+04  0.17594369001E+04  0.00000000000E+00 0. -1.
         22    1    1    2    0    0  0.93159797585E+02  0.29259192069E+02  0.46267931395E+03  0.47287101387E+03  0.00000000000E+00 0. -1.
         22    1    1    2    0    0 -0.28738958411E+02 -0.66806355691E+01  0.41970152201E+02  0.51303531047E+02  0.00000000000E+00 0.  1.
</event>
<event>
 6    1  0.3624778E-005  0.5804102E+03  0.7818608E-02  0.1099513E+00
          2   -1    0    0  502    0  0.00000000000E+00  0.00000000000E+00  0.10035059275E+04  0.10035059275E+04  0.00000000000E+00 0. -1.
          1   -1    0    0  501    0 -0.00000000000E+00 -0.00000000000E+00 -0.32338919422E+03  0.32338919422E+03  0.00000000000E+00 0. -1.
          2    1    1    2  501    0  0.41446137938E+03  0.10553481919E+03  0.10508147254E+03  0.44040657231E+03  0.00000000000E+00 0. -1.
          1    1    1    2  502    0 -0.47605011574E+03 -0.18541104433E+03  0.38565159894E+03  0.64010008891E+03  0.00000000000E+00 0. -1.
         22    1    1    2    0    0 -0.28155215851E+02  0.41127162537E+01  0.67397669440E+01  0.29241324749E+02  0.00000000000E+00 0. -1.
         22    1    1    2    0    0  0.89743952209E+02  0.75763508887E+02  0.18264389484E+03  0.21714713574E+03  0.00000000000E+00 0.  1.
</event>
<event>
 6    1  0.3624778E-005  0.1556222E+03  0.7818608E-02  0.1253204E+00
          2   -1    0    0  502    0  0.00000000000E+00  0.00000000000E+00  0.23599027776E+03  0.23599027776E+03  0.00000000000E+00 0.  1.
          1   -1    0    0  501    0 -0.00000000000E+00 -0.00000000000E+00 -0.30812709560E+03  0.30812709560E+03  0.00000000000E+00 0.  1.
          2    1    1    2  501    0 -0.65314688482E+02 -0.21279137501E+02 -0.25713462772E+03  0.26615226281E+03  0.00000000000E+00 0.  1.
          1    1    1    2  502    0  0.61640724031E+02  0.39951238628E+02  0.39968117715E+02  0.83624941020E+02  0.00000000000E+00 0.  1.
         22    1    1    2    0    0 -0.39514638936E+02 -0.62801065843E+01 -0.25309031362E+01  0.40090546263E+02  0.00000000000E+00 0.  1.
         22    1    1    2    0    0  0.43188603387E+02 -0.12391994543E+02  0.14756059530E+03  0.15424962327E+03  0.00000000000E+00 0.  1.
</event>
<event>
 6    1  0.3624778E-005  0.1143765E+03  0.7818608E-02  0.1263305E+00
          2   -1    0    0  502    0  0.00000000000E+00  0.00000000000E+00  0.11535822194E+03  0.11535822194E+03  0.00000000000E+00 0.  1.
          1   -1    0    0  501    0 -0.00000000000E+00 -0.00000000000E+00 -0.41836896103E+03  0.41836896103E+03  0.00000000000E+00 0.  1.
          2    1    1    2  501    0 -0.94745858709E+02  0.54049208826E+02 -0.24941136958E+02  0.11189349860E+03  0.00000000000E+00 0.  1.
          1    1    1    2  502    0  0.55667324098E+02 -0.14460519830E+02 -0.27531097283E+03  0.28125449217E+03  0.00000000000E+00 0.  1.
         22    1    1    2    0    0 -0.73262432384E+01  0.30348194988E+02 -0.38317132587E+02  0.49425594875E+02  0.00000000000E+00 0. -1.
         22    1    1    2    0    0  0.46404777850E+02 -0.69936883984E+02  0.35558503279E+02  0.91153597319E+02  0.00000000000E+00 0.  1.
</event>
<event>
 6    1  0.3624778E-005  0.1029611E+03  0.7818608E-02  0.1285801E+00
          2   -1    0    0  502    0  0.00000000000E+00  0.00000000000E+00  0.13599180103E+03  0.13599180103E+03  0.00000000000E+00 0.  1.
          1   -1    0    0  501    0 -0.00000000000E+00 -0.00000000000E+00 -0.37342652504E+03  0.37342652504E+03  0.00000000000E+00 0.  1.
          2    1    1    2  501    0 -0.47182367208E+02  0.19759968233E+02 -0.46668796734E+02  0.69243113077E+02  0.00000000000E+00 0.  1.
          1    1    1    2  502    0  0.84686038380E+01 -0.23462959015E+02 -0.27988408823E+03  0.28099347064E+03  0.00000000000E+00 0.  1.
         22    1    1    2    0    0 -0.40926339447E+02 -0.15444598175E+02  0.91128356271E+01  0.44682710823E+02  0.00000000000E+00 0. -1.
         22    1    1    2    0    0  0.79640102818E+02  0.19147588958E+02  0.80005325330E+02  0.11449903153E+03  0.00000000000E+00 0.  1.
</event>
<event>
 6    1  0.3624778E-005  0.6878186E+02  0.7818608E-02  0.1438161E+00
          2   -1    0    0  502    0  0.00000000000E+00  0.00000000000E+00  0.38514991205E+02  0.38514991205E+02  0.00000000000E+00 0. -1.
          1   -1    0    0  501    0 -0.00000000000E+00 -0.00000000000E+00 -0.35762964388E+03  0.35762964388E+03  0.00000000000E+00 0. -1.
          2    1    1    2  501    0 -0.28559842774E+02  0.18505966814E+02 -0.11614134757E+03  0.12102457619E+03  0.00000000000E+00 0. -1.
          1    1    1    2  502    0  0.18007364308E+02 -0.43345954297E+02 -0.10541717967E+03  0.11539462159E+03  0.00000000000E+00 0. -1.
         22    1    1    2    0    0  0.28377546977E+02  0.13039658150E+02 -0.12276378810E+03  0.12667385494E+03  0.00000000000E+00 0. -1.
         22    1    1    2    0    0 -0.17825068511E+02  0.11800329332E+02  0.25207662660E+02  0.33051582361E+02  0.00000000000E+00 0.  1.
</event>
<event>
 6    1  0.3624778E-005  0.7112264E+02  0.7818608E-02  0.1404681E+00
          2   -1    0    0  502    0  0.00000000000E+00  0.00000000000E+00  0.15925677014E+03  0.15925677014E+03  0.00000000000E+00 0. -1.
          1   -1    0    0  501    0 -0.00000000000E+00 -0.00000000000E+00 -0.19675217111E+03  0.19675217111E+03  0.00000000000E+00 0. -1.
          2    1    1    2  501    0  0.33495320857E+02  0.11876233324E+01 -0.58812125347E+02  0.67692045739E+02  0.00000000000E+00 0. -1.
          1    1    1    2  502    0 -0.66147705601E+02  0.27233144280E+02 -0.90254165139E+02  0.11516500088E+03  0.00000000000E+00 0. -1.
         22    1    1    2    0    0  0.10053136327E+01 -0.32311173022E+02  0.13159029457E+03  0.13550287149E+03  0.00000000000E+00 0. -1.
         22    1    1    2    0    0  0.31647071111E+02  0.38904054094E+01 -0.20019405050E+02  0.37649023131E+02  0.00000000000E+00 0. -1.
</event>
<event>
 6    1  0.5258558E-005  0.6713433E+02  0.7818608E-02  0.1444517E+00
          2   -1    0    0  502    0  0.00000000000E+00  0.00000000000E+00  0.94080021507E+02  0.94080021507E+02  0.00000000000E+00 0.  1.
          1   -1    0    0  501    0 -0.00000000000E+00 -0.00000000000E+00 -0.14925059093E+04  0.14925059093E+04  0.00000000000E+00 0. -1.
          2    1    1    2  501    0 -0.25465686331E+02  0.79807605282E+01 -0.68699064468E+03  0.68750879238E+03  0.00000000000E+00 0.  1.
          1    1    1    2  502    0  0.20416740568E+02 -0.15750079996E+02 -0.76571686678E+03  0.76615091750E+03  0.00000000000E+00 0. -1.
         22    1    1    2    0    0  0.71519465134E+00  0.20898037255E+02  0.91167328572E+02  0.93534599285E+02  0.00000000000E+00 0.  1.
         22    1    1    2    0    0  0.43337511117E+01 -0.13128717788E+02 -0.36885704912E+02  0.39391621651E+02  0.00000000000E+00 0. -1.
</event>
<event>
 6    1  0.3624778E-005  0.1558206E+03  0.7818608E-02  0.1225864E+00
          2   -1    0    0  502    0  0.00000000000E+00  0.00000000000E+00  0.14599883990E+03  0.14599883990E+03  0.00000000000E+00 0. -1.
          1   -1    0    0  501    0 -0.00000000000E+00 -0.00000000000E+00 -0.11522593169E+04  0.11522593169E+04  0.00000000000E+00 0. -1.
          2    1    1    2  501    0  0.11795522938E+03 -0.56561212369E+01 -0.34688940380E+03  0.36643919866E+03  0.00000000000E+00 0. -1.
          1    1    1    2  502    0 -0.96403522634E+02 -0.39188163102E+02 -0.76006261333E+03  0.76715352277E+03  0.00000000000E+00 0. -1.
         22    1    1    2    0    0  0.27431087152E+02 -0.15893829860E+02 -0.62205472887E+01  0.32307484868E+02  0.00000000000E+00 0.  1.
         22    1    1    2    0    0 -0.48982793896E+02  0.60738114198E+02  0.10691208745E+03  0.13235795048E+03  0.00000000000E+00 0. -1.
</event>
<event>
 6    1  0.3624778E-005  0.4565537E+02  0.7818608E-02  0.1473517E+00
          2   -1    0    0  502    0  0.00000000000E+00  0.00000000000E+00  0.60330677871E+02  0.60330677871E+02  0.00000000000E+00 0.  1.
          1   -1    0    0  501    0 -0.00000000000E+00 -0.00000000000E+00 -0.26975106874E+03  0.26975106874E+03  0.00000000000E+00 0.  1.
          2    1    1    2  501    0 -0.18140745443E+02  0.12844791936E+02  0.14802738820E+02  0.26705737242E+02  0.00000000000E+00 0.  1.
          1    1    1    2  502    0  0.59833571980E+01  0.22934127204E+02 -0.15182942824E+03  0.15366831174E+03  0.00000000000E+00 0.  1.
         22    1    1    2    0    0  0.33658436097E+02 -0.40230168571E+02 -0.10090346891E+03  0.11372276299E+03  0.00000000000E+00 0.  1.
         22    1    1    2    0    0 -0.21501047852E+02  0.44512494310E+01  0.28509767461E+02  0.35984934638E+02  0.00000000000E+00 0. -1.
</event>
<event>
 6    1  0.3624778E-005  0.1527283E+03  0.7818608E-02  0.1331098E+00
          2   -1    0    0  502    0  0.00000000000E+00  0.00000000000E+00  0.15312965218E+02  0.15312965218E+02  0.00000000000E+00 0. -1.
          1   -1    0    0  501    0 -0.00000000000E+00 -0.00000000000E+00 -0.23038408162E+04  0.23038408162E+04  0.00000000000E+00 0. -1.
          2    1    1    2  501    0 -0.42417207522E+02  0.29231549032E+01 -0.13654847647E+04  0.13661465540E+04  0.00000000000E+00 0. -1.
          1    1    1    2  502    0 -0.16927856455E+02  0.13023671616E+02 -0.61819808813E+03  0.61856692808E+03  0.00000000000E+00 0. -1.
         22    1    1    2    0    0  0.57571278423E+02 -0.26895033579E+02 -0.31381016247E+03  0.32017903273E+03  0.00000000000E+00 0. -1.
         22    1    1    2    0    0  0.17737855542E+01  0.10948207060E+02  0.89651643512E+01  0.14261266594E+02  0.00000000000E+00 0. -1.
</event>
<event>
 6    1  0.3624778E-005  0.9659952E+02  0.7818608E-02  0.1316515E+00
          2   -1    0    0  502    0  0.00000000000E+00  0.00000000000E+00  0.19680621570E+03  0.19680621570E+03  0.00000000000E+00 0. -1.
          1   -1    0    0  501    0 -0.00000000000E+00 -0.00000000000E+00 -0.46866833579E+03  0.46866833579E+03  0.00000000000E+00 0.  1.
          2    1    1    2  501    0 -0.31618883107E+02  0.35036991243E+02 -0.39199306991E+01  0.47357263234E+02  0.00000000000E+00 0. -1.
          1    1    1    2  502    0  0.20830026279E+02 -0.17925891873E+02 -0.42123563766E+03  0.42213112895E+03  0.00000000000E+00 0.  1.
         22    1    1    2    0    0  0.40843027794E+02  0.30356687027E+02  0.26660390548E+02  0.57449610885E+02  0.00000000000E+00 0. -1.
         22    1    1    2    0    0 -0.30054170966E+02 -0.47467786397E+02  0.12663305773E+03  0.13853654842E+03  0.00000000000E+00 0. -1.
</event>
<event>
 6    1  0.3624778E-005  0.2370171E+03  0.7818608E-02  0.1201020E+00
          2   -1    0    0  502    0  0.00000000000E+00  0.00000000000E+00  0.37521659612E+03  0.37521659612E+03  0.00000000000E+00 0.  1.
          1   -1    0    0  501    0 -0.00000000000E+00 -0.00000000000E+00 -0.25153418593E+03  0.25153418593E+03  0.00000000000E+00 0.  1.
          2    1    1    2  501    0 -0.67965764082E+02  0.27850972661E+02 -0.14307308880E+02  0.74831282582E+02  0.00000000000E+00 0.  1.
          1    1    1    2  502    0  0.60718289486E+01  0.19351576386E+02 -0.18991512011E+03  0.19099503518E+03  0.00000000000E+00 0.  1.
         22    1    1    2    0    0 -0.10209832268E+02  0.35389058598E+02  0.12474512563E+03  0.13006910667E+03  0.00000000000E+00 0. -1.
         22    1    1    2    0    0  0.72103767402E+02 -0.82591607644E+02  0.20315971355E+03  0.23085535761E+03  0.00000000000E+00 0.  1.
</event>
<event>
 6    1  0.3624778E-005  0.1503141E+03  0.7818608E-02  0.1222612E+00
          2   -1    0    0  502    0  0.00000000000E+00  0.00000000000E+00  0.72611207902E+02  0.72611207902E+02  0.00000000000E+00 0. -1.
          1   -1    0    0  501    0 -0.00000000000E+00 -0.00000000000E+00 -0.91794229057E+03  0.91794229057E+03  0.00000000000E+00 0.  1.
          2    1    1    2  501    0  0.10620023245E+02 -0.59502507349E+02  0.13024038399E+02  0.61830080469E+02  0.00000000000E+00 0. -1.
          1    1    1    2  502    0  0.41671369520E+01  0.11960650188E+03 -0.73059905864E+03  0.74033645379E+03  0.00000000000E+00 0.  1.
         22    1    1    2    0    0 -0.23326629373E+02  0.32521439437E+02 -0.16297453049E+02  0.43213222939E+02  0.00000000000E+00 0.  1.
         22    1    1    2    0    0  0.85394691755E+01 -0.92625433967E+02 -0.11145860938E+03  0.14517374127E+03  0.00000000000E+00 0. -1.
</event>
<event>
 6    1  0.3624778E-005  0.4565030E+02  0.7818608E-02  0.1528347E+00
          2   -1    0    0  502    0  0.00000000000E+00  0.00000000000E+00  0.10844674992E+03  0.10844674992E+03  0.00000000000E+00 0. -1.
          1   -1    0    0  501    0 -0.00000000000E+00 -0.00000000000E+00 -0.13065662616E+03  0.13065662616E+03  0.00000000000E+00 0. -1.
          2    1    1    2  501    0 -0.18992582977E+02  0.19798192919E+02 -0.76265507782E+02  0.81050072968E+02  0.00000000000E+00 0. -1.
          1    1    1    2  502    0  0.12024675652E+02 -0.21968252795E+02  0.17614593194E+02  0.30618145744E+02  0.00000000000E+00 0. -1.
         22    1    1    2    0    0  0.86757384394E+01 -0.18622279194E+02  0.78146990227E+02  0.80802288342E+02  0.00000000000E+00 0. -1.
         22    1    1    2    0    0 -0.17078311142E+01  0.20792339070E+02 -0.41705951885E+02  0.46632869028E+02  0.00000000000E+00 0. -1.
</event>
<event>
 6    1  0.3624778E-005  0.5116109E+02  0.7818608E-02  0.1466292E+00
          2   -1    0    0  502    0  0.00000000000E+00  0.00000000000E+00  0.53486048710E+02  0.53486048710E+02  0.00000000000E+00 0. -1.
          1   -1    0    0  501    0 -0.00000000000E+00 -0.00000000000E+00 -0.18724781301E+04  0.18724781301E+04  0.00000000000E+00 0. -1.
          2    1    1    2  501    0 -0.19687854874E+02 -0.47545163713E+02 -0.22268095719E+03  0.22854969463E+03  0.00000000000E+00 0. -1.
          1    1    1    2  502    0  0.11098099401E+02  0.44317153341E+02 -0.15673971427E+04  0.15680628115E+04  0.00000000000E+00 0. -1.
         22    1    1    2    0    0 -0.15548510401E+02 -0.21229224186E+02 -0.70590446610E+02  0.75335564562E+02  0.00000000000E+00 0.  1.
         22    1    1    2    0    0  0.24138265875E+02  0.24457234557E+02  0.41676465054E+02  0.54016108162E+02  0.00000000000E+00 0. -1.
</event>
<event>
 6    1  0.3624778E-005  0.1487820E+03  0.7818608E-02  0.1327520E+00
          2   -1    0    0  502    0  0.00000000000E+00  0.00000000000E+00  0.38745461691E+02  0.38745461691E+02  0.00000000000E+00 0.  1.
          1   -1    0    0  501    0 -0.00000000000E+00 -0.00000000000E+00 -0.14299248274E+04  0.14299248274E+04  0.00000000000E+00 0.  1.
          2    1    1    2  501    0  0.29146183033E+02 -0.54356012088E+02 -0.30587753608E+03  0.31203388136E+03  0.00000000000E+00 0.  1.
          1    1    1    2  502    0 -0.75130031379E+02  0.12330493719E+03 -0.91925247429E+03  0.93052336921E+03  0.00000000000E+00 0.  1.
         22    1    1    2    0    0  0.48488900143E+02 -0.56419600930E+02 -0.18717885760E+03  0.20142062838E+03  0.00000000000E+00 0. -1.
         22    1    1    2    0    0 -0.25050517964E+01 -0.12529324168E+02  0.21129502309E+02  0.24692410098E+02  0.00000000000E+00 0.  1.
</event>
<event>
 6    1  0.3624778E-005  0.3471746E+03  0.7818608E-02  0.1136128E+00
          2   -1    0    0  502    0  0.00000000000E+00  0.00000000000E+00  0.28333601770E+03  0.28333601770E+03  0.00000000000E+00 0. -1.
          1   -1    0    0  501    0 -0.00000000000E+00 -0.00000000000E+00 -0.15907812296E+04  0.15907812296E+04  0.00000000000E+00 0.  1.
          2    1    1    2  501    0  0.23438573443E+03  0.11148437251E+03 -0.57232824617E+02  0.26578381070E+03  0.00000000000E+00 0. -1.
          1    1    1    2  502    0 -0.33318587818E+03 -0.10797082180E+03 -0.13660631771E+04  0.14102478972E+04  0.00000000000E+00 0.  1.
         22    1    1    2    0    0  0.45847948655E+02 -0.11394591970E+01 -0.21654763626E+02  0.50717467907E+02  0.00000000000E+00 0.  1.
         22    1    1    2    0    0  0.52952195096E+02 -0.23740915099E+01  0.13750555342E+03  0.14736807149E+03  0.00000000000E+00 0. -1.
</event>
<event>
 6    1  0.3624778E-005  0.7810358E+02  0.7818608E-02  0.1416523E+00
          2   -1    0    0  502    0  0.00000000000E+00  0.00000000000E+00  0.39387097175E+02  0.39387097175E+02  0.00000000000E+00 0.  1.
          1   -1    0    0  501    0 -0.00000000000E+00 -0.00000000000E+00 -0.12333139352E+04  0.12333139352E+04  0.00000000000E+00 0. -1.
          2    1    1    2  501    0 -0.16690611981E+02 -0.12947544568E+02 -0.61542938985E+02  0.65067263486E+02  0.00000000000E+00 0.  1.
          1    1    1    2  502    0 -0.24623772165E+02  0.27001083042E+02 -0.10544855970E+04  0.10551186013E+04  0.00000000000E+00 0. -1.
         22    1    1    2    0    0 -0.20275602651E+02  0.87869298566E+00  0.24671579374E+02  0.31946189022E+02  0.00000000000E+00 0.  1.
         22    1    1    2    0    0  0.61589986798E+02 -0.14932231459E+02 -0.10256988151E+03  0.12056897861E+03  0.00000000000E+00 0.  1.
</event>
<event>
 6    1  0.3624778E-005  0.5201655E+02  0.7818608E-02  0.1514705E+00
          2   -1    0    0  502    0  0.00000000000E+00  0.00000000000E+00  0.77053125812E+02  0.77053125812E+02  0.00000000000E+00 0. -1.
          1   -1    0    0  501    0 -0.00000000000E+00 -0.00000000000E+00 -0.17128242340E+04  0.17128242340E+04  0.00000000000E+00 0. -1.
          2    1    1    2  501    0  0.13748151959E+02  0.34576614782E+02 -0.18660920310E+03  0.19028281229E+03  0.00000000000E+00 0. -1.
          1    1    1    2  502    0 -0.43759021638E+01 -0.50943858552E+02 -0.14744047661E+04  0.14752911033E+04  0.00000000000E+00 0. -1.
         22    1    1    2    0    0 -0.16328257027E+02  0.33054665349E+01  0.72704224057E+02  0.74588486258E+02  0.00000000000E+00 0. -1.
         22    1    1    2    0    0  0.69560072320E+01  0.13061777236E+02 -0.47461363110E+02  0.49714958005E+02  0.00000000000E+00 0. -1.
</event>
<event>
 6    1  0.3624778E-005  0.8327423E+02  0.7818608E-02  0.1349655E+00
          2   -1    0    0  502    0  0.00000000000E+00  0.00000000000E+00  0.92496585989E+02  0.92496585989E+02  0.00000000000E+00 0. -1.
          1   -1    0    0  501    0 -0.00000000000E+00 -0.00000000000E+00 -0.49333074459E+03  0.49333074459E+03  0.00000000000E+00 0. -1.
          2    1    1    2  501    0  0.12111355734E+02 -0.67480225692E+02 -0.96341191926E+02  0.11824504666E+03  0.00000000000E+00 0. -1.
          1    1    1    2  502    0 -0.49697528212E+01  0.65879216385E+02 -0.33657291025E+03  0.34299576310E+03  0.00000000000E+00 0. -1.
         22    1    1    2    0    0  0.27764462091E+02 -0.33662682974E+02 -0.23924496152E+02  0.49763672456E+02  0.00000000000E+00 0. -1.
         22    1    1    2    0    0 -0.34906065004E+02  0.35263692281E+02  0.56004439727E+02  0.74822848359E+02  0.00000000000E+00 0. -1.
</event>
<event>
 6    1  0.3624778E-005  0.2248289E+03  0.7818608E-02  0.1209788E+00
          2   -1    0    0  502    0  0.00000000000E+00  0.00000000000E+00  0.34483989751E+03  0.34483989751E+03  0.00000000000E+00 0.  1.
          1   -1    0    0  501    0 -0.00000000000E+00 -0.00000000000E+00 -0.83213942418E+03  0.83213942418E+03  0.00000000000E+00 0. -1.
          2    1    1    2  501    0 -0.78569376117E+02 -0.75650496366E+02  0.23220796919E+02  0.11151389991E+03  0.00000000000E+00 0.  1.
          1    1    1    2  502    0  0.18753276691E+03  0.10235258988E+02 -0.74713677337E+03  0.77038085212E+03  0.00000000000E+00 0. -1.
         22    1    1    2    0    0 -0.10854316194E+03  0.28966743183E+02  0.89831851203E+02  0.14384175925E+03  0.00000000000E+00 0.  1.
         22    1    1    2    0    0 -0.42022885064E+00  0.36448494194E+02  0.14678459857E+03  0.15124281041E+03  0.00000000000E+00 0.  1.
</event>
<event>
 6    1  0.3624778E-005  0.1125630E+03  0.7818608E-02  0.1256495E+00
          2   -1    0    0  502    0  0.00000000000E+00  0.00000000000E+00  0.36832080845E+02  0.36832080845E+02  0.00000000000E+00 0. -1.
          1   -1    0    0  501    0 -0.00000000000E+00 -0.00000000000E+00 -0.79793520270E+03  0.79793520270E+03  0.00000000000E+00 0. -1.
          2    1    1    2  501    0  0.58838099251E+02 -0.19638220966E+02 -0.14671243046E+03  0.15928627969E+03  0.00000000000E+00 0. -1.
          1    1    1    2  502    0  0.41631215316E+02  0.64510630274E+01 -0.43219050708E+03  0.43423888439E+03  0.00000000000E+00 0. -1.
         22    1    1    2    0    0 -0.12756143415E+03  0.20826160066E+02 -0.14025964284E+03  0.19073126601E+03  0.00000000000E+00 0. -1.
         22    1    1    2    0    0  0.27092119586E+02 -0.76390021281E+01 -0.41940541477E+02  0.50510853453E+02  0.00000000000E+00 0. -1.
</event>
<event>
 6    1  0.3624778E-005  0.1992979E+03  0.7818608E-02  0.1199580E+00
          2   -1    0    0  502    0  0.00000000000E+00  0.00000000000E+00  0.48249344068E+02  0.48249344068E+02  0.00000000000E+00 0.  1.
          1   -1    0    0  501    0 -0.00000000000E+00 -0.00000000000E+00 -0.23950000218E+04  0.23950000218E+04  0.00000000000E+00 0.  1.
          2    1    1    2  501    0 -0.13605837281E+03  0.56000736956E+02 -0.11978251442E+04  0.12068276759E+04  0.00000000000E+00 0.  1.
          1    1    1    2  502    0  0.19871159021E+03 -0.13174272648E+03 -0.95601403043E+03  0.98529450848E+03  0.00000000000E+00 0.  1.
         22    1    1    2    0    0 -0.40171217601E+02  0.51361335099E+02 -0.10888986426E+02  0.66108119714E+02  0.00000000000E+00 0.  1.
         22    1    1    2    0    0 -0.22481999794E+02  0.24380654427E+02 -0.18202251670E+03  0.18501906175E+03  0.00000000000E+00 0.  1.
</event>
<event>
 6    1  0.3624778E-005  0.4835047E+02  0.7818608E-02  0.1455169E+00
          2   -1    0    0  502    0  0.00000000000E+00  0.00000000000E+00  0.67990561993E+02  0.67990561993E+02  0.00000000000E+00 0. -1.
          1   -1    0    0  501    0 -0.00000000000E+00 -0.00000000000E+00 -0.71026545008E+03  0.71026545008E+03  0.00000000000E+00 0. -1.
          2    1    1    2  501    0  0.21843985763E+02 -0.28059723621E+02 -0.53756424830E+03  0.53873911019E+03  0.00000000000E+00 0. -1.
          1    1    1    2  502    0 -0.50812453844E+02 -0.46736423749E+01 -0.92345612135E+02  0.10550573671E+03  0.00000000000E+00 0. -1.
         22    1    1    2    0    0  0.23017425310E+02  0.41941342815E+02  0.50869901148E+02  0.69832835742E+02  0.00000000000E+00 0. -1.
         22    1    1    2    0    0  0.59510427712E+01 -0.92079768189E+01 -0.63234928797E+02  0.64178329420E+02  0.00000000000E+00 0. -1.
</event>
<event>
 6    1  0.3624778E-005  0.1223726E+03  0.7818608E-02  0.1293193E+00
          2   -1    0    0  502    0  0.00000000000E+00  0.00000000000E+00  0.35273943124E+03  0.35273943124E+03  0.00000000000E+00 0. -1.
          1   -1    0    0  501    0 -0.00000000000E+00 -0.00000000000E+00 -0.75698654642E+03  0.75698654642E+03  0.00000000000E+00 0.  1.
          2    1    1    2  501    0  0.33612058348E+02  0.39311507680E+02  0.13395533832E+03  0.14359386396E+03  0.00000000000E+00 0. -1.
          1    1    1    2  502    0 -0.58764795518E+02 -0.74212229461E+02 -0.72974489585E+03  0.73585893296E+03  0.00000000000E+00 0.  1.
         22    1    1    2    0    0 -0.30120973053E+02  0.30413590322E+02  0.16175715260E+03  0.16732494109E+03  0.00000000000E+00 0. -1.
         22    1    1    2    0    0  0.55273710223E+02  0.44871314595E+01  0.29785289762E+02  0.62948239663E+02  0.00000000000E+00 0. -1.
</event>
<event>
 6    1  0.3624778E-005  0.8444663E+02  0.7818608E-02  0.1318368E+00
          2   -1    0    0  502    0  0.00000000000E+00  0.00000000000E+00  0.18578292343E+03  0.18578292343E+03  0.00000000000E+00 0. -1.
          1   -1    0    0  501    0 -0.00000000000E+00 -0.00000000000E+00 -0.28118644477E+03  0.28118644477E+03  0.00000000000E+00 0.  1.
          2    1    1    2  501    0 -0.32068066710E+02  0.59941748103E+01 -0.10346207281E+01  0.32639875524E+02  0.00000000000E+00 0. -1.
          1    1    1    2  502    0 -0.35649521288E+02 -0.81940577041E+01 -0.23114347283E+03  0.23401994783E+03  0.00000000000E+00 0.  1.
         22    1    1    2    0    0 -0.23681762080E+02 -0.99620610236E+01 -0.95060423304E+01  0.27394038692E+02  0.00000000000E+00 0. -1.
         22    1    1    2    0    0  0.91399350079E+02  0.12161943917E+02  0.14628061455E+03  0.17291550615E+03  0.00000000000E+00 0. -1.
</event>
<event>
 6    1  0.3624778E-005  0.1047713E+03  0.7818608E-02  0.1353338E+00
          2   -1    0    0  502    0  0.00000000000E+00  0.00000000000E+00  0.10170134192E+03  0.10170134192E+03  0.00000000000E+00 0. -1.
          1   -1    0    0  501    0 -0.00000000000E+00 -0.00000000000E+00 -0.36562205201E+03  0.36562205201E+03  0.00000000000E+00 0. -1.
          2    1    1    2  501    0  0.65185381436E+02  0.62372449911E+02 -0.12179352351E+03  0.15156885838E+03  0.00000000000E+00 0. -1.
          1    1    1    2  502    0 -0.42737569057E+02 -0.30667423922E+02 -0.17278329901E+03  0.18061300927E+03  0.00000000000E+00 0. -1.
         22    1    1    2    0    0 -0.95964847291E-01 -0.24780419113E+02 -0.47490338023E+02  0.53566879564E+02  0.00000000000E+00 0. -1.
         22    1    1    2    0    0 -0.22351847531E+02 -0.69246068756E+01  0.78146450455E+02  0.81574646718E+02  0.00000000000E+00 0. -1.
</event>
<event>
 6    1  0.3624778E-005  0.1107263E+03  0.7818608E-02  0.1346191E+00
          2   -1    0    0  502    0  0.00000000000E+00  0.00000000000E+00  0.13849129701E+03  0.13849129701E+03  0.00000000000E+00 0. -1.
          1   -1    0    0  501    0 -0.00000000000E+00 -0.00000000000E+00 -0.29805447470E+03  0.29805447470E+03  0.00000000000E+00 0. -1.
          2    1    1    2  501    0  0.90912649595E+02 -0.15042775100E+02 -0.18353435279E+03  0.20536857986E+03  0.00000000000E+00 0. -1.
          1    1    1    2  502    0 -0.87598976846E+02  0.28106407417E+01 -0.35787152348E+02  0.94668900485E+02  0.00000000000E+00 0. -1.
         22    1    1    2    0    0 -0.15617661079E+02 -0.64812448877E+01 -0.35143425268E+02  0.38999720671E+02  0.00000000000E+00 0. -1.
         22    1    1    2    0    0  0.12303988330E+02  0.18713379246E+02  0.94901752716E+02  0.97508570701E+02  0.00000000000E+00 0. -1.
</event>
<event>
 6    1  0.3624778E-005  0.1650034E+03  0.7818608E-02  0.1184069E+00
          2   -1    0    0  502    0  0.00000000000E+00  0.00000000000E+00  0.13872803773E+04  0.13872803773E+04  0.00000000000E+00 0.  1.
          1   -1    0    0  501    0 -0.00000000000E+00 -0.00000000000E+00 -0.51854924603E+02  0.51854924603E+02  0.00000000000E+00 0.  1.
          2    1    1    2  501    0  0.12140324477E+03 -0.95940865074E+02  0.14213729769E+03  0.21011046815E+03  0.00000000000E+00 0.  1.
          1    1    1    2  502    0 -0.82323864330E+02 -0.49841596694E+02  0.42584676394E+03  0.43658546673E+03  0.00000000000E+00 0.  1.
         22    1    1    2    0    0  0.31273604047E+01 -0.14749508155E+02  0.12858935731E+02  0.19816170217E+02  0.00000000000E+00 0. -1.
         22    1    1    2    0    0 -0.42206740850E+02  0.16053196992E+03  0.75458245532E+03  0.77262319679E+03  0.00000000000E+00 0.  1.
</event>
<event>
 6    1  0.3624778E-005  0.1924106E+03  0.7818608E-02  0.1236664E+00
          2   -1    0    0  502    0  0.00000000000E+00  0.00000000000E+00  0.48029568576E+03  0.48029568576E+03  0.00000000000E+00 0.  1.
          1   -1    0    0  501    0 -0.00000000000E+00 -0.00000000000E+00 -0.44476547789E+03  0.44476547789E+03  0.00000000000E+00 0. -1.
          2    1    1    2  501    0 -0.37878076619E+02  0.47354020120E+02  0.37630199428E+02  0.71366545516E+02  0.00000000000E+00 0.  1.
          1    1    1    2  502    0 -0.40351750292E+02 -0.13068384123E+02 -0.41298606583E+03  0.41515844805E+03  0.00000000000E+00 0. -1.
         22    1    1    2    0    0  0.10110371191E+03 -0.58311794985E+02  0.27665960381E+03  0.30027114809E+03  0.00000000000E+00 0.  1.
         22    1    1    2    0    0 -0.22873885002E+02  0.24026158988E+02  0.13422647047E+03  0.13826502199E+03  0.00000000000E+00 0.  1.
</event>
<event>
 6    1  0.3624778E-005  0.1805640E+03  0.7818608E-02  0.1198142E+00
          2   -1    0    0  502    0  0.00000000000E+00  0.00000000000E+00  0.69457565460E+02  0.69457565460E+02  0.00000000000E+00 0.  1.
          1   -1    0    0  501    0 -0.00000000000E+00 -0.00000000000E+00 -0.21020440032E+04  0.21020440032E+04  0.00000000000E+00 0. -1.
          2    1    1    2  501    0 -0.44440581963E+02  0.53216802378E+01 -0.40456348071E+02  0.60332426646E+02  0.00000000000E+00 0.  1.
          1    1    1    2  502    0  0.18332425103E+03  0.21100978774E+02 -0.18834255418E+04  0.18924441349E+04  0.00000000000E+00 0. -1.
         22    1    1    2    0    0 -0.86893743622E+02  0.47610760856E+02 -0.62450496217E+02  0.11712118386E+03  0.00000000000E+00 0.  1.
         22    1    1    2    0    0 -0.51989925448E+02 -0.74033419868E+02 -0.46254051696E+02  0.10160382327E+03  0.00000000000E+00 0. -1.
</event>
<event>
 6    1  0.3624778E-005  0.1058049E+03  0.7818608E-02  0.1271939E+00
          2   -1    0    0  502    0  0.00000000000E+00  0.00000000000E+00  0.75831902496E+03  0.75831902496E+03  0.00000000000E+00 0.  1.
          1   -1    0    0  501    0 -0.00000000000E+00 -0.00000000000E+00 -0.14432782902E+03  0.14432782902E+03  0.00000000000E+00 0. -1.
          2    1    1    2  501    0 -0.74678941728E+02  0.13093145063E+02  0.13822685885E+03  0.15765481056E+03  0.00000000000E+00 0.  1.
          1    1    1    2  502    0  0.16022323674E+02 -0.20520455889E+02 -0.12539706741E+03  0.12807118521E+03  0.00000000000E+00 0. -1.
         22    1    1    2    0    0  0.92389700472E+02 -0.16676698237E+02  0.47276461296E+03  0.48199621190E+03  0.00000000000E+00 0.  1.
         22    1    1    2    0    0 -0.33733082418E+02  0.24104009063E+02  0.12839679154E+03  0.13492464630E+03  0.00000000000E+00 0.  1.
</event>
<event>
 6    1  0.3624778E-005  0.2477136E+03  0.7818608E-02  0.1115475E+00
          2   -1    0    0  502    0  0.00000000000E+00  0.00000000000E+00  0.16658641172E+04  0.16658641172E+04  0.00000000000E+00 0.  1.
          1   -1    0    0  501    0 -0.00000000000E+00 -0.00000000000E+00 -0.76428161926E+02  0.76428161926E+02  0.00000000000E+00 0.  1.
          2    1    1    2  501    0  0.12485973492E+03 -0.13560480088E+03  0.22571209707E+03  0.29141819811E+03  0.00000000000E+00 0.  1.
          1    1    1    2  502    0  0.15837000978E+03  0.75323444232E+02  0.57792180797E+03  0.60394395218E+03  0.00000000000E+00 0.  1.
         22    1    1    2    0    0  0.99256724792E+01 -0.97837469948E+01  0.46581334620E+02  0.48621614683E+02  0.00000000000E+00 0. -1.
         22    1    1    2    0    0 -0.29315541719E+03  0.70065103642E+02  0.73922071565E+03  0.79830851418E+03  0.00000000000E+00 0.  1.
</event>
<event>
 6    1  0.3624778E-005  0.4040676E+03  0.7818608E-02  0.1118987E+00
          2   -1    0    0  502    0  0.00000000000E+00  0.00000000000E+00  0.27402574033E+03  0.27402574033E+03  0.00000000000E+00 0. -1.
          1   -1    0    0  501    0 -0.00000000000E+00 -0.00000000000E+00 -0.66768279389E+03  0.66768279389E+03  0.00000000000E+00 0. -1.
          2    1    1    2  501    0  0.92960379803E+02  0.96314687984E+02 -0.19528627221E+03  0.23675911692E+03  0.00000000000E+00 0. -1.
          1    1    1    2  502    0 -0.36632377070E+03 -0.30344936168E+02 -0.12764553788E+03  0.38911091410E+03  0.00000000000E+00 0. -1.
         22    1    1    2    0    0  0.22890644778E+03 -0.40342391610E+02 -0.10404144871E+03  0.25465720772E+03  0.00000000000E+00 0. -1.
         22    1    1    2    0    0  0.44456943119E+02 -0.25627360207E+02  0.33316205242E+02  0.61181295463E+02  0.00000000000E+00 0.  1.
</event>
<event>
 6    1  0.3624778E-005  0.7731597E+02  0.7818608E-02  0.1357509E+00
          2   -1    0    0  502    0  0.00000000000E+00  0.00000000000E+00  0.25483527480E+03  0.25483527480E+03  0.00000000000E+00 0. -1.
          1   -1    0    0  501    0 -0.00000000000E+00 -0.00000000000E+00 -0.73852818369E+03  0.73852818369E+03  0.00000000000E+00 0. -1.
          2    1    1    2  501    0  0.21258570946E+02  0.14442519273E+02  0.23759347795E+02  0.35000282988E+02  0.00000000000E+00 0. -1.
          1    1    1    2  502    0 -0.80720819276E+01 -0.22631795946E+02 -0.71610259610E+03  0.71650560698E+03  0.00000000000E+00 0. -1.
         22    1    1    2    0    0 -0.27515309311E+02 -0.28243618084E+02  0.11809584208E+02  0.41161395605E+02  0.00000000000E+00 0.  1.
         22    1    1    2    0    0  0.14328820293E+02  0.36432894757E+02  0.19684075521E+03  0.20069617291E+03  0.00000000000E+00 0. -1.
</event>
<event>
 6    1  0.3624778E-005  0.7697636E+02  0.7818608E-02  0.1344259E+00
          2   -1    0    0  502    0  0.00000000000E+00  0.00000000000E+00  0.18134062667E+03  0.18134062667E+03  0.00000000000E+00 0.  1.
          1   -1    0    0  501    0 -0.00000000000E+00 -0.00000000000E+00 -0.22734707154E+03  0.22734707154E+03  0.00000000000E+00 0.  1.
          2    1    1    2  501    0  0.28251283984E+02  0.16745918108E+02  0.16321547147E+02  0.36673610694E+02  0.00000000000E+00 0.  1.
          1    1    1    2  502    0 -0.74157670427E+02  0.15266515697E+01 -0.18115607306E+03  0.19575294009E+03  0.00000000000E+00 0.  1.
         22    1    1    2    0    0  0.88386306401E+01  0.39817091999E+02  0.22602691379E+01  0.40848880320E+02  0.00000000000E+00 0.  1.
         22    1    1    2    0    0  0.37067755802E+02 -0.58089661676E+02  0.11656781190E+03  0.13541226711E+03  0.00000000000E+00 0.  1.
</event>
<event>
 6    1  0.3624778E-005  0.7407931E+02  0.7818608E-02  0.1349408E+00
          2   -1    0    0  502    0  0.00000000000E+00  0.00000000000E+00  0.21290906908E+03  0.21290906908E+03  0.00000000000E+00 0.  1.
          1   -1    0    0  501    0 -0.00000000000E+00 -0.00000000000E+00 -0.16259969393E+03  0.16259969393E+03  0.00000000000E+00 0.  1.
          2    1    1    2  501    0  0.47231171550E+02  0.11937367323E+02 -0.75789746740E+01  0.49302384949E+02  0.00000000000E+00 0.  1.
          1    1    1    2  502    0 -0.15674606622E+02 -0.31792057517E+02 -0.11001947256E+03  0.11558854855E+03  0.00000000000E+00 0.  1.
         22    1    1    2    0    0  0.36895658309E+02  0.13130690362E+02  0.13230534506E+02  0.41337049662E+02  0.00000000000E+00 0. -1.
         22    1    1    2    0    0 -0.68452223237E+02  0.67239998315E+01  0.15467728788E+03  0.16928077984E+03  0.00000000000E+00 0.  1.
</event>
<event>
 6    1  0.3624778E-005  0.1365907E+03  0.7818608E-02  0.1322704E+00
          2   -1    0    0  502    0  0.00000000000E+00  0.00000000000E+00  0.21047747347E+03  0.21047747347E+03  0.00000000000E+00 0.  1.
          1   -1    0    0  501    0 -0.00000000000E+00 -0.00000000000E+00 -0.12426500409E+03  0.12426500409E+03  0.00000000000E+00 0.  1.
          2    1    1    2  501    0  0.38848184356E+02 -0.20019187438E+02 -0.46667058164E+01  0.43951421327E+02  0.00000000000E+00 0.  1.
          1    1    1    2  502    0 -0.89141873690E+02  0.86917306389E+02  0.25021201012E+02  0.12699193791E+03  0.00000000000E+00 0.  1.
         22    1    1    2    0    0 -0.14507043249E+02  0.10629943752E+02  0.59943056961E+02  0.62582905699E+02  0.00000000000E+00 0. -1.
         22    1    1    2    0    0  0.64800732583E+02 -0.77528062703E+02  0.59149172240E+01  0.10121621261E+03  0.00000000000E+00 0.  1.
</event>
<event>
 6    1  0.3624778E-005  0.1255336E+03  0.7818608E-02  0.1235190E+00
          2   -1    0    0  502    0  0.00000000000E+00  0.00000000000E+00  0.67220978601E+03  0.67220978601E+03  0.00000000000E+00 0. -1.
          1   -1    0    0  501    0 -0.00000000000E+00 -0.00000000000E+00 -0.10652870537E+04  0.10652870537E+04  0.00000000000E+00 0.  1.
          2    1    1    2  501    0 -0.52979978724E+02  0.81922958382E+02  0.35975389986E+03  0.37274806200E+03  0.00000000000E+00 0. -1.
          1    1    1    2  502    0 -0.24868425062E+02 -0.19945620816E+02 -0.10366898008E+04  0.10371798347E+04  0.00000000000E+00 0.  1.
         22    1    1    2    0    0  0.81326401159E+02 -0.91218019323E+02  0.16627571874E+03  0.20635485266E+03  0.00000000000E+00 0. -1.
         22    1    1    2    0    0 -0.34779973727E+01  0.29240681757E+02  0.11758291449E+03  0.12121409042E+03  0.00000000000E+00 0.  1.
</event>
<event>
 6    1  0.3624778E-005  0.9552675E+02  0.7818608E-02  0.1348754E+00
          2   -1    0    0  502    0  0.00000000000E+00  0.00000000000E+00  0.27307686421E+03  0.27307686421E+03  0.00000000000E+00 0. -1.
          1   -1    0    0  501    0 -0.00000000000E+00 -0.00000000000E+00 -0.67010027706E+02  0.67010027706E+02  0.00000000000E+00 0. -1.
          2    1    1    2  501    0  0.25968605317E+02  0.24046295579E+01 -0.40696389335E+01  0.26395315237E+02  0.00000000000E+00 0. -1.
          1    1    1    2  502    0 -0.74059522133E+02  0.41029657108E+01  0.15322947368E+02  0.75739288762E+02  0.00000000000E+00 0. -1.
         22    1    1    2    0    0 -0.33320314163E+02  0.19930278953E+01  0.12803332873E+03  0.13231307102E+03  0.00000000000E+00 0. -1.
         22    1    1    2    0    0  0.81411230978E+02 -0.85006231640E+01  0.66780199339E+02  0.10563921690E+03  0.00000000000E+00 0. -1.
</event>
<event>
 6    1  0.3624778E-005  0.1361520E+03  0.7818608E-02  0.1330164E+00
          2   -1    0    0  502    0  0.00000000000E+00  0.00000000000E+00  0.13227355610E+03  0.13227355610E+03  0.00000000000E+00 0.  1.
          1   -1    0    0  501    0 -0.00000000000E+00 -0.00000000000E+00 -0.42458808589E+03  0.42458808589E+03  0.00000000000E+00 0.  1.
          2    1    1    2  501    0 -0.37026016802E+02  0.33304178910E+02 -0.90056250448E+01  0.50608255606E+02  0.00000000000E+00 0.  1.
          1    1    1    2  502    0 -0.30448443271E+02  0.23135114542E+02 -0.34065206584E+03  0.34279173150E+03  0.00000000000E+00 0.  1.
         22    1    1    2    0    0  0.12449541038E+02  0.99130672241E+01  0.73979048492E+02  0.75671392148E+02  0.00000000000E+00 0.  1.
         22    1    1    2    0    0  0.55024919034E+02 -0.66352360676E+02 -0.16635887389E+02  0.87790262735E+02  0.00000000000E+00 0.  1.
</event>
<event>
 6    1  0.3624778E-005  0.1600226E+03  0.7818608E-02  0.1301077E+00
          2   -1    0    0  502    0  0.00000000000E+00  0.00000000000E+00  0.12747406097E+03  0.12747406097E+03  0.00000000000E+00 0.  1.
          1   -1    0    0  501    0 -0.00000000000E+00 -0.00000000000E+00 -0.11316820082E+04  0.11316820082E+04  0.00000000000E+00 0. -1.
          2    1    1    2  501    0  0.55133045574E+02 -0.69564309374E+02  0.22908718624E+02  0.91671452710E+02  0.00000000000E+00 0.  1.
          1    1    1    2  502    0 -0.48090689130E+02  0.30465657537E+02 -0.10342525605E+04  0.10358181450E+04  0.00000000000E+00 0. -1.
         22    1    1    2    0    0  0.34378654957E+01  0.51897560099E+02 -0.50022467697E+02  0.72162475968E+02  0.00000000000E+00 0. -1.
         22    1    1    2    0    0 -0.10480221939E+02 -0.12798908262E+02  0.57158362277E+02  0.59503995519E+02  0.00000000000E+00 0.  1.
</event>
<event>
 6    1  0.3624778E-005  0.9654864E+02  0.7818608E-02  0.1356301E+00
          2   -1    0    0  502    0  0.00000000000E+00  0.00000000000E+00  0.20348956640E+03  0.20348956640E+03  0.00000000000E+00 0.  1.
          1   -1    0    0  501    0 -0.00000000000E+00 -0.00000000000E+00 -0.30180125167E+03  0.30180125167E+03  0.00000000000E+00 0.  1.
          2    1    1    2  501    0 -0.85599608919E+02 -0.49111543534E+02 -0.61158543853E+02  0.11610169784E+03  0.00000000000E+00 0.  1.
          1    1    1    2  502    0  0.78400982891E+02  0.36306630730E+02 -0.17888389248E+03  0.19865631765E+03  0.00000000000E+00 0.  1.
         22    1    1    2    0    0 -0.17658682254E+02 -0.10107537828E+01 -0.19781484104E+02  0.26535971727E+02  0.00000000000E+00 0.  1.
         22    1    1    2    0    0  0.24857308282E+02  0.13815666586E+02  0.16151223517E+03  0.16399683084E+03  0.00000000000E+00 0.  1.
</event>
<event>
 6    1  0.3624778E-005  0.7776930E+02  0.7818608E-02  0.1350054E+00
          2   -1    0    0  502    0  0.00000000000E+00  0.00000000000E+00  0.31293812366E+03  0.31293812366E+03  0.00000000000E+00 0.  1.
          1   -1    0    0  501    0 -0.00000000000E+00 -0.00000000000E+00 -0.65249124184E+03  0.65249124184E+03  0.00000000000E+00 0. -1.
          2    1    1    2  501    0  0.95775007731E+01  0.79466881474E+02  0.95097244489E+01  0.80604892105E+02  0.00000000000E+00 0.  1.
          1    1    1    2  502    0 -0.19942491317E+02 -0.63156502805E+02 -0.60018072803E+03  0.60382394214E+03  0.00000000000E+00 0. -1.
         22    1    1    2    0    0 -0.12228741636E+02  0.39818224732E+02  0.28912261332E+02  0.50704555990E+02  0.00000000000E+00 0.  1.
         22    1    1    2    0    0  0.22593732180E+02 -0.56128603400E+02  0.22220562407E+03  0.23029597526E+03  0.00000000000E+00 0.  1.
</event>
<event>
 6    1  0.3624778E-005  0.1577608E+03  0.7818608E-02  0.1258835E+00
          2   -1    0    0  502    0  0.00000000000E+00  0.00000000000E+00  0.13182794498E+03  0.13182794498E+03  0.00000000000E+00 0.  1.
          1   -1    0    0  501    0 -0.00000000000E+00 -0.00000000000E+00 -0.15539475931E+04  0.15539475931E+04  0.00000000000E+00 0. -1.
          2    1    1    2  501    0  0.30128130141E+02 -0.51311797278E+02 -0.45355978393E+02  0.74818243375E+02  0.00000000000E+00 0.  1.
          1    1    1    2  502    0 -0.77631188738E+02  0.82761515480E+00 -0.14514402005E+04  0.14535150299E+04  0.00000000000E+00 0. -1.
         22    1    1    2    0    0  0.18567761065E+02  0.76005713720E+02  0.57498497950E+01  0.78451838995E+02  0.00000000000E+00 0.  1.
         22    1    1    2    0    0  0.28935297531E+02 -0.25521531597E+02  0.68926680998E+02  0.78990425823E+02  0.00000000000E+00 0.  1.
</event>
<event>
 6    1  0.3624778E-005  0.1104806E+03  0.7818608E-02  0.1275695E+00
          2   -1    0    0  502    0  0.00000000000E+00  0.00000000000E+00  0.39401081645E+03  0.39401081645E+03  0.00000000000E+00 0. -1.
          1   -1    0    0  501    0 -0.00000000000E+00 -0.00000000000E+00 -0.29949187145E+03  0.29949187145E+03  0.00000000000E+00 0. -1.
          2    1    1    2  501    0  0.31337573653E+00  0.56077494768E+02  0.17676383517E+02  0.58798283632E+02  0.00000000000E+00 0. -1.
          1    1    1    2  502    0  0.47143674234E+02 -0.73801828649E+02 -0.25899227585E+03  0.27339757658E+03  0.00000000000E+00 0. -1.
         22    1    1    2    0    0 -0.73203183007E+02  0.34590797072E+02  0.31212374189E+03  0.32245380987E+03  0.00000000000E+00 0. -1.
         22    1    1    2    0    0  0.25746133037E+02 -0.16866463191E+02  0.23711095438E+02  0.38853017821E+02  0.00000000000E+00 0. -1.
</event>
<event>
 6    1  0.3624778E-005  0.1519602E+03  0.7818608E-02  0.1299901E+00
          2   -1    0    0  502    0  0.00000000000E+00  0.00000000000E+00  0.23034294396E+02  0.23034294396E+02  0.00000000000E+00 0. -1.
          1   -1    0    0  501    0 -0.00000000000E+00 -0.00000000000E+00 -0.10757197450E+04  0.10757197450E+04  0.00000000000E+00 0.  1.
          2    1    1    2  501    0 -0.34363109254E+02  0.58099832559E+02 -0.12359251605E+03  0.14082444335E+03  0.00000000000E+00 0. -1.
          1    1    1    2  502    0 -0.22731903360E+02 -0.23243171298E+01 -0.57683998033E+03  0.57729239107E+03  0.00000000000E+00 0.  1.
         22    1    1    2    0    0 -0.36040715531E+01 -0.19408561490E+02  0.15751386241E+01  0.19803097045E+02  0.00000000000E+00 0.  1.
         22    1    1    2    0    0  0.60699084168E+02 -0.36366953939E+02 -0.35382809282E+03  0.36083410791E+03  0.00000000000E+00 0.  1.
</event>
<event>
 6    1  0.3624778E-005  0.2624961E+03  0.7818608E-02  0.1198816E+00
          2   -1    0    0  502    0  0.00000000000E+00  0.00000000000E+00  0.34986765278E+02  0.34986765278E+02  0.00000000000E+00 0.  1.
          1   -1    0    0  501    0 -0.00000000000E+00 -0.00000000000E+00 -0.20429661982E+04  0.20429661982E+04  0.00000000000E+00 0.  1.
          2    1    1    2  501    0 -0.84856594166E+02 -0.83472612214E+01 -0.32111674747E+03  0.33224431350E+03  0.00000000000E+00 0.  1.
          1    1    1    2  502    0  0.19808555342E+03 -0.11170303452E+03 -0.11273399965E+04  0.11500482260E+04  0.00000000000E+00 0.  1.
         22    1    1    2    0    0 -0.16478050108E+02 -0.23882917629E+02 -0.11230053374E+03  0.11598848980E+03  0.00000000000E+00 0. -1.
         22    1    1    2    0    0 -0.96750909146E+02  0.14393321337E+03 -0.44722215520E+03  0.47967193417E+03  0.00000000000E+00 0.  1.
</event>
<event>
 6    1  0.3624778E-005  0.2232465E+03  0.7818608E-02  0.1240083E+00
          2   -1    0    0  502    0  0.00000000000E+00  0.00000000000E+00  0.56297933976E+02  0.56297933976E+02  0.00000000000E+00 0. -1.
          1   -1    0    0  501    0 -0.00000000000E+00 -0.00000000000E+00 -0.92028312516E+03  0.92028312516E+03  0.00000000000E+00 0. -1.
          2    1    1    2  501    0  0.58795788951E+02 -0.18915661458E+02 -0.49374590132E+03  0.49759397315E+03  0.00000000000E+00 0. -1.
          1    1    1    2  502    0 -0.12057386168E+03 -0.40788467264E+02 -0.27188369746E+03  0.30020409745E+03  0.00000000000E+00 0. -1.
         22    1    1    2    0    0 -0.19808434444E+02 -0.24582290980E+00  0.16423103595E+02  0.25732330553E+02  0.00000000000E+00 0.  1.
         22    1    1    2    0    0  0.81586507170E+02  0.59949951632E+02 -0.11477869600E+03  0.15305065798E+03  0.00000000000E+00 0. -1.
</event>
<event>
 6    1  0.3624778E-005  0.6809444E+02  0.7818608E-02  0.1422559E+00
          2   -1    0    0  502    0  0.00000000000E+00  0.00000000000E+00  0.64793035280E+02  0.64793035280E+02  0.00000000000E+00 0. -1.
          1   -1    0    0  501    0 -0.00000000000E+00 -0.00000000000E+00 -0.52044202942E+03  0.52044202942E+03  0.00000000000E+00 0. -1.
          2    1    1    2  501    0  0.11086471599E+02  0.39474554983E+02 -0.89777195043E+02  0.98696986243E+02  0.00000000000E+00 0. -1.
          1    1    1    2  502    0  0.17739069988E+02 -0.69186181399E+02 -0.34857557200E+03  0.35581783499E+03  0.00000000000E+00 0. -1.
         22    1    1    2    0    0 -0.26249062721E+02  0.94752913441E+01  0.51711107444E+02  0.58760812391E+02  0.00000000000E+00 0. -1.
         22    1    1    2    0    0 -0.25764788670E+01  0.20236335072E+02 -0.69007334545E+02  0.71959431081E+02  0.00000000000E+00 0. -1.
</event>
<event>
 6    1  0.3624778E-005  0.3068609E+03  0.7818608E-02  0.1213178E+00
          2   -1    0    0  502    0  0.00000000000E+00  0.00000000000E+00  0.15677053287E+03  0.15677053287E+03  0.00000000000E+00 0.  1.
          1   -1    0    0  501    0 -0.00000000000E+00 -0.00000000000E+00 -0.86636041408E+03  0.86636041408E+03  0.00000000000E+00 0. -1.
          2    1    1    2  501    0  0.16137391874E+03 -0.14518234390E+03 -0.17437516625E+03  0.27843518677E+03  0.00000000000E+00 0.  1.
          1    1    1    2  502    0 -0.20402461121E+03  0.22714296934E+03 -0.50075348052E+03  0.58649298270E+03  0.00000000000E+00 0. -1.
         22    1    1    2    0    0  0.30742522213E+02 -0.75953171635E+02 -0.77719518552E+02  0.11293498358E+03  0.00000000000E+00 0.  1.
         22    1    1    2    0    0  0.11908170258E+02 -0.60074538090E+01  0.43258284112E+02  0.45267793899E+02  0.00000000000E+00 0.  1.
</event>
<event>
 6    1  0.3624778E-005  0.9241445E+02  0.7818608E-02  0.1303530E+00
          2   -1    0    0  502    0  0.00000000000E+00  0.00000000000E+00  0.23928153967E+02  0.23928153967E+02  0.00000000000E+00 0. -1.
          1   -1    0    0  501    0 -0.00000000000E+00 -0.00000000000E+00 -0.14857504922E+04  0.14857504922E+04  0.00000000000E+00 0. -1.
          2    1    1    2  501    0 -0.30226089092E+02 -0.22062309342E+02 -0.23505448683E+02  0.44191266932E+02  0.00000000000E+00 0. -1.
          1    1    1    2  502    0 -0.23026217990E+02  0.38036650658E+02 -0.11110825201E+04  0.11119718341E+04  0.00000000000E+00 0. -1.
         22    1    1    2    0    0  0.83498547306E+02  0.20571257489E+02 -0.22242459324E+03  0.23846988010E+03  0.00000000000E+00 0.  1.
         22    1    1    2    0    0 -0.30246240224E+02 -0.36545598806E+02 -0.10480977625E+03  0.11504566501E+03  0.00000000000E+00 0. -1.
</event>
<event>
 6    1  0.3624778E-005  0.1752035E+03  0.7818608E-02  0.1231464E+00
          2   -1    0    0  502    0  0.00000000000E+00  0.00000000000E+00  0.42607086682E+03  0.42607086682E+03  0.00000000000E+00 0.  1.
          1   -1    0    0  501    0 -0.00000000000E+00 -0.00000000000E+00 -0.11373475392E+03  0.11373475392E+03  0.00000000000E+00 0.  1.
          2    1    1    2  501    0  0.95742183221E+02 -0.18061551904E+02  0.48899856657E+02  0.10901367477E+03  0.00000000000E+00 0.  1.
          1    1    1    2  502    0 -0.71999201671E+02 -0.41987822005E+02  0.27394072394E+03  0.28633962784E+03  0.00000000000E+00 0.  1.
         22    1    1    2    0    0 -0.20726045155E+02  0.44272889005E+02  0.56983938639E+02  0.75078804675E+02  0.00000000000E+00 0. -1.
         22    1    1    2    0    0 -0.30169363955E+01  0.15776484904E+02 -0.67488406333E+02  0.69373513465E+02  0.00000000000E+00 0.  1.
</event>
<event>
 6    1  0.3624778E-005  0.7962583E+02  0.7818608E-02  0.1384802E+00
          2   -1    0    0  502    0  0.00000000000E+00  0.00000000000E+00  0.49277535031E+03  0.49277535031E+03  0.00000000000E+00 0.  1.
          1   -1    0    0  501    0 -0.00000000000E+00 -0.00000000000E+00 -0.17486722869E+04  0.17486722869E+04  0.00000000000E+00 0. -1.
          2    1    1    2  501    0 -0.40943739532E+02  0.64699329847E+01  0.13749833404E+03  0.14361072977E+03  0.00000000000E+00 0.  1.
          1    1    1    2  502    0  0.71114444764E+02 -0.21448648008E+02 -0.17336333268E+04  0.17352238532E+04  0.00000000000E+00 0. -1.
         22    1    1    2    0    0 -0.54951759864E+02  0.34646929720E+02  0.31639979143E+03  0.32299989732E+03  0.00000000000E+00 0.  1.
         22    1    1    2    0    0  0.24781054632E+02 -0.19668214697E+02  0.23838264744E+02  0.39613156957E+02  0.00000000000E+00 0.  1.
</event>
<event>
 6    1  0.3624778E-005  0.4980756E+03  0.7818608E-02  0.1102894E+00
          2   -1    0    0  502    0  0.00000000000E+00  0.00000000000E+00  0.21269691449E+03  0.21269691449E+03  0.00000000000E+00 0. -1.
          1   -1    0    0  501    0 -0.00000000000E+00 -0.00000000000E+00 -0.75811205277E+03  0.75811205277E+03  0.00000000000E+00 0. -1.
          2    1    1    2  501    0 -0.29009548950E+02 -0.21158562638E+02 -0.33528045675E+03  0.33719760287E+03  0.00000000000E+00 0. -1.
          1    1    1    2  502    0  0.16639031626E+03 -0.69966680133E+01 -0.35811397212E+03  0.39494342346E+03  0.00000000000E+00 0. -1.
         22    1    1    2    0    0 -0.13501618892E+03 -0.13028984695E+02  0.14302837697E+03  0.19711986792E+03  0.00000000000E+00 0. -1.
         22    1    1    2    0    0 -0.23645783922E+01  0.41184215346E+02  0.49509136289E+01  0.41548073005E+02  0.00000000000E+00 0. -1.
</event>
<event>
 6    1  0.3624778E-005  0.1917875E+03  0.7818608E-02  0.1248460E+00
          2   -1    0    0  502    0  0.00000000000E+00  0.00000000000E+00  0.36681838883E+03  0.36681838883E+03  0.00000000000E+00 0.  1.
          1   -1    0    0  501    0 -0.00000000000E+00 -0.00000000000E+00 -0.88965459766E+02  0.88965459766E+02  0.00000000000E+00 0.  1.
          2    1    1    2  501    0  0.69428453391E+02 -0.70888994607E+02  0.18883951061E+03  0.21332116741E+03  0.00000000000E+00 0.  1.
          1    1    1    2  502    0 -0.48112818653E+01  0.28713222433E+02 -0.40222981715E+02  0.49653658815E+02  0.00000000000E+00 0.  1.
         22    1    1    2    0    0 -0.54234229532E+02  0.17916270236E+02 -0.37403901201E+01  0.57239277689E+02  0.00000000000E+00 0.  1.
         22    1    1    2    0    0 -0.10382941994E+02  0.24259501938E+02  0.13297679029E+03  0.13556974468E+03  0.00000000000E+00 0. -1.
</event>
<event>
 6    1  0.3624778E-005  0.1349003E+03  0.7818608E-02  0.1246557E+00
          2   -1    0    0  502    0  0.00000000000E+00  0.00000000000E+00  0.62596218952E+03  0.62596218952E+03  0.00000000000E+00 0. -1.
          1   -1    0    0  501    0 -0.00000000000E+00 -0.00000000000E+00 -0.91010298028E+02  0.91010298028E+02  0.00000000000E+00 0. -1.
          2    1    1    2  501    0  0.37399907874E+02 -0.19018823176E+02  0.11050292291E+03  0.11820052756E+03  0.00000000000E+00 0. -1.
          1    1    1    2  502    0 -0.11264791913E+03  0.83318808803E+02 -0.54846144057E+01  0.14022003630E+03  0.00000000000E+00 0. -1.
         22    1    1    2    0    0  0.63190034498E+02  0.13551001030E+02  0.97949017087E+02  0.11734828519E+03  0.00000000000E+00 0. -1.
         22    1    1    2    0    0  0.12057976759E+02 -0.77850986657E+02  0.33198456590E+03  0.34120363850E+03  0.00000000000E+00 0. -1.
</event>
<event>
 6    1  0.3624778E-005  0.8412405E+02  0.7818608E-02  0.1328555E+00
          2   -1    0    0  502    0  0.00000000000E+00  0.00000000000E+00  0.30283806702E+03  0.30283806702E+03  0.00000000000E+00 0. -1.
          1   -1    0    0  501    0 -0.00000000000E+00 -0.00000000000E+00 -0.41984931302E+03  0.41984931302E+03  0.00000000000E+00 0.  1.
          2    1    1    2  501    0  0.47689034245E+01 -0.24490882782E+02 -0.42708972644E+02  0.49463139039E+02  0.00000000000E+00 0. -1.
          1    1    1    2  502    0 -0.30387623697E+02 -0.11480596891E+02 -0.35779734938E+03  0.35926891739E+03  0.00000000000E+00 0.  1.
         22    1    1    2    0    0 -0.90117697346E+01 -0.26257677730E+02  0.72696244098E+01  0.28697126556E+02  0.00000000000E+00 0. -1.
         22    1    1    2    0    0  0.34630490007E+02  0.62229157402E+02  0.27622545162E+03  0.28525819706E+03  0.00000000000E+00 0. -1.
</event>
<event>
 6    1  0.3624778E-005  0.2667754E+03  0.7818608E-02  0.1112460E+00
          2   -1    0    0  502    0  0.00000000000E+00  0.00000000000E+00  0.20543148278E+03  0.20543148278E+03  0.00000000000E+00 0. -1.
          1   -1    0    0  501    0 -0.00000000000E+00 -0.00000000000E+00 -0.37865360746E+03  0.37865360746E+03  0.00000000000E+00 0. -1.
          2    1    1    2  501    0 -0.92836532209E+02  0.19588748414E+03  0.33993747831E+02  0.21942220272E+03  0.00000000000E+00 0. -1.
          1    1    1    2  502    0  0.60118977526E+01 -0.27395789683E+02  0.26203888628E+02  0.38383798485E+02  0.00000000000E+00 0. -1.
         22    1    1    2    0    0  0.11674612504E+03 -0.15536560586E+03 -0.18856675160E+03  0.27078690701E+03  0.00000000000E+00 0. -1.
         22    1    1    2    0    0 -0.29921490583E+02 -0.13126088596E+02 -0.44853009536E+02  0.55492182017E+02  0.00000000000E+00 0. -1.
</event>
<event>
 6    1  0.3624778E-005  0.8435048E+02  0.7818608E-02  0.1413965E+00
          2   -1    0    0  502    0  0.00000000000E+00  0.00000000000E+00  0.74752930211E+02  0.74752930211E+02  0.00000000000E+00 0. -1.
          1   -1    0    0  501    0 -0.00000000000E+00 -0.00000000000E+00 -0.25574629839E+03  0.25574629839E+03  0.00000000000E+00 0. -1.
          2    1    1    2  501    0  0.33148247346E+02  0.32838459788E+02 -0.10324328774E+03  0.11329760460E+03  0.00000000000E+00 0. -1.
          1    1    1    2  502    0 -0.37147162819E+02 -0.59484586500E+02 -0.20547262218E+02  0.73078845922E+02  0.00000000000E+00 0. -1.
         22    1    1    2    0    0 -0.11151596043E+02 -0.12514825191E+02  0.37200352823E+02  0.40802514555E+02  0.00000000000E+00 0. -1.
         22    1    1    2    0    0  0.15150511516E+02  0.39160951902E+02 -0.94403171044E+02  0.10332026353E+03  0.00000000000E+00 0.  1.
</event>
<event>
 6    1  0.3624778E-005  0.4052031E+03  0.7818608E-02  0.1127290E+00
          2   -1    0    0  502    0  0.00000000000E+00  0.00000000000E+00  0.79817813461E+02  0.79817813461E+02  0.00000000000E+00 0. -1.
          1   -1    0    0  501    0 -0.00000000000E+00 -0.00000000000E+00 -0.18066037262E+04  0.18066037262E+04  0.00000000000E+00 0. -1.
          2    1    1    2  501    0  0.30011476819E+03 -0.16826898138E+02 -0.77974709028E+03  0.83567789452E+03  0.00000000000E+00 0. -1.
          1    1    1    2  502    0 -0.26443022294E+03  0.38068762426E+02 -0.35359662233E+03  0.44317394418E+03  0.00000000000E+00 0. -1.
         22    1    1    2    0    0 -0.56512928470E+02 -0.57011520564E+02 -0.48300766739E+03  0.48963295571E+03  0.00000000000E+00 0. -1.
         22    1    1    2    0    0  0.20828383227E+02  0.35769656277E+02 -0.11043453269E+03  0.11793674520E+03  0.00000000000E+00 0. -1.
</event>
<event>
 6    1  0.3624778E-005  0.1195421E+03  0.7818608E-02  0.1249123E+00
          2   -1    0    0  502    0  0.00000000000E+00  0.00000000000E+00  0.26175318815E+02  0.26175318815E+02  0.00000000000E+00 0.  1.
          1   -1    0    0  501    0 -0.00000000000E+00 -0.00000000000E+00 -0.93935533588E+03  0.93935533588E+03  0.00000000000E+00 0. -1.
          2    1    1    2  501    0 -0.26596311534E+02 -0.70830752382E+02 -0.30713959725E+03  0.31632118404E+03  0.00000000000E+00 0.  1.
          1    1    1    2  502    0 -0.15937664073E+02  0.12305243404E+02 -0.37397055275E+03  0.37451221940E+03  0.00000000000E+00 0. -1.
         22    1    1    2    0    0  0.75563811355E+02  0.77275127135E+02 -0.15757546744E+03  0.19107946724E+03  0.00000000000E+00 0.  1.
         22    1    1    2    0    0 -0.33029835748E+02 -0.18749618157E+02 -0.74494399618E+02  0.83617784023E+02  0.00000000000E+00 0.  1.
</event>
<event>
 6    1  0.3624778E-005  0.2403122E+03  0.7818608E-02  0.1200305E+00
          2   -1    0    0  502    0  0.00000000000E+00  0.00000000000E+00  0.10411499840E+04  0.10411499840E+04  0.00000000000E+00 0. -1.
          1   -1    0    0  501    0 -0.00000000000E+00 -0.00000000000E+00 -0.42155685638E+03  0.42155685638E+03  0.00000000000E+00 0. -1.
          2    1    1    2  501    0 -0.10695284908E+02  0.97868660058E+02  0.22470956514E+03  0.24533049628E+03  0.00000000000E+00 0. -1.
          1    1    1    2  502    0  0.37869490913E+02  0.35225060304E+01 -0.40187948099E+03  0.40367514617E+03  0.00000000000E+00 0. -1.
         22    1    1    2    0    0 -0.33230520836E+02  0.22706602327E+02  0.16510628671E+03  0.16994099922E+03  0.00000000000E+00 0. -1.
         22    1    1    2    0    0  0.60563148303E+01 -0.12409776842E+03  0.63165675672E+03  0.64376019866E+03  0.00000000000E+00 0. -1.
</event>
<event>
 6    1  0.3624778E-005  0.1017846E+03  0.7818608E-02  0.1385255E+00
          2   -1    0    0  502    0  0.00000000000E+00  0.00000000000E+00  0.83677435751E+02  0.83677435751E+02  0.00000000000E+00 0. -1.
          1   -1    0    0  501    0 -0.00000000000E+00 -0.00000000000E+00 -0.14771977289E+04  0.14771977289E+04  0.00000000000E+00 0.  1.
          2    1    1    2  501    0 -0.59718189907E+02  0.54123588787E+01 -0.34537685128E+03  0.35054347125E+03  0.00000000000E+00 0. -1.
          1    1    1    2  502    0  0.91918305165E+02  0.29253024966E+01 -0.10736052445E+04  0.10775368918E+04  0.00000000000E+00 0.  1.
         22    1    1    2    0    0 -0.26573575285E+02  0.56059716568E+01 -0.49434839454E+02  0.56403769142E+02  0.00000000000E+00 0. -1.
         22    1    1    2    0    0 -0.56265399720E+01 -0.13943633032E+02  0.74896642043E+02  0.76391032481E+02  0.00000000000E+00 0. -1.
</event>
<event>
 6    1  0.3624778E-005  0.9580185E+02  0.7818608E-02  0.1316812E+00
          2   -1    0    0  502    0  0.00000000000E+00  0.00000000000E+00  0.13746989275E+03  0.13746989275E+03  0.00000000000E+00 0. -1.
          1   -1    0    0  501    0 -0.00000000000E+00 -0.00000000000E+00 -0.28546073341E+03  0.28546073341E+03  0.00000000000E+00 0. -1.
          2    1    1    2  501    0 -0.33528147454E+02  0.25094979385E+02 -0.29875977579E+01  0.41985954822E+02  0.00000000000E+00 0. -1.
          1    1    1    2  502    0  0.13693913111E+02 -0.90370163017E+02 -0.20360354167E+03  0.22317860964E+03  0.00000000000E+00 0. -1.
         22    1    1    2    0    0  0.11495332990E+02  0.79643734105E+01 -0.40575975700E+02  0.42918337903E+02  0.00000000000E+00 0.  1.
         22    1    1    2    0    0  0.83389013522E+01  0.57310810222E+02  0.99176274466E+02  0.11484772379E+03  0.00000000000E+00 0. -1.
</event>
<event>
 6    1  0.3624778E-005  0.6695621E+02  0.7818608E-02  0.1476475E+00
          2   -1    0    0  502    0  0.00000000000E+00  0.00000000000E+00  0.70749436490E+02  0.70749436490E+02  0.00000000000E+00 0. -1.
          1   -1    0    0  501    0 -0.00000000000E+00 -0.00000000000E+00 -0.32218500395E+03  0.32218500395E+03  0.00000000000E+00 0. -1.
          2    1    1    2  501    0 -0.35176878154E+02 -0.21580520192E+02 -0.19100973239E+03  0.19541711664E+03  0.00000000000E+00 0. -1.
          1    1    1    2  502    0  0.11401573428E+02  0.21409314018E+02 -0.67061499685E+02  0.71313388248E+02  0.00000000000E+00 0. -1.
         22    1    1    2    0    0  0.51145015654E+01 -0.12226052758E+02  0.63613766710E+02  0.64979579926E+02  0.00000000000E+00 0. -1.
         22    1    1    2    0    0  0.18660803160E+02  0.12397258932E+02 -0.56978102095E+02  0.61224355627E+02  0.00000000000E+00 0. -1.
</event>
<event>
 6    1  0.3624778E-005  0.1332788E+03  0.7818608E-02  0.1224626E+00
          2   -1    0    0  502    0  0.00000000000E+00  0.00000000000E+00  0.29639653632E+03  0.29639653632E+03  0.00000000000E+00 0. -1.
          1   -1    0    0  501    0 -0.00000000000E+00 -0.00000000000E+00 -0.15769353952E+03  0.15769353952E+03  0.00000000000E+00 0. -1.
          2    1    1    2  501    0  0.10632262907E+03 -0.25361760316E+02  0.10784464573E+03  0.15355190637E+03  0.00000000000E+00 0. -1.
          1    1    1    2  502    0 -0.14540565054E+02  0.14898890039E+02 -0.97097644756E+02  0.99304368351E+02  0.00000000000E+00 0. -1.
         22    1    1    2    0    0 -0.11591187847E+03  0.22567489684E+02  0.69943624210E+02  0.13724782596E+03  0.00000000000E+00 0. -1.
         22    1    1    2    0    0  0.24129814462E+02 -0.12104619408E+02  0.58012371619E+02  0.63985975165E+02  0.00000000000E+00 0.  1.
</event>
<event>
 6    1  0.3624778E-005  0.2528092E+03  0.7818608E-02  0.1240679E+00
          2   -1    0    0  502    0  0.00000000000E+00  0.00000000000E+00  0.82992892058E+02  0.82992892058E+02  0.00000000000E+00 0.  1.
          1   -1    0    0  501    0 -0.00000000000E+00 -0.00000000000E+00 -0.97344432080E+03  0.97344432080E+03  0.00000000000E+00 0. -1.
          2    1    1    2  501    0 -0.23429414192E+02  0.96036194451E+02 -0.40247838392E+03  0.41444027027E+03  0.00000000000E+00 0.  1.
          1    1    1    2  502    0 -0.12381901957E+02 -0.17455824550E+02 -0.48548927627E+03  0.48596075426E+03  0.00000000000E+00 0. -1.
         22    1    1    2    0    0 -0.13460890022E+02 -0.66935368909E+00  0.48745105744E+02  0.50573994587E+02  0.00000000000E+00 0.  1.
         22    1    1    2    0    0  0.49272206171E+02 -0.77911016211E+02 -0.51228874292E+02  0.10546219374E+03  0.00000000000E+00 0.  1.
</event>
<event>
 6    1  0.3624778E-005  0.2362569E+03  0.7818608E-02  0.1197300E+00
          2   -1    0    0  502    0  0.00000000000E+00  0.00000000000E+00  0.72186308184E+02  0.72186308184E+02  0.00000000000E+00 0. -1.
          1   -1    0    0  501    0 -0.00000000000E+00 -0.00000000000E+00 -0.48699658475E+03  0.48699658475E+03  0.00000000000E+00 0. -1.
          2    1    1    2  501    0 -0.41140666824E+02 -0.37463394401E+02 -0.23152326165E+03  0.23811568842E+03  0.00000000000E+00 0. -1.
          1    1    1    2  502    0 -0.16362236799E+02  0.62811974990E+02 -0.17257048137E+03  0.18437363704E+03  0.00000000000E+00 0. -1.
         22    1    1    2    0    0  0.20406345683E+02 -0.43119493307E+02  0.46240037435E+02  0.66436817422E+02  0.00000000000E+00 0.  1.
         22    1    1    2    0    0  0.37096557940E+02  0.17770912718E+02 -0.56956570981E+02  0.70256750051E+02  0.00000000000E+00 0. -1.
</event>
<event>
 6    1  0.3624778E-005  0.1921577E+03  0.7818608E-02  0.1228474E+00
          2   -1    0    0  502    0  0.00000000000E+00  0.00000000000E+00  0.32381664959E+02  0.32381664959E+02  0.00000000000E+00 0.  1.
          1   -1    0    0  501    0 -0.00000000000E+00 -0.00000000000E+00 -0.70200835852E+03  0.70200835852E+03  0.00000000000E+00 0.  1.
          2    1    1    2  501    0  0.18084188452E+02  0.39798378578E+02 -0.39913603739E+03  0.40152275795E+03  0.00000000000E+00 0.  1.
          1    1    1    2  502    0 -0.52114160969E+02  0.12919420276E+02 -0.89663371006E+02  0.10450989089E+03  0.00000000000E+00 0.  1.
         22    1    1    2    0    0  0.39923929107E+02 -0.91687698085E+02 -0.13221650484E+03  0.16577622944E+03  0.00000000000E+00 0.  1.
         22    1    1    2    0    0 -0.58939565899E+01  0.38969899230E+02 -0.48610780328E+02  0.62581145199E+02  0.00000000000E+00 0.  1.
</event>
<event>
 6    1  0.3624778E-005  0.1105252E+03  0.7818608E-02  0.1303209E+00
          2   -1    0    0  502    0  0.00000000000E+00  0.00000000000E+00  0.15658855925E+02  0.15658855925E+02  0.00000000000E+00 0.  1.
          1   -1    0    0  501    0 -0.00000000000E+00 -0.00000000000E+00 -0.12012547724E+04  0.12012547724E+04  0.00000000000E+00 0.  1.
          2    1    1    2  501    0 -0.15974472803E+02  0.16538361236E+02 -0.94435112469E+02  0.97194092623E+02  0.00000000000E+00 0.  1.
          1    1    1    2  502    0  0.44012097901E+02 -0.91662522176E+02 -0.49143509221E+03  0.50184413177E+03  0.00000000000E+00 0.  1.
         22    1    1    2    0    0 -0.45771682358E+02 -0.15350443453E+02 -0.11956925380E+03  0.12894762299E+03  0.00000000000E+00 0.  1.
         22    1    1    2    0    0  0.17734057260E+02  0.90474604392E+02 -0.48015645803E+03  0.48892778098E+03  0.00000000000E+00 0.  1.
</event>
<event>
 6    1  0.3624778E-005  0.9312901E+02  0.7818608E-02  0.1410173E+00
          2   -1    0    0  502    0  0.00000000000E+00  0.00000000000E+00  0.11416469262E+03  0.11416469262E+03  0.00000000000E+00 0.  1.
          1   -1    0    0  501    0 -0.00000000000E+00 -0.00000000000E+00 -0.13809555481E+03  0.13809555481E+03  0.00000000000E+00 0.  1.
          2    1    1    2  501    0  0.39355257213E+02 -0.25293434563E+02 -0.71026242526E+02  0.85048934324E+02  0.00000000000E+00 0.  1.
          1    1    1    2  502    0 -0.26369323102E+01  0.31703994209E+02  0.14836255960E+01  0.31848042416E+02  0.00000000000E+00 0.  1.
         22    1    1    2    0    0 -0.42051930010E+02  0.56770296891E+01 -0.34178626001E+02  0.54486438303E+02  0.00000000000E+00 0.  1.
         22    1    1    2    0    0  0.53336051064E+01 -0.12087589335E+02  0.79790380739E+02  0.80876832393E+02  0.00000000000E+00 0.  1.
</event>
<event>
 6    1  0.3624778E-005  0.3879364E+02  0.7818608E-02  0.1568676E+00
          2   -1    0    0  502    0  0.00000000000E+00  0.00000000000E+00  0.98057527912E+02  0.98057527912E+02  0.00000000000E+00 0. -1.
          1   -1    0    0  501    0 -0.00000000000E+00 -0.00000000000E+00 -0.47272570613E+03  0.47272570613E+03  0.00000000000E+00 0.  1.
          2    1    1    2  501    0 -0.21230349128E+02  0.30992737949E+01 -0.22528028452E+02  0.31110211959E+02  0.00000000000E+00 0. -1.
          1    1    1    2  502    0  0.35765272300E+02  0.67686690069E+01 -0.40177933621E+03  0.40342484379E+03  0.00000000000E+00 0.  1.
         22    1    1    2    0    0 -0.17146627122E+02  0.98787720636E+01 -0.39890657051E+02  0.44529332794E+02  0.00000000000E+00 0. -1.
         22    1    1    2    0    0  0.26117039496E+01 -0.19746714865E+02  0.89529843489E+02  0.91718845504E+02  0.00000000000E+00 0. -1.
</event>
<event>
 6    1  0.3624778E-005  0.6186231E+02  0.7818608E-02  0.1404624E+00
          2   -1    0    0  502    0  0.00000000000E+00  0.00000000000E+00  0.22121577582E+03  0.22121577582E+03  0.00000000000E+00 0.  1.
          1   -1    0    0  501    0 -0.00000000000E+00 -0.00000000000E+00 -0.83398007512E+03  0.83398007512E+03  0.00000000000E+00 0.  1.
          2    1    1    2  501    0 -0.26297731968E+02 -0.60803484488E+01  0.62071148818E+02  0.67685809883E+02  0.00000000000E+00 0.  1.
          1    1    1    2  502    0 -0.23286160422E+02  0.37276466093E+02 -0.79827151175E+03  0.79948057303E+03  0.00000000000E+00 0.  1.
         22    1    1    2    0    0  0.61059068666E+02 -0.58713518138E+02  0.29857474297E+02  0.89816233777E+02  0.00000000000E+00 0.  1.
         22    1    1    2    0    0 -0.11475176277E+02  0.27517400494E+02  0.93578589329E+02  0.98213234247E+02  0.00000000000E+00 0.  1.
</event>
<event>
 6    1  0.3624778E-005  0.4383510E+02  0.7818608E-02  0.1557682E+00
          2   -1    0    0  502    0  0.00000000000E+00  0.00000000000E+00  0.92456359937E+02  0.92456359937E+02  0.00000000000E+00 0.  1.
          1   -1    0    0  501    0 -0.00000000000E+00 -0.00000000000E+00 -0.19076652727E+03  0.19076652727E+03  0.00000000000E+00 0.  1.
          2    1    1    2  501    0  0.10662413633E+01  0.28830905949E+02 -0.69210568608E+02  0.74983070192E+02  0.00000000000E+00 0.  1.
          1    1    1    2  502    0 -0.44378444767E+01 -0.38307042430E+02 -0.63612479710E+02  0.74388651945E+02  0.00000000000E+00 0.  1.
         22    1    1    2    0    0 -0.50834492009E+01  0.15025150163E+02  0.82907457959E+02  0.84411155533E+02  0.00000000000E+00 0.  1.
         22    1    1    2    0    0  0.84550523143E+01 -0.55490136826E+01 -0.48394576975E+02  0.49440009538E+02  0.00000000000E+00 0.  1.
</event>
<event>
 6    1  0.3624778E-005  0.1411064E+03  0.7818608E-02  0.1212998E+00
          2   -1    0    0  502    0  0.00000000000E+00  0.00000000000E+00  0.36252523323E+02  0.36252523323E+02  0.00000000000E+00 0.  1.
          1   -1    0    0  501    0 -0.00000000000E+00 -0.00000000000E+00 -0.18571417636E+04  0.18571417636E+04  0.00000000000E+00 0.  1.
          2    1    1    2  501    0 -0.68437686427E+02 -0.33410304373E+02 -0.27968502216E+03  0.28986837872E+03  0.00000000000E+00 0.  1.
          1    1    1    2  502    0 -0.52144546636E+02 -0.51960905969E+02 -0.12591223840E+04  0.12612724398E+04  0.00000000000E+00 0.  1.
         22    1    1    2    0    0 -0.14198985650E+02 -0.18083231449E+02 -0.45521769744E+02  0.50998489917E+02  0.00000000000E+00 0. -1.
         22    1    1    2    0    0  0.13478121871E+03  0.10345444179E+03 -0.23656006441E+03  0.29125497853E+03  0.00000000000E+00 0.  1.
</event>
<event>
 6    1  0.3624778E-005  0.1013054E+03  0.7818608E-02  0.1288949E+00
          2   -1    0    0  502    0  0.00000000000E+00  0.00000000000E+00  0.26446402031E+03  0.26446402031E+03  0.00000000000E+00 0.  1.
          1   -1    0    0  501    0 -0.00000000000E+00 -0.00000000000E+00 -0.35061910265E+03  0.35061910265E+03  0.00000000000E+00 0. -1.
          2    1    1    2  501    0  0.32316149468E+02 -0.50487103226E+02 -0.78806663072E+02  0.99013995239E+02  0.00000000000E+00 0.  1.
          1    1    1    2  502    0  0.17063800256E+02  0.83840238714E+02 -0.23368698230E+03  0.24885731776E+03  0.00000000000E+00 0. -1.
         22    1    1    2    0    0  0.29002551673E+02 -0.10385203030E+02  0.49042188150E+01  0.31193778350E+02  0.00000000000E+00 0. -1.
         22    1    1    2    0    0 -0.78382501397E+02 -0.22967932458E+02  0.22143434422E+03  0.23601803161E+03  0.00000000000E+00 0.  1.
</event>
<event>
 6    1  0.3624778E-005  0.1110788E+03  0.7818608E-02  0.1312280E+00
          2   -1    0    0  502    0  0.00000000000E+00  0.00000000000E+00  0.21055338255E+03  0.21055338255E+03  0.00000000000E+00 0. -1.
          1   -1    0    0  501    0 -0.00000000000E+00 -0.00000000000E+00 -0.20634308313E+03  0.20634308313E+03  0.00000000000E+00 0. -1.
          2    1    1    2  501    0 -0.89146828028E+02 -0.73656765782E+01 -0.30672760601E+02  0.94563356443E+02  0.00000000000E+00 0. -1.
          1    1    1    2  502    0  0.95496152063E+02  0.11064169764E+02 -0.10174903849E+03  0.13998141928E+03  0.00000000000E+00 0. -1.
         22    1    1    2    0    0  0.40225868770E+02  0.26986657853E+01  0.12845526803E+03  0.13463342527E+03  0.00000000000E+00 0. -1.
         22    1    1    2    0    0 -0.46575192805E+02 -0.63971589709E+01  0.81768304828E+01  0.47718264684E+02  0.00000000000E+00 0.  1.
</event>
<event>
 6    1  0.3624778E-005  0.2302912E+03  0.7818608E-02  0.1254598E+00
          2   -1    0    0  502    0  0.00000000000E+00  0.00000000000E+00  0.15941432300E+03  0.15941432300E+03  0.00000000000E+00 0. -1.
          1   -1    0    0  501    0 -0.00000000000E+00 -0.00000000000E+00 -0.39954296061E+03  0.39954296061E+03  0.00000000000E+00 0. -1.
          2    1    1    2  501    0  0.19366504783E+02  0.11885884753E+03  0.59506978593E+02  0.13432634754E+03  0.00000000000E+00 0. -1.
          1    1    1    2  502    0  0.23105064843E+02 -0.60314615409E+02 -0.27395923142E+03  0.28146999367E+03  0.00000000000E+00 0. -1.
         22    1    1    2    0    0 -0.53327527661E+02 -0.50541488501E+02 -0.67158393298E+02  0.99541534330E+02  0.00000000000E+00 0.  1.
         22    1    1    2    0    0  0.10855958035E+02 -0.80027436170E+01  0.41482008514E+02  0.43619408073E+02  0.00000000000E+00 0.  1.
</event>
<event>
 6    1  0.3624778E-005  0.1291271E+03  0.7818608E-02  0.1295862E+00
          2   -1    0    0  502    0  0.00000000000E+00  0.00000000000E+00  0.13986249486E+03  0.13986249486E+03  0.00000000000E+00 0. -1.
          1   -1    0    0  501    0 -0.00000000000E+00 -0.00000000000E+00 -0.21194210102E+03  0.21194210102E+03  0.00000000000E+00 0. -1.
          2    1    1    2  501    0  0.33535781307E+02  0.21458574775E+02 -0.14437473537E+02  0.42350439211E+02  0.00000000000E+00 0. -1.
          1    1    1    2  502    0  0.33250215282E+02 -0.28689757986E+02 -0.14082300457E+03  0.14751202543E+03  0.00000000000E+00 0. -1.
         22    1    1    2    0    0  0.17511911723E+02  0.29920750975E+02  0.63660157332E+02  0.72488164707E+02  0.00000000000E+00 0. -1.
         22    1    1    2    0    0 -0.84297908311E+02 -0.22689567763E+02  0.19520714609E+02  0.89453966540E+02  0.00000000000E+00 0. -1.
</event>
<event>
 6    1  0.3624778E-005  0.1051848E+03  0.7818608E-02  0.1270866E+00
          2   -1    0    0  502    0  0.00000000000E+00  0.00000000000E+00  0.49636226479E+03  0.49636226479E+03  0.00000000000E+00 0.  1.
          1   -1    0    0  501    0 -0.00000000000E+00 -0.00000000000E+00 -0.78051800347E+02  0.78051800347E+02  0.00000000000E+00 0. -1.
          2    1    1    2  501    0  0.15226661604E+02 -0.73855136317E+02  0.89265967398E+02  0.11685394867E+03  0.00000000000E+00 0.  1.
          1    1    1    2  502    0  0.35819515370E+02  0.20280187054E+02 -0.42651143032E+02  0.59274308686E+02  0.00000000000E+00 0. -1.
         22    1    1    2    0    0 -0.40130721864E+01 -0.36689754440E+02  0.60518136938E+02  0.70885031761E+02  0.00000000000E+00 0.  1.
         22    1    1    2    0    0 -0.47033104787E+02  0.90264703703E+02  0.31117750314E+03  0.32740077602E+03  0.00000000000E+00 0.  1.
</event>
<event>
 6    1  0.3624778E-005  0.1638172E+03  0.7818608E-02  0.1265593E+00
          2   -1    0    0  502    0  0.00000000000E+00  0.00000000000E+00  0.29573162952E+02  0.29573162952E+02  0.00000000000E+00 0. -1.
          1   -1    0    0  501    0 -0.00000000000E+00 -0.00000000000E+00 -0.14965874119E+04  0.14965874119E+04  0.00000000000E+00 0. -1.
          2    1    1    2  501    0  0.25182625933E+02  0.69887597553E+02 -0.50632849438E+03  0.51174894739E+03  0.00000000000E+00 0. -1.
          1    1    1    2  502    0 -0.24504864136E+02 -0.35559730465E+02 -0.82854915739E+03  0.82967384496E+03  0.00000000000E+00 0. -1.
         22    1    1    2    0    0 -0.23780270928E+00  0.30186618501E+02  0.73361544870E+01  0.31066181763E+02  0.00000000000E+00 0. -1.
         22    1    1    2    0    0 -0.43995908745E+00 -0.64514485589E+02 -0.13947275166E+03  0.15367160073E+03  0.00000000000E+00 0. -1.
</event>
<event>
 6    1  0.3624778E-005  0.7911543E+02  0.7818608E-02  0.1343965E+00
          2   -1    0    0  502    0  0.00000000000E+00  0.00000000000E+00  0.77179601906E+02  0.77179601906E+02  0.00000000000E+00 0. -1.
          1   -1    0    0  501    0 -0.00000000000E+00 -0.00000000000E+00 -0.26474686891E+03  0.26474686891E+03  0.00000000000E+00 0. -1.
          2    1    1    2  501    0 -0.32874731346E+02  0.71489050087E+01 -0.11115977325E+03  0.11613935592E+03  0.00000000000E+00 0. -1.
          1    1    1    2  502    0  0.27389522366E+02 -0.62115888112E+02 -0.48620007234E+02  0.83501344869E+02  0.00000000000E+00 0. -1.
         22    1    1    2    0    0  0.50173040803E+02  0.39393812924E+02  0.27538970947E+02  0.69480943005E+02  0.00000000000E+00 0. -1.
         22    1    1    2    0    0 -0.44687831822E+02  0.15573170180E+02 -0.55326457469E+02  0.72804827027E+02  0.00000000000E+00 0. -1.
</event>
<event>
 6    1  0.3624778E-005  0.6713695E+02  0.7818608E-02  0.1402672E+00
          2   -1    0    0  502    0  0.00000000000E+00  0.00000000000E+00  0.11276805085E+03  0.11276805085E+03  0.00000000000E+00 0.  1.
          1   -1    0    0  501    0 -0.00000000000E+00 -0.00000000000E+00 -0.45003733414E+03  0.45003733414E+03  0.00000000000E+00 0.  1.
          2    1    1    2  501    0  0.35660887254E+02  0.13220790512E+02 -0.65062291011E+01  0.38585219951E+02  0.00000000000E+00 0.  1.
          1    1    1    2  502    0 -0.15374975377E+02 -0.15206275132E+02 -0.38574132404E+03  0.38634698102E+03  0.00000000000E+00 0.  1.
         22    1    1    2    0    0  0.80174570234E+01 -0.25737912802E+02 -0.32271400599E+02  0.42049531141E+02  0.00000000000E+00 0. -1.
         22    1    1    2    0    0 -0.28303368900E+02  0.27723397422E+02  0.87249670450E+02  0.95823652871E+02  0.00000000000E+00 0.  1.
</event>
<event>
 6    1  0.3624778E-005  0.4348869E+02  0.7818608E-02  0.1489398E+00
          2   -1    0    0  502    0  0.00000000000E+00  0.00000000000E+00  0.32552159021E+02  0.32552159021E+02  0.00000000000E+00 0. -1.
          1   -1    0    0  501    0 -0.00000000000E+00 -0.00000000000E+00 -0.22428487776E+04  0.22428487776E+04  0.00000000000E+00 0.  1.
          2    1    1    2  501    0  0.22753859834E+02 -0.30685668000E+02 -0.94686558513E+02  0.10210236393E+03  0.00000000000E+00 0. -1.
          1    1    1    2  502    0 -0.16941144400E+02  0.26475268001E+02 -0.20096400220E+04  0.20098858078E+04  0.00000000000E+00 0.  1.
         22    1    1    2    0    0 -0.29966466457E+02  0.24236695280E+02  0.12766699300E+02  0.40600432523E+02  0.00000000000E+00 0. -1.
         22    1    1    2    0    0  0.24153751023E+02 -0.20026295280E+02 -0.11873673732E+03  0.12281233237E+03  0.00000000000E+00 0.  1.
</event>
<event>
 6    1  0.3624778E-005  0.8475303E+02  0.7818608E-02  0.1321157E+00
          2   -1    0    0  502    0  0.00000000000E+00  0.00000000000E+00  0.15041554723E+03  0.15041554723E+03  0.00000000000E+00 0. -1.
          1   -1    0    0  501    0 -0.00000000000E+00 -0.00000000000E+00 -0.76496535024E+03  0.76496535024E+03  0.00000000000E+00 0. -1.
          2    1    1    2  501    0 -0.64437869326E+01  0.40539868539E+02  0.24567773710E+02  0.47839093180E+02  0.00000000000E+00 0. -1.
          1    1    1    2  502    0 -0.11147016615E+02 -0.32875116201E+02 -0.71814278795E+03  0.71898128844E+03  0.00000000000E+00 0. -1.
         22    1    1    2    0    0  0.55083037951E+02 -0.42221817022E+02  0.23738125970E+02  0.73350675029E+02  0.00000000000E+00 0. -1.
         22    1    1    2    0    0 -0.37492234403E+02  0.34557064685E+02  0.55287085256E+02  0.75209840821E+02  0.00000000000E+00 0. -1.
</event>
<event>
 6    1  0.3624778E-005  0.1321881E+03  0.7818608E-02  0.1228067E+00
          2   -1    0    0  502    0  0.00000000000E+00  0.00000000000E+00  0.26740874349E+03  0.26740874349E+03  0.00000000000E+00 0.  1.
          1   -1    0    0  501    0 -0.00000000000E+00 -0.00000000000E+00 -0.77142009517E+03  0.77142009517E+03  0.00000000000E+00 0.  1.
          2    1    1    2  501    0 -0.51885498903E+02 -0.55670963982E+02 -0.17983149000E+03  0.19527090419E+03  0.00000000000E+00 0.  1.
          1    1    1    2  502    0  0.67636131492E+02  0.20471326720E+03 -0.52301509916E+03  0.56570925571E+03  0.00000000000E+00 0.  1.
         22    1    1    2    0    0 -0.76341636637E+00 -0.12317788139E+02 -0.17546460319E+02  0.21452015731E+02  0.00000000000E+00 0. -1.
         22    1    1    2    0    0 -0.14987216223E+02 -0.13672451508E+03  0.21638169780E+03  0.25639666304E+03  0.00000000000E+00 0.  1.
</event>
<event>
 6    1  0.3624778E-005  0.8425837E+02  0.7818608E-02  0.1321134E+00
          2   -1    0    0  502    0  0.00000000000E+00  0.00000000000E+00  0.64310106787E+02  0.64310106787E+02  0.00000000000E+00 0.  1.
          1   -1    0    0  501    0 -0.00000000000E+00 -0.00000000000E+00 -0.79524785744E+03  0.79524785744E+03  0.00000000000E+00 0.  1.
          2    1    1    2  501    0  0.26057510483E+02 -0.14674447170E+02 -0.13463791422E+02  0.32796446938E+02  0.00000000000E+00 0.  1.
          1    1    1    2  502    0  0.20549937648E+02 -0.33145369100E+02 -0.68398844009E+03  0.68509933704E+03  0.00000000000E+00 0.  1.
         22    1    1    2    0    0 -0.51408983200E+02  0.84576056630E+02 -0.14553748138E+02  0.10003901486E+03  0.00000000000E+00 0.  1.
         22    1    1    2    0    0  0.48015350693E+01 -0.36756240360E+02 -0.18931771008E+02  0.41623165400E+02  0.00000000000E+00 0.  1.
</event>
<event>
 6    1  0.3624778E-005  0.1094724E+03  0.7818608E-02  0.1288018E+00
          2   -1    0    0  502    0  0.00000000000E+00  0.00000000000E+00  0.51283946568E+03  0.51283946568E+03  0.00000000000E+00 0. -1.
          1   -1    0    0  501    0 -0.00000000000E+00 -0.00000000000E+00 -0.10028788823E+04  0.10028788823E+04  0.00000000000E+00 0. -1.
          2    1    1    2  501    0 -0.11737677923E+02  0.30247627165E+02  0.61591095793E+00  0.32451061284E+02  0.00000000000E+00 0. -1.
          1    1    1    2  502    0  0.35034752747E+02 -0.28752868654E+02 -0.97792753000E+03  0.97897722919E+03  0.00000000000E+00 0. -1.
         22    1    1    2    0    0 -0.13112110322E+02  0.60483800820E+02  0.17133668276E+03  0.18217155777E+03  0.00000000000E+00 0. -1.
         22    1    1    2    0    0 -0.10184964502E+02 -0.61978559331E+02  0.31593551963E+03  0.32211849975E+03  0.00000000000E+00 0.  1.
</event>
<event>
 6    1  0.3624778E-005  0.6546229E+02  0.7818608E-02  0.1378834E+00
          2   -1    0    0  502    0  0.00000000000E+00  0.00000000000E+00  0.11012648409E+02  0.11012648409E+02  0.00000000000E+00 0.  1.
          1   -1    0    0  501    0 -0.00000000000E+00 -0.00000000000E+00 -0.14434881014E+04  0.14434881014E+04  0.00000000000E+00 0. -1.
          2    1    1    2  501    0 -0.24883196126E+02 -0.38896560673E+01 -0.98085603410E+02  0.10126741070E+03  0.00000000000E+00 0.  1.
          1    1    1    2  502    0  0.23833397372E+02 -0.33243651956E+01 -0.92608126553E+03  0.92639386472E+03  0.00000000000E+00 0. -1.
         22    1    1    2    0    0  0.46663031254E+02  0.35244871030E+02 -0.11868759446E+03  0.13231169449E+03  0.00000000000E+00 0.  1.
         22    1    1    2    0    0 -0.45613232500E+02 -0.28030849768E+02 -0.28962098955E+03  0.29452777985E+03  0.00000000000E+00 0.  1.
</event>
<event>
 6    1  0.3624778E-005  0.2257255E+03  0.7818608E-02  0.1219810E+00
          2   -1    0    0  502    0  0.00000000000E+00  0.00000000000E+00  0.22260753630E+03  0.22260753630E+03  0.00000000000E+00 0.  1.
          1   -1    0    0  501    0 -0.00000000000E+00 -0.00000000000E+00 -0.61975417437E+03  0.61975417437E+03  0.00000000000E+00 0.  1.
          2    1    1    2  501    0  0.15891989240E+03 -0.32316918499E+02  0.33140526850E+02  0.16552404641E+03  0.00000000000E+00 0.  1.
          1    1    1    2  502    0 -0.18253221835E+03  0.12743224237E+02 -0.49946812020E+03  0.53192932199E+03  0.00000000000E+00 0.  1.
         22    1    1    2    0    0  0.16156980421E+02 -0.24237525091E+02  0.90893372852E+02  0.95446900773E+02  0.00000000000E+00 0.  1.
         22    1    1    2    0    0  0.74553455290E+01  0.43811219352E+02 -0.21712417562E+02  0.49461441492E+02  0.00000000000E+00 0.  1.
</event>
<event>
 6    1  0.3624778E-005  0.1853669E+03  0.7818608E-02  0.1203173E+00
          2   -1    0    0  502    0  0.00000000000E+00  0.00000000000E+00  0.15642763341E+04  0.15642763341E+04  0.00000000000E+00 0. -1.
          1   -1    0    0  501    0 -0.00000000000E+00 -0.00000000000E+00 -0.74571384578E+02  0.74571384578E+02  0.00000000000E+00 0. -1.
          2    1    1    2  501    0 -0.56889887703E+02  0.61370854262E+02  0.53721669565E+03  0.54369533671E+03  0.00000000000E+00 0. -1.
          1    1    1    2  502    0 -0.55011368041E+02  0.43416822808E+02 -0.41965459494E+02  0.81684581820E+02  0.00000000000E+00 0. -1.
         22    1    1    2    0    0  0.13290316938E+02 -0.93136127505E+02  0.55669129833E+03  0.56458495588E+03  0.00000000000E+00 0.  1.
         22    1    1    2    0    0  0.98610938807E+02 -0.11651549565E+02  0.43776241505E+03  0.44888284428E+03  0.00000000000E+00 0.  1.
</event>
<event>
 6    1  0.3624778E-005  0.8546871E+02  0.7818608E-02  0.1321541E+00
          2   -1    0    0  502    0  0.00000000000E+00  0.00000000000E+00  0.80671105772E+02  0.80671105772E+02  0.00000000000E+00 0. -1.
          1   -1    0    0  501    0 -0.00000000000E+00 -0.00000000000E+00 -0.13610284751E+03  0.13610284751E+03  0.00000000000E+00 0. -1.
          2    1    1    2  501    0 -0.53324938365E+01 -0.22046694233E+02 -0.36838918031E+02  0.43261970584E+02  0.00000000000E+00 0. -1.
          1    1    1    2  502    0 -0.13846588187E+02  0.40001430969E+02  0.91331785147E+01  0.43304242676E+02  0.00000000000E+00 0. -1.
         22    1    1    2    0    0 -0.46451031649E+02  0.14403474528E+02  0.71364428631E+01  0.49153710302E+02  0.00000000000E+00 0.  1.
         22    1    1    2    0    0  0.65630113672E+02 -0.32358211264E+02 -0.34862445087E+02  0.81054029723E+02  0.00000000000E+00 0. -1.
</event>
<event>
 6    1  0.3624778E-005  0.9242510E+02  0.7818608E-02  0.1386516E+00
          2   -1    0    0  502    0  0.00000000000E+00  0.00000000000E+00  0.10610626717E+03  0.10610626717E+03  0.00000000000E+00 0.  1.
          1   -1    0    0  501    0 -0.00000000000E+00 -0.00000000000E+00 -0.22710982277E+03  0.22710982277E+03  0.00000000000E+00 0.  1.
          2    1    1    2  501    0  0.52751531911E+02  0.39857519277E+02 -0.15522720840E+03  0.16872116699E+03  0.00000000000E+00 0.  1.
          1    1    1    2  502    0 -0.13317467603E+02 -0.20718420072E+02 -0.11950258389E+02  0.27375473497E+02  0.00000000000E+00 0.  1.
         22    1    1    2    0    0 -0.19761515971E+02 -0.19555248285E+02 -0.40008286960E+02  0.48719485572E+02  0.00000000000E+00 0.  1.
         22    1    1    2    0    0 -0.19672548337E+02  0.41614908053E+00  0.86182198147E+02  0.88399963889E+02  0.00000000000E+00 0.  1.
</event>
<event>
 6    1  0.3624778E-005  0.3716954E+03  0.7818608E-02  0.1147258E+00
          2   -1    0    0  502    0  0.00000000000E+00  0.00000000000E+00  0.55399579609E+03  0.55399579609E+03  0.00000000000E+00 0.  1.
          1   -1    0    0  501    0 -0.00000000000E+00 -0.00000000000E+00 -0.19473143321E+03  0.19473143321E+03  0.00000000000E+00 0. -1.
          2    1    1    2  501    0 -0.65131197727E+02 -0.61215181180E+02 -0.29342724760E+02  0.94076388220E+02  0.00000000000E+00 0.  1.
          1    1    1    2  502    0  0.91001069226E+02 -0.45528957672E+02 -0.97100350088E+02  0.14065048373E+03  0.00000000000E+00 0. -1.
         22    1    1    2    0    0  0.22381459008E+01  0.12412686145E+03  0.44260260105E+03  0.45968418451E+03  0.00000000000E+00 0.  1.
         22    1    1    2    0    0 -0.28108017400E+02 -0.17382722599E+02  0.43104836676E+02  0.54316172840E+02  0.00000000000E+00 0.  1.
</event>
<event>
 6    1  0.3624778E-005  0.1709060E+03  0.7818608E-02  0.1289087E+00
          2   -1    0    0  502    0  0.00000000000E+00  0.00000000000E+00  0.13769462343E+03  0.13769462343E+03  0.00000000000E+00 0.  1.
          1   -1    0    0  501    0 -0.00000000000E+00 -0.00000000000E+00 -0.60818148562E+03  0.60818148562E+03  0.00000000000E+00 0. -1.
          2    1    1    2  501    0 -0.11765918676E+02 -0.31288369816E+02  0.98675031096E+01  0.34853501196E+02  0.00000000000E+00 0.  1.
          1    1    1    2  502    0  0.45309073654E+02  0.16270415794E+03 -0.50060295216E+03  0.52832648134E+03  0.00000000000E+00 0. -1.
         22    1    1    2    0    0 -0.13130954210E+02 -0.10745768289E+02  0.53293309018E+02  0.55929154121E+02  0.00000000000E+00 0.  1.
         22    1    1    2    0    0 -0.20412200769E+02 -0.12067001983E+03 -0.33044722154E+02  0.12676697239E+03  0.00000000000E+00 0. -1.
</event>
<event>
 6    1  0.3624778E-005  0.1266702E+03  0.7818608E-02  0.1342168E+00
          2   -1    0    0  502    0  0.00000000000E+00  0.00000000000E+00  0.54037543544E+02  0.54037543544E+02  0.00000000000E+00 0.  1.
          1   -1    0    0  501    0 -0.00000000000E+00 -0.00000000000E+00 -0.51190885659E+03  0.51190885659E+03  0.00000000000E+00 0.  1.
          2    1    1    2  501    0 -0.66549478002E+02 -0.46147651217E+02 -0.18153240368E+03  0.19877739389E+03  0.00000000000E+00 0.  1.
          1    1    1    2  502    0  0.32682057792E+02  0.83578553657E+02 -0.17520438027E+03  0.19685036551E+03  0.00000000000E+00 0.  1.
         22    1    1    2    0    0  0.21076284563E+02 -0.47095252163E+02 -0.12857328326E+03  0.13853974778E+03  0.00000000000E+00 0. -1.
         22    1    1    2    0    0  0.12791135647E+02  0.96643497235E+01  0.27438754173E+02  0.31778892952E+02  0.00000000000E+00 0.  1.
</event>
<event>
 6    1  0.3624778E-005  0.1296230E+03  0.7818608E-02  0.1230980E+00
          2   -1    0    0  502    0  0.00000000000E+00  0.00000000000E+00  0.44695237879E+03  0.44695237879E+03  0.00000000000E+00 0.  1.
          1   -1    0    0  501    0 -0.00000000000E+00 -0.00000000000E+00 -0.95892305723E+03  0.95892305723E+03  0.00000000000E+00 0.  1.
          2    1    1    2  501    0 -0.74941264778E+02  0.99453890024E+02  0.38129779508E+02  0.13023497799E+03  0.00000000000E+00 0.  1.
          1    1    1    2  502    0  0.41412226185E+02 -0.30992533255E+01 -0.89469795599E+03  0.89566121402E+03  0.00000000000E+00 0.  1.
         22    1    1    2    0    0  0.28373839626E+02 -0.11627280278E+03  0.33769636157E+03  0.35827820484E+03  0.00000000000E+00 0.  1.
         22    1    1    2    0    0  0.51551989667E+01  0.19918166081E+02  0.69011364725E+01  0.21701039169E+02  0.00000000000E+00 0.  1.
</event>
<event>
 6    1  0.3624778E-005  0.1187582E+03  0.7818608E-02  0.1349413E+00
          2   -1    0    0  502    0  0.00000000000E+00  0.00000000000E+00  0.22957710822E+02  0.22957710822E+02  0.00000000000E+00 0. -1.
          1   -1    0    0  501    0 -0.00000000000E+00 -0.00000000000E+00 -0.10939749992E+04  0.10939749992E+04  0.00000000000E+00 0. -1.
          2    1    1    2  501    0 -0.40317515569E+02 -0.22018866680E+02 -0.58081226102E+03  0.58262613665E+03  0.00000000000E+00 0. -1.
          1    1    1    2  502    0  0.23866898019E+02 -0.17115626784E+02 -0.31246753714E+03  0.31384476301E+03  0.00000000000E+00 0. -1.
         22    1    1    2    0    0  0.33603213121E+02  0.40072028809E+02 -0.19146103010E+03  0.19847485854E+03  0.00000000000E+00 0. -1.
         22    1    1    2    0    0 -0.17152595570E+02 -0.93753534532E+00  0.13723539834E+02  0.21986951878E+02  0.00000000000E+00 0. -1.
</event>
<event>
 6    1  0.4371556E-005  0.1364209E+03  0.7818608E-02  0.1225450E+00
          2   -1    0    0  502    0  0.00000000000E+00  0.00000000000E+00  0.43311097090E+03  0.43311097090E+03  0.00000000000E+00 0. -1.
          1   -1    0    0  501    0 -0.00000000000E+00 -0.00000000000E+00 -0.85466719804E+03  0.85466719804E+03  0.00000000000E+00 0.  1.
          2    1    1    2  501    0  0.46588639799E+02  0.42303839687E+01 -0.30032713813E+02  0.55591019111E+02  0.00000000000E+00 0. -1.
          1    1    1    2  502    0 -0.47390322122E+02  0.12792506341E+03 -0.78591400937E+03  0.79766628022E+03  0.00000000000E+00 0.  1.
         22    1    1    2    0    0  0.14402013089E+02  0.75858954515E+01  0.42333225471E+00  0.16283212245E+02  0.00000000000E+00 0. -1.
         22    1    1    2    0    0 -0.13600330766E+02 -0.13974134283E+03  0.39396716379E+03  0.41823765736E+03  0.00000000000E+00 0. -1.
</event>
<event>
 6    1  0.3624778E-005  0.8284210E+02  0.7818608E-02  0.1324635E+00
          2   -1    0    0  502    0  0.00000000000E+00  0.00000000000E+00  0.31040007557E+03  0.31040007557E+03  0.00000000000E+00 0. -1.
          1   -1    0    0  501    0 -0.00000000000E+00 -0.00000000000E+00 -0.23362163727E+03  0.23362163727E+03  0.00000000000E+00 0.  1.
          2    1    1    2  501    0  0.10594160938E+02 -0.51137563784E+02  0.36682112424E+02  0.63818994411E+02  0.00000000000E+00 0. -1.
          1    1    1    2  502    0 -0.11430369588E+02  0.28124833307E+02 -0.20301293037E+03  0.20527033272E+03  0.00000000000E+00 0.  1.
         22    1    1    2    0    0  0.29203034834E+02 -0.42062375326E+02  0.62028257930E+02  0.80433608917E+02  0.00000000000E+00 0. -1.
         22    1    1    2    0    0 -0.28366826185E+02  0.65075105802E+02  0.18108099831E+03  0.19449877679E+03  0.00000000000E+00 0. -1.
</event>
<event>
 6    1  0.3624778E-005  0.1210922E+03  0.7818608E-02  0.1242144E+00
          2   -1    0    0  502    0  0.00000000000E+00  0.00000000000E+00  0.13734731959E+03  0.13734731959E+03  0.00000000000E+00 0. -1.
          1   -1    0    0  501    0 -0.00000000000E+00 -0.00000000000E+00 -0.10970679694E+04  0.10970679694E+04  0.00000000000E+00 0. -1.
          2    1    1    2  501    0  0.30191562293E+02  0.61328768891E+02 -0.16695157277E+02  0.70366729381E+02  0.00000000000E+00 0. -1.
          1    1    1    2  502    0  0.56439992401E+02  0.23186555919E+02 -0.98353827825E+03  0.98542916229E+03  0.00000000000E+00 0. -1.
         22    1    1    2    0    0 -0.10792873193E+03 -0.98807426183E+02  0.43847844451E+02  0.15275520321E+03  0.00000000000E+00 0. -1.
         22    1    1    2    0    0  0.21297177240E+02  0.14292101374E+02 -0.33350587422E+01  0.25864194109E+02  0.00000000000E+00 0.  1.
</event>
<event>
 6    1  0.3624778E-005  0.2830297E+03  0.7818608E-02  0.1161054E+00
          2   -1    0    0  502    0  0.00000000000E+00  0.00000000000E+00  0.44532561276E+03  0.44532561276E+03  0.00000000000E+00 0. -1.
          1   -1    0    0  501    0 -0.00000000000E+00 -0.00000000000E+00 -0.21717522193E+03  0.21717522193E+03  0.00000000000E+00 0. -1.
          2    1    1    2  501    0 -0.13951202814E+03 -0.77700746198E+02 -0.10731866684E+03  0.19240142465E+03  0.00000000000E+00 0. -1.
          1    1    1    2  502    0  0.15699579521E+03 -0.24534010700E+02  0.22015629430E+03  0.27151130973E+03  0.00000000000E+00 0. -1.
         22    1    1    2    0    0  0.46990724862E+02  0.26831926772E+02  0.72666629391E+02  0.90600880484E+02  0.00000000000E+00 0. -1.
         22    1    1    2    0    0 -0.64474491932E+02  0.75402830126E+02  0.42646133984E+02  0.10798721982E+03  0.00000000000E+00 0. -1.
</event>
<event>
 6    1  0.3624778E-005  0.1171651E+03  0.7818608E-02  0.1256540E+00
          2   -1    0    0  502    0  0.00000000000E+00  0.00000000000E+00  0.10072150032E+04  0.10072150032E+04  0.00000000000E+00 0.  1.
          1   -1    0    0  501    0 -0.00000000000E+00 -0.00000000000E+00 -0.15884861880E+02  0.15884861880E+02  0.00000000000E+00 0.  1.
          2    1    1    2  501    0 -0.58184177357E+02 -0.15844386895E+02  0.14404130723E+03  0.15615486313E+03  0.00000000000E+00 0.  1.
          1    1    1    2  502    0 -0.14884733136E+02  0.23005499771E+02  0.59732590774E+02  0.65717506806E+02  0.00000000000E+00 0.  1.
         22    1    1    2    0    0 -0.20929444675E+02 -0.42039457703E+02  0.26878249554E+03  0.27285415072E+03  0.00000000000E+00 0. -1.
         22    1    1    2    0    0  0.93998355168E+02  0.34878344827E+02  0.51877374782E+03  0.52837334446E+03  0.00000000000E+00 0.  1.
</event>
<event>
 6    1  0.3624778E-005  0.2303181E+03  0.7818608E-02  0.1229318E+00
          2   -1    0    0  502    0  0.00000000000E+00  0.00000000000E+00  0.32609330220E+02  0.32609330220E+02  0.00000000000E+00 0.  1.
          1   -1    0    0  501    0 -0.00000000000E+00 -0.00000000000E+00 -0.15051810066E+04  0.15051810066E+04  0.00000000000E+00 0.  1.
          2    1    1    2  501    0 -0.85013684267E+02 -0.37345235655E+02 -0.28699883175E+03  0.30164602196E+03  0.00000000000E+00 0.  1.
          1    1    1    2  502    0 -0.30515972552E+02  0.13646486295E+03 -0.65090047820E+03  0.66575169239E+03  0.00000000000E+00 0.  1.
         22    1    1    2    0    0  0.93540101454E+02 -0.94389005503E+02 -0.53127801939E+03  0.54764529471E+03  0.00000000000E+00 0.  1.
         22    1    1    2    0    0  0.21989555366E+02 -0.47306217939E+01 -0.33943470349E+01  0.22747327745E+02  0.00000000000E+00 0.  1.
</event>
<event>
 6    1  0.3624778E-005  0.1648651E+03  0.7818608E-02  0.1263302E+00
          2   -1    0    0  502    0  0.00000000000E+00  0.00000000000E+00  0.28850409984E+02  0.28850409984E+02  0.00000000000E+00 0. -1.
          1   -1    0    0  501    0 -0.00000000000E+00 -0.00000000000E+00 -0.31319785606E+04  0.31319785606E+04  0.00000000000E+00 0.  1.
          2    1    1    2  501    0  0.10902012071E+03 -0.35212698939E+02 -0.52477334970E+03  0.53713349313E+03  0.00000000000E+00 0. -1.
          1    1    1    2  502    0 -0.15232280935E+03  0.44034297197E+02 -0.23718810495E+04  0.23771749979E+04  0.00000000000E+00 0.  1.
         22    1    1    2    0    0  0.39463334104E+02 -0.39552463877E+02 -0.20813724233E+03  0.21550606438E+03  0.00000000000E+00 0. -1.
         22    1    1    2    0    0  0.38393545363E+01  0.30730865619E+02  0.16634909628E+01  0.31014415150E+02  0.00000000000E+00 0. -1.
</event>
<event>
 6    1  0.3624778E-005  0.1536473E+03  0.7818608E-02  0.1303635E+00
          2   -1    0    0  502    0  0.00000000000E+00  0.00000000000E+00  0.92695483652E+02  0.92695483652E+02  0.00000000000E+00 0. -1.
          1   -1    0    0  501    0 -0.00000000000E+00 -0.00000000000E+00 -0.39957611489E+03  0.39957611489E+03  0.00000000000E+00 0. -1.
          2    1    1    2  501    0 -0.76481426018E+02  0.58276761655E+02 -0.77818018807E+02  0.12369815490E+03  0.00000000000E+00 0. -1.
          1    1    1    2  502    0  0.72579286697E+02 -0.10449159802E+03 -0.19191787293E+03  0.23025793550E+03  0.00000000000E+00 0. -1.
         22    1    1    2    0    0 -0.17020426848E+02  0.53123197036E+01  0.42657034431E+02  0.46233518763E+02  0.00000000000E+00 0. -1.
         22    1    1    2    0    0  0.20922566170E+02  0.40902516658E+02 -0.79801773938E+02  0.92081989377E+02  0.00000000000E+00 0. -1.
</event>
<event>
 6    1  0.3624778E-005  0.1675888E+03  0.7818608E-02  0.1265375E+00
          2   -1    0    0  502    0  0.00000000000E+00  0.00000000000E+00  0.26106620188E+03  0.26106620188E+03  0.00000000000E+00 0.  1.
          1   -1    0    0  501    0 -0.00000000000E+00 -0.00000000000E+00 -0.10666943702E+03  0.10666943702E+03  0.00000000000E+00 0.  1.
          2    1    1    2  501    0  0.45946613891E+02 -0.80291020913E+02  0.39456400007E+02  0.10057110355E+03  0.00000000000E+00 0.  1.
          1    1    1    2  502    0 -0.70035436668E+01  0.10709082705E+03  0.45374779691E+02  0.11651766172E+03  0.00000000000E+00 0.  1.
         22    1    1    2    0    0 -0.64389489187E+02 -0.14380927555E+02 -0.95071094006E+01  0.66657351615E+02  0.00000000000E+00 0. -1.
         22    1    1    2    0    0  0.25446418963E+02 -0.12418878580E+02  0.79072694560E+02  0.83989522014E+02  0.00000000000E+00 0.  1.
</event>
<event>
 6    1  0.4006097E-005  0.1258900E+03  0.7818608E-02  0.1242935E+00
          2   -1    0    0  502    0  0.00000000000E+00  0.00000000000E+00  0.60530199917E+03  0.60530199917E+03  0.00000000000E+00 0. -1.
          1   -1    0    0  501    0 -0.00000000000E+00 -0.00000000000E+00 -0.98338525364E+02  0.98338525364E+02  0.00000000000E+00 0. -1.
          2    1    1    2  501    0 -0.10455630273E+03  0.41043466039E+01 -0.44177244754E+02  0.11358034625E+03  0.00000000000E+00 0. -1.
          1    1    1    2  502    0 -0.63407733697E+01 -0.33372086924E+02  0.14822390283E+03  0.15206652150E+03  0.00000000000E+00 0. -1.
         22    1    1    2    0    0  0.99709520301E+02  0.34217133410E+02  0.41035313329E+03  0.42367734735E+03  0.00000000000E+00 0. -1.
         22    1    1    2    0    0  0.11187555796E+02 -0.49493930898E+01 -0.74363175615E+01  0.14316309424E+02  0.00000000000E+00 0. -1.
</event>
<event>
 6    1  0.3624778E-005  0.1631874E+03  0.7818608E-02  0.1264095E+00
          2   -1    0    0  502    0  0.00000000000E+00  0.00000000000E+00  0.73924212410E+02  0.73924212410E+02  0.00000000000E+00 0. -1.
          1   -1    0    0  501    0 -0.00000000000E+00 -0.00000000000E+00 -0.39978029426E+03  0.39978029426E+03  0.00000000000E+00 0. -1.
          2    1    1    2  501    0  0.15784299349E+02  0.17721353751E+02 -0.70572552491E+02  0.74455863771E+02  0.00000000000E+00 0. -1.
          1    1    1    2  502    0  0.23786454550E+02 -0.12187236995E+03 -0.18070945593E+03  0.21925915588E+03  0.00000000000E+00 0. -1.
         22    1    1    2    0    0 -0.17403180952E+02 -0.26188469192E+02 -0.17496680003E+02  0.35983891355E+02  0.00000000000E+00 0. -1.
         22    1    1    2    0    0 -0.22167572946E+02  0.13033948539E+03 -0.57077393422E+02  0.14400559566E+03  0.00000000000E+00 0. -1.
</event>
<event>
 6    1  0.3624778E-005  0.7610387E+02  0.7818608E-02  0.1342642E+00
          2   -1    0    0  502    0  0.00000000000E+00  0.00000000000E+00  0.23324014008E+03  0.23324014008E+03  0.00000000000E+00 0. -1.
          1   -1    0    0  501    0 -0.00000000000E+00 -0.00000000000E+00 -0.18773848272E+04  0.18773848272E+04  0.00000000000E+00 0.  1.
          2    1    1    2  501    0 -0.20784654975E+02 -0.24281999597E+02  0.45414844591E+02  0.55534903403E+02  0.00000000000E+00 0. -1.
          1    1    1    2  502    0  0.19140781182E+01  0.28163717341E+02 -0.18519347452E+04  0.18521498749E+04  0.00000000000E+00 0.  1.
         22    1    1    2    0    0  0.67165406609E+02  0.15789424209E+02  0.10224953342E+03  0.12335098235E+03  0.00000000000E+00 0.  1.
         22    1    1    2    0    0 -0.48294829753E+02 -0.19671141953E+02  0.60125680067E+02  0.79589206618E+02  0.00000000000E+00 0.  1.
</event>
<event>
 6    1  0.3624778E-005  0.2024815E+03  0.7818608E-02  0.1149339E+00
          2   -1    0    0  502    0  0.00000000000E+00  0.00000000000E+00  0.31163359341E+03  0.31163359341E+03  0.00000000000E+00 0.  1.
          1   -1    0    0  501    0 -0.00000000000E+00 -0.00000000000E+00 -0.11471340220E+04  0.11471340220E+04  0.00000000000E+00 0. -1.
          2    1    1    2  501    0  0.82523475498E+02 -0.13761564421E+03  0.47555627545E+01  0.16053287799E+03  0.00000000000E+00 0.  1.
          1    1    1    2  502    0  0.42871521159E+02 -0.20643154771E+02 -0.10073088575E+04  0.10084320709E+04  0.00000000000E+00 0. -1.
         22    1    1    2    0    0  0.12804686970E+02  0.37324954098E+00 -0.92015226067E+01  0.15772360062E+02  0.00000000000E+00 0. -1.
         22    1    1    2    0    0 -0.13819968363E+03  0.15788554944E+03  0.17625438880E+03  0.27403030644E+03  0.00000000000E+00 0.  1.
</event>
<event>
 6    1  0.3624778E-005  0.2222578E+03  0.7818608E-02  0.1134593E+00
          2   -1    0    0  502    0  0.00000000000E+00  0.00000000000E+00  0.15059594467E+03  0.15059594467E+03  0.00000000000E+00 0.  1.
          1   -1    0    0  501    0 -0.00000000000E+00 -0.00000000000E+00 -0.86763544333E+03  0.86763544333E+03  0.00000000000E+00 0.  1.
          2    1    1    2  501    0  0.10998861154E+03 -0.18370975192E+03 -0.12338625256E+03  0.24712534257E+03  0.00000000000E+00 0.  1.
          1    1    1    2  502    0 -0.20066672064E+02  0.13038927452E+02 -0.53131674819E+03  0.53185540503E+03  0.00000000000E+00 0.  1.
         22    1    1    2    0    0  0.15219896761E+02 -0.19370993052E+01 -0.31184337741E+02  0.34754287958E+02  0.00000000000E+00 0. -1.
         22    1    1    2    0    0 -0.10514183624E+03  0.17260792377E+03 -0.31152160173E+02  0.20449635243E+03  0.00000000000E+00 0.  1.
</event>
<event>
 6    1  0.3624778E-005  0.1895554E+03  0.7818608E-02  0.1234964E+00
          2   -1    0    0  502    0  0.00000000000E+00  0.00000000000E+00  0.56256545726E+02  0.56256545726E+02  0.00000000000E+00 0.  1.
          1   -1    0    0  501    0 -0.00000000000E+00 -0.00000000000E+00 -0.58103210428E+03  0.58103210428E+03  0.00000000000E+00 0.  1.
          2    1    1    2  501    0 -0.58918693565E+02 -0.19315122752E+02 -0.13100448749E+03  0.14493675228E+03  0.00000000000E+00 0.  1.
          1    1    1    2  502    0 -0.26151820481E+02  0.60387790822E+02 -0.30504870883E+03  0.31206620732E+03  0.00000000000E+00 0.  1.
         22    1    1    2    0    0 -0.23751744752E+01  0.35843679816E+02 -0.40775932025E+02  0.54342317480E+02  0.00000000000E+00 0. -1.
         22    1    1    2    0    0  0.87445688522E+02 -0.76916347885E+02 -0.47946430205E+02  0.12594337292E+03  0.00000000000E+00 0.  1.
</event>
<event>
 6    1  0.3624778E-005  0.2377526E+03  0.7818608E-02  0.1188571E+00
          2   -1    0    0  502    0  0.00000000000E+00  0.00000000000E+00  0.27255679719E+03  0.27255679719E+03  0.00000000000E+00 0. -1.
          1   -1    0    0  501    0 -0.00000000000E+00 -0.00000000000E+00 -0.14798957068E+03  0.14798957068E+03  0.00000000000E+00 0. -1.
          2    1    1    2  501    0 -0.22306856353E+01 -0.89791728581E+02 -0.62628393741E+02  0.10949815607E+03  0.00000000000E+00 0. -1.
          1    1    1    2  502    0 -0.44167744146E+02  0.49774439792E+02 -0.12053926544E+02  0.67628260547E+02  0.00000000000E+00 0. -1.
         22    1    1    2    0    0  0.24923557390E+02 -0.42072243744E+02  0.10942768790E+03  0.11985689920E+03  0.00000000000E+00 0. -1.
         22    1    1    2    0    0  0.21474872391E+02  0.82089532533E+02  0.89821858895E+02  0.12356305205E+03  0.00000000000E+00 0. -1.
</event>
<event>
 6    1  0.3624778E-005  0.1150779E+03  0.7818608E-02  0.1336378E+00
          2   -1    0    0  502    0  0.00000000000E+00  0.00000000000E+00  0.79765252405E+02  0.79765252405E+02  0.00000000000E+00 0.  1.
          1   -1    0    0  501    0 -0.00000000000E+00 -0.00000000000E+00 -0.44806161509E+03  0.44806161509E+03  0.00000000000E+00 0.  1.
          2    1    1    2  501    0 -0.22549924381E+02 -0.88600161186E+02 -0.25957924322E+03  0.27520877741E+03  0.00000000000E+00 0.  1.
          1    1    1    2  502    0  0.15667438441E+02  0.93761948771E+02 -0.19635695538E+02  0.97068698374E+02  0.00000000000E+00 0.  1.
         22    1    1    2    0    0 -0.53975179478E+01 -0.25361206745E+02 -0.11649806115E+03  0.11934874217E+03  0.00000000000E+00 0. -1.
         22    1    1    2    0    0  0.12280003888E+02  0.20199419160E+02  0.27416637226E+02  0.36200649533E+02  0.00000000000E+00 0.  1.
</event>
<event>
 6    1  0.3624778E-005  0.1739114E+03  0.7818608E-02  0.1276299E+00
          2   -1    0    0  502    0  0.00000000000E+00  0.00000000000E+00  0.41937632365E+02  0.41937632365E+02  0.00000000000E+00 0. -1.
          1   -1    0    0  501    0 -0.00000000000E+00 -0.00000000000E+00 -0.86256815582E+03  0.86256815582E+03  0.00000000000E+00 0.  1.
          2    1    1    2  501    0 -0.75932149349E+02 -0.74735294966E+01 -0.72921111081E+02  0.10554161923E+03  0.00000000000E+00 0. -1.
          1    1    1    2  502    0  0.20216282952E+02 -0.32270564517E+02 -0.56183677987E+03  0.56312578936E+03  0.00000000000E+00 0.  1.
         22    1    1    2    0    0 -0.20382469814E+02 -0.23584472927E+01  0.90261143273E+01  0.22416023046E+02  0.00000000000E+00 0. -1.
         22    1    1    2    0    0  0.76098336211E+02  0.42102541307E+02 -0.19489874683E+03  0.21342235655E+03  0.00000000000E+00 0.  1.
</event>
<event>
 6    1  0.3624778E-005  0.1801370E+03  0.7818608E-02  0.1243729E+00
          2   -1    0    0  502    0  0.00000000000E+00  0.00000000000E+00  0.40645648491E+03  0.40645648491E+03  0.00000000000E+00 0. -1.
          1   -1    0    0  501    0 -0.00000000000E+00 -0.00000000000E+00 -0.11532923936E+03  0.11532923936E+03  0.00000000000E+00 0. -1.
          2    1    1    2  501    0  0.45218726492E+02  0.60917271958E+02  0.43033193528E+02  0.87221000874E+02  0.00000000000E+00 0. -1.
          1    1    1    2  502    0 -0.11372971614E+03 -0.14319603683E+03  0.18706313566E+03  0.26159543195E+03  0.00000000000E+00 0. -1.
         22    1    1    2    0    0 -0.55918539650E+01  0.34575245594E+02  0.75902374760E+02  0.83593581888E+02  0.00000000000E+00 0. -1.
         22    1    1    2    0    0  0.74102843615E+02  0.47703519277E+02 -0.14871458404E+02  0.89375709554E+02  0.00000000000E+00 0. -1.
</event>
<event>
 6    1  0.3624778E-005  0.9655047E+02  0.7818608E-02  0.1292274E+00
          2   -1    0    0  502    0  0.00000000000E+00  0.00000000000E+00  0.61672261609E+03  0.61672261609E+03  0.00000000000E+00 0. -1.
          1   -1    0    0  501    0 -0.00000000000E+00 -0.00000000000E+00 -0.12967243351E+03  0.12967243351E+03  0.00000000000E+00 0.  1.
          2    1    1    2  501    0 -0.24483936302E+02 -0.61916084372E+02  0.58243669315E+02  0.88461232504E+02  0.00000000000E+00 0. -1.
          1    1    1    2  502    0  0.20481805758E+02  0.27168683981E+01 -0.10465288637E+03  0.10667292237E+03  0.00000000000E+00 0.  1.
         22    1    1    2    0    0 -0.80467366750E+01  0.88087547982E+02  0.48871474511E+03  0.49665507968E+03  0.00000000000E+00 0. -1.
         22    1    1    2    0    0  0.12048867220E+02 -0.28888332009E+02  0.44744654536E+02  0.54605815048E+02  0.00000000000E+00 0. -1.
</event>
<event>
 6    1  0.3624778E-005  0.1283414E+03  0.7818608E-02  0.1271477E+00
          2   -1    0    0  502    0  0.00000000000E+00  0.00000000000E+00  0.18341820039E+03  0.18341820039E+03  0.00000000000E+00 0.  1.
          1   -1    0    0  501    0 -0.00000000000E+00 -0.00000000000E+00 -0.21945958261E+03  0.21945958261E+03  0.00000000000E+00 0. -1.
          2    1    1    2  501    0  0.62560287064E+02  0.38665368277E+02 -0.44431364639E+01  0.73678637902E+02  0.00000000000E+00 0.  1.
          1    1    1    2  502    0 -0.86142209898E+02 -0.10386545976E+03 -0.10293952361E+03  0.16972053376E+03  0.00000000000E+00 0. -1.
         22    1    1    2    0    0  0.42932676486E+02  0.12638636484E+02 -0.22577253954E+02  0.50126661954E+02  0.00000000000E+00 0. -1.
         22    1    1    2    0    0 -0.19350753652E+02  0.52561455002E+02  0.93918531805E+02  0.10935194939E+03  0.00000000000E+00 0.  1.
</event>
<event>
 6    1  0.4054448E-005  0.1949657E+03  0.7818608E-02  0.1154598E+00
          2   -1    0    0  502    0  0.00000000000E+00  0.00000000000E+00  0.13369282788E+04  0.13369282788E+04  0.00000000000E+00 0.  1.
          1   -1    0    0  501    0 -0.00000000000E+00 -0.00000000000E+00 -0.69167466177E+03  0.69167466177E+03  0.00000000000E+00 0.  1.
          2    1    1    2  501    0 -0.37491888876E+02 -0.18985377142E+03  0.26727154102E+03  0.32997601866E+03  0.00000000000E+00 0.  1.
          1    1    1    2  502    0  0.74417799592E+01  0.22988807706E+02 -0.64945486237E+03  0.64990421112E+03  0.00000000000E+00 0.  1.
         22    1    1    2    0    0 -0.65912601496E+00 -0.18067999809E+02  0.43864172041E+02  0.47444205685E+02  0.00000000000E+00 0. -1.
         22    1    1    2    0    0  0.30709234931E+02  0.18493296352E+03  0.98357276632E+03  0.10012785051E+04  0.00000000000E+00 0.  1.
</event>
<event>
 6    1  0.3624778E-005  0.6948179E+02  0.7818608E-02  0.1364227E+00
          2   -1    0    0  502    0  0.00000000000E+00  0.00000000000E+00  0.22127991754E+03  0.22127991754E+03  0.00000000000E+00 0. -1.
          1   -1    0    0  501    0 -0.00000000000E+00 -0.00000000000E+00 -0.19781189815E+04  0.19781189815E+04  0.00000000000E+00 0. -1.
          2    1    1    2  501    0 -0.45903158601E+02  0.24820167744E+02 -0.34640238353E+02  0.62634549647E+02  0.00000000000E+00 0. -1.
          1    1    1    2  502    0  0.15667740474E+00 -0.61081072103E+02 -0.19055798190E+04  0.19065585143E+04  0.00000000000E+00 0. -1.
         22    1    1    2    0    0  0.65800251368E+02  0.16362656967E+02  0.18953037473E+03  0.20129374697E+03  0.00000000000E+00 0. -1.
         22    1    1    2    0    0 -0.20053770172E+02  0.19898247392E+02 -0.61493813294E+01  0.28912088097E+02  0.00000000000E+00 0. -1.
</event>
<event>
 6    1  0.3624778E-005  0.1653798E+03  0.7818608E-02  0.1238089E+00
          2   -1    0    0  502    0  0.00000000000E+00  0.00000000000E+00  0.52876097029E+03  0.52876097029E+03  0.00000000000E+00 0. -1.
          1   -1    0    0  501    0 -0.00000000000E+00 -0.00000000000E+00 -0.30718654910E+03  0.30718654910E+03  0.00000000000E+00 0. -1.
          2    1    1    2  501    0  0.67809031466E+02 -0.97269960285E+02  0.25131969954E+03  0.27788684981E+03  0.00000000000E+00 0. -1.
          1    1    1    2  502    0 -0.10236502870E+03  0.12059927801E+03 -0.25364773997E+03  0.29893136495E+03  0.00000000000E+00 0. -1.
         22    1    1    2    0    0  0.93039407062E+01  0.49886281357E+02  0.11288231199E+03  0.12376437589E+03  0.00000000000E+00 0. -1.
         22    1    1    2    0    0  0.25252056526E+02 -0.73215599084E+02  0.11102014963E+03  0.13536492874E+03  0.00000000000E+00 0. -1.
</event>
<event>
 6    1  0.3624778E-005  0.7762367E+02  0.7818608E-02  0.1343984E+00
          2   -1    0    0  502    0  0.00000000000E+00  0.00000000000E+00  0.53470257083E+03  0.53470257083E+03  0.00000000000E+00 0. -1.
          1   -1    0    0  501    0 -0.00000000000E+00 -0.00000000000E+00 -0.19125935455E+03  0.19125935455E+03  0.00000000000E+00 0.  1.
          2    1    1    2  501    0 -0.57884507639E+01  0.20343408409E+02  0.43422678219E+02  0.48299993910E+02  0.00000000000E+00 0. -1.
          1    1    1    2  502    0 -0.48894845333E+02 -0.70458395992E+00 -0.17585499562E+03  0.18252720845E+03  0.00000000000E+00 0.  1.
         22    1    1    2    0    0 -0.38436417675E+02  0.49121661506E+01  0.17434874332E+03  0.17860283278E+03  0.00000000000E+00 0. -1.
         22    1    1    2    0    0  0.93119713772E+02 -0.24550990600E+02  0.30152679036E+03  0.31653189024E+03  0.00000000000E+00 0. -1.
</event>
<event>
 6    1  0.3624778E-005  0.3244179E+03  0.7818608E-02  0.1128995E+00
          2   -1    0    0  502    0  0.00000000000E+00  0.00000000000E+00  0.28728173987E+03  0.28728173987E+03  0.00000000000E+00 0. -1.
          1   -1    0    0  501    0 -0.00000000000E+00 -0.00000000000E+00 -0.26270596334E+04  0.26270596334E+04  0.00000000000E+00 0.  1.
          2    1    1    2  501    0 -0.13703264815E+02  0.23514751244E+03 -0.48180092501E+03  0.53629680534E+03  0.00000000000E+00 0. -1.
          1    1    1    2  502    0  0.75574127845E+02 -0.31666686756E+03 -0.20788042802E+04  0.21041427208E+04  0.00000000000E+00 0.  1.
         22    1    1    2    0    0 -0.55901218339E+02  0.53438767435E+02  0.23087758865E+03  0.24348533635E+03  0.00000000000E+00 0. -1.
         22    1    1    2    0    0 -0.59696446905E+01  0.28080587688E+02 -0.10050276887E+02  0.30416510782E+02  0.00000000000E+00 0. -1.
</event>
<event>
 6    1  0.3624778E-005  0.6001192E+02  0.7818608E-02  0.1402975E+00
          2   -1    0    0  502    0  0.00000000000E+00  0.00000000000E+00  0.77203166660E+02  0.77203166660E+02  0.00000000000E+00 0.  1.
          1   -1    0    0  501    0 -0.00000000000E+00 -0.00000000000E+00 -0.32644380993E+03  0.32644380993E+03  0.00000000000E+00 0.  1.
          2    1    1    2  501    0 -0.33010601628E+02 -0.26929403423E+02 -0.15221561438E+03  0.15806481535E+03  0.00000000000E+00 0.  1.
          1    1    1    2  502    0  0.54412815595E+02 -0.29468410726E+02 -0.83761510106E+02  0.10413996498E+03  0.00000000000E+00 0.  1.
         22    1    1    2    0    0  0.63405024432E+00  0.55272972043E+02  0.49941749849E+02  0.74496186723E+02  0.00000000000E+00 0.  1.
         22    1    1    2    0    0 -0.22036264211E+02  0.11248421058E+01 -0.63205268632E+02  0.66946009538E+02  0.00000000000E+00 0.  1.
</event>
<event>
 6    1  0.3624778E-005  0.2908300E+03  0.7818608E-02  0.1196375E+00
          2   -1    0    0  502    0  0.00000000000E+00  0.00000000000E+00  0.59431582416E+02  0.59431582416E+02  0.00000000000E+00 0.  1.
          1   -1    0    0  501    0 -0.00000000000E+00 -0.00000000000E+00 -0.81274901903E+03  0.81274901903E+03  0.00000000000E+00 0.  1.
          2    1    1    2  501    0 -0.92598123332E+02 -0.12741018347E+02 -0.50240553477E+03  0.51102648402E+03  0.00000000000E+00 0.  1.
          1    1    1    2  502    0 -0.18886807652E+02 -0.22677778965E+02 -0.17145804191E+03  0.17397946229E+03  0.00000000000E+00 0.  1.
         22    1    1    2    0    0 -0.94978797410E+01  0.20398406297E+02  0.19796966984E+02  0.29970395406E+02  0.00000000000E+00 0. -1.
         22    1    1    2    0    0  0.12098281072E+03  0.15020391015E+02 -0.99250826918E+02  0.15720425974E+03  0.00000000000E+00 0.  1.
</event>
<event>
 6    1  0.3624778E-005  0.8592531E+02  0.7818608E-02  0.1393508E+00
          2   -1    0    0  502    0  0.00000000000E+00  0.00000000000E+00  0.10116070351E+03  0.10116070351E+03  0.00000000000E+00 0.  1.
          1   -1    0    0  501    0 -0.00000000000E+00 -0.00000000000E+00 -0.21969123668E+03  0.21969123668E+03  0.00000000000E+00 0.  1.
          2    1    1    2  501    0  0.78430139903E+01 -0.18443110432E+02 -0.96564183422E+02  0.98622019401E+02  0.00000000000E+00 0.  1.
          1    1    1    2  502    0 -0.75378905337E+02 -0.53245103485E+01 -0.16256227867E+02  0.77295502617E+02  0.00000000000E+00 0.  1.
         22    1    1    2    0    0  0.50735175505E+02  0.97414134176E+01 -0.64245964915E+02  0.82440870791E+02  0.00000000000E+00 0.  1.
         22    1    1    2    0    0  0.16800715842E+02  0.14026207363E+02  0.58535843025E+02  0.62493547382E+02  0.00000000000E+00 0.  1.
</event>
<event>
 6    1  0.3624778E-005  0.7187929E+02  0.7818608E-02  0.1356913E+00
          2   -1    0    0  502    0  0.00000000000E+00  0.00000000000E+00  0.78356886078E+02  0.78356886078E+02  0.00000000000E+00 0.  1.
          1   -1    0    0  501    0 -0.00000000000E+00 -0.00000000000E+00 -0.31643768770E+03  0.31643768770E+03  0.00000000000E+00 0.  1.
          2    1    1    2  501    0 -0.27898947582E+01  0.21064526427E+02  0.20972235730E+01  0.21351724358E+02  0.00000000000E+00 0.  1.
          1    1    1    2  502    0  0.10496180924E+02 -0.27523712140E+02 -0.24776424082E+03  0.24950920538E+03  0.00000000000E+00 0.  1.
         22    1    1    2    0    0  0.24963536926E+02  0.53596381012E+02  0.24709005766E+02  0.64080302742E+02  0.00000000000E+00 0.  1.
         22    1    1    2    0    0 -0.32669823092E+02 -0.47137195299E+02 -0.17122790141E+02  0.59853341291E+02  0.00000000000E+00 0.  1.
</event>
<event>
 6    1  0.3624778E-005  0.2393663E+03  0.7818608E-02  0.1177014E+00
          2   -1    0    0  502    0  0.00000000000E+00  0.00000000000E+00  0.14462465041E+03  0.14462465041E+03  0.00000000000E+00 0.  1.
          1   -1    0    0  501    0 -0.00000000000E+00 -0.00000000000E+00 -0.38947142500E+03  0.38947142500E+03  0.00000000000E+00 0.  1.
          2    1    1    2  501    0  0.69787243568E+02  0.10805098317E+03 -0.14894445362E+03  0.19679869052E+03  0.00000000000E+00 0.  1.
          1    1    1    2  502    0 -0.53638342124E+02 -0.90279401006E+02 -0.16385675120E+03  0.19461879895E+03  0.00000000000E+00 0.  1.
         22    1    1    2    0    0  0.20494246003E+02 -0.58573573959E+02  0.99403672805E+01  0.62846547934E+02  0.00000000000E+00 0.  1.
         22    1    1    2    0    0 -0.36643147446E+02  0.40801991800E+02  0.58014062956E+02  0.79832037994E+02  0.00000000000E+00 0. -1.
</event>
<event>
 6    1  0.3624778E-005  0.1418720E+03  0.7818608E-02  0.1293305E+00
          2   -1    0    0  502    0  0.00000000000E+00  0.00000000000E+00  0.91089875839E+02  0.91089875839E+02  0.00000000000E+00 0. -1.
          1   -1    0    0  501    0 -0.00000000000E+00 -0.00000000000E+00 -0.19089902275E+04  0.19089902275E+04  0.00000000000E+00 0. -1.
          2    1    1    2  501    0 -0.49891714611E+02  0.94871644295E+02 -0.72649887343E+02  0.12949061051E+03  0.00000000000E+00 0. -1.
          1    1    1    2  502    0  0.23331698939E+02 -0.12062803013E+03 -0.17356484177E+04  0.17399916436E+04  0.00000000000E+00 0. -1.
         22    1    1    2    0    0  0.10651761815E+01  0.15683530458E+02 -0.66023799835E+02  0.67869358863E+02  0.00000000000E+00 0. -1.
         22    1    1    2    0    0  0.25494839491E+02  0.10072855382E+02  0.56421753282E+02  0.62728490334E+02  0.00000000000E+00 0. -1.
</event>
<event>
 6    1  0.3624778E-005  0.7570148E+02  0.7818608E-02  0.1391556E+00
          2   -1    0    0  502    0  0.00000000000E+00  0.00000000000E+00  0.31442017378E+02  0.31442017378E+02  0.00000000000E+00 0. -1.
          1   -1    0    0  501    0 -0.00000000000E+00 -0.00000000000E+00 -0.34335446437E+03  0.34335446437E+03  0.00000000000E+00 0. -1.
          2    1    1    2  501    0 -0.11295728920E+02  0.16657871801E+02 -0.40292189611E+02  0.45039302042E+02  0.00000000000E+00 0. -1.
          1    1    1    2  502    0 -0.21075201532E+02  0.34288623068E+00 -0.15345785858E+03  0.15489866381E+03  0.00000000000E+00 0. -1.
         22    1    1    2    0    0  0.28715693183E+02 -0.49920518003E+02 -0.12795600862E+03  0.14031888432E+03  0.00000000000E+00 0. -1.
         22    1    1    2    0    0  0.36552372696E+01  0.32919759971E+02  0.97936098246E+01  0.34539631577E+02  0.00000000000E+00 0. -1.
</event>
<event>
 6    1  0.3624778E-005  0.1140172E+03  0.7818608E-02  0.1316851E+00
          2   -1    0    0  502    0  0.00000000000E+00  0.00000000000E+00  0.44273616335E+03  0.44273616335E+03  0.00000000000E+00 0. -1.
          1   -1    0    0  501    0 -0.00000000000E+00 -0.00000000000E+00 -0.33868602684E+02  0.33868602684E+02  0.00000000000E+00 0. -1.
          2    1    1    2  501    0  0.21455946877E+02 -0.51714280645E+02  0.13893723591E+03  0.14979412539E+03  0.00000000000E+00 0. -1.
          1    1    1    2  502    0 -0.30416904518E+02  0.20426157095E+02  0.11394728420E+02  0.38369985795E+02  0.00000000000E+00 0. -1.
         22    1    1    2    0    0  0.35963975741E+02  0.52488684166E+02  0.24220546379E+03  0.25042355362E+03  0.00000000000E+00 0. -1.
         22    1    1    2    0    0 -0.27003018100E+02 -0.21200560616E+02  0.16330132544E+02  0.38017101229E+02  0.00000000000E+00 0. -1.
</event>
<event>
 6    1  0.3624778E-005  0.1343640E+03  0.7818608E-02  0.1336807E+00
          2   -1    0    0  502    0  0.00000000000E+00  0.00000000000E+00  0.13150702346E+03  0.13150702346E+03  0.00000000000E+00 0. -1.
          1   -1    0    0  501    0 -0.00000000000E+00 -0.00000000000E+00 -0.39555979862E+03  0.39555979862E+03  0.00000000000E+00 0.  1.
          2    1    1    2  501    0 -0.35723292532E+02 -0.40017611225E+02 -0.19286312053E+02  0.57004602183E+02  0.00000000000E+00 0. -1.
          1    1    1    2  502    0  0.77621276877E+02 -0.30097209097E+02 -0.29754345380E+03  0.30897089106E+03  0.00000000000E+00 0.  1.
         22    1    1    2    0    0 -0.56400777638E+02  0.67476210601E+02 -0.17173278037E+02  0.89604733099E+02  0.00000000000E+00 0. -1.
         22    1    1    2    0    0  0.14502793292E+02  0.26386097214E+01  0.69950268734E+02  0.71486595740E+02  0.00000000000E+00 0. -1.
</event>
<event>
 6    1  0.3624778E-005  0.1471535E+03  0.7818608E-02  0.1206479E+00
          2   -1    0    0  502    0  0.00000000000E+00  0.00000000000E+00  0.58745948723E+03  0.58745948723E+03  0.00000000000E+00 0.  1.
          1   -1    0    0  501    0 -0.00000000000E+00 -0.00000000000E+00 -0.45861108076E+03  0.45861108076E+03  0.00000000000E+00 0.  1.
          2    1    1    2  501    0 -0.10075658459E+03  0.86507991716E+02  0.23642482218E+03  0.27116824761E+03  0.00000000000E+00 0.  1.
          1    1    1    2  502    0  0.85324603040E+02  0.18754871435E+02 -0.41553603518E+03  0.42462010035E+03  0.00000000000E+00 0.  1.
         22    1    1    2    0    0 -0.33512587911E+02  0.10471670632E+02  0.11305639956E+03  0.11838284891E+03  0.00000000000E+00 0.  1.
         22    1    1    2    0    0  0.48944569465E+02 -0.11573453378E+03  0.19490321992E+03  0.23189937112E+03  0.00000000000E+00 0.  1.
</event>
<event>
 6    1  0.3624778E-005  0.7168088E+02  0.7818608E-02  0.1358385E+00
          2   -1    0    0  502    0  0.00000000000E+00  0.00000000000E+00  0.99593055997E+02  0.99593055997E+02  0.00000000000E+00 0.  1.
          1   -1    0    0  501    0 -0.00000000000E+00 -0.00000000000E+00 -0.16389484058E+04  0.16389484058E+04  0.00000000000E+00 0. -1.
          2    1    1    2  501    0 -0.36859090733E+02 -0.43680365701E+02 -0.30200842712E+02  0.64642538765E+02  0.00000000000E+00 0.  1.
          1    1    1    2  502    0  0.38038313591E+02  0.39035391523E+02 -0.15416956409E+04  0.15426587841E+04  0.00000000000E+00 0. -1.
         22    1    1    2    0    0  0.18234363596E+02  0.56631645688E+02  0.44717876157E+02  0.74426633385E+02  0.00000000000E+00 0.  1.
         22    1    1    2    0    0 -0.19413586453E+02 -0.51986671510E+02 -0.12176742337E+02  0.56813505504E+02  0.00000000000E+00 0.  1.
</event>
<event>
 6    1  0.3624778E-005  0.2808281E+03  0.7818608E-02  0.1206106E+00
          2   -1    0    0  502    0  0.00000000000E+00  0.00000000000E+00  0.16582664601E+03  0.16582664601E+03  0.00000000000E+00 0. -1.
          1   -1    0    0  501    0 -0.00000000000E+00 -0.00000000000E+00 -0.83330728070E+03  0.83330728070E+03  0.00000000000E+00 0. -1.
          2    1    1    2  501    0 -0.13980892877E+03 -0.46003696252E+02 -0.47133771926E+03  0.49378347707E+03  0.00000000000E+00 0. -1.
          1    1    1    2  502    0  0.26795720599E+03  0.70184589025E+02 -0.75222396472E+02  0.28702848240E+03  0.00000000000E+00 0. -1.
         22    1    1    2    0    0 -0.19458320054E+02 -0.55702451646E+01  0.27048539981E+02  0.33782796888E+02  0.00000000000E+00 0. -1.
         22    1    1    2    0    0 -0.10868995716E+03 -0.18610647608E+02 -0.14796905894E+03  0.18453917036E+03  0.00000000000E+00 0. -1.
</event>
<event>
 6    1  0.3624778E-005  0.1029866E+03  0.7818608E-02  0.1280187E+00
          2   -1    0    0  502    0  0.00000000000E+00  0.00000000000E+00  0.60552291768E+02  0.60552291768E+02  0.00000000000E+00 0.  1.
          1   -1    0    0  501    0 -0.00000000000E+00 -0.00000000000E+00 -0.16607000438E+04  0.16607000438E+04  0.00000000000E+00 0. -1.
          2    1    1    2  501    0 -0.77123633171E+02  0.32298033113E+01 -0.58196198642E+02  0.96671008887E+02  0.00000000000E+00 0.  1.
          1    1    1    2  502    0  0.54716251609E+02  0.37445289738E+01 -0.14868450769E+04  0.14878562337E+04  0.00000000000E+00 0. -1.
         22    1    1    2    0    0 -0.43047934635E+02  0.21916191743E+02 -0.33534471908E+01  0.48421996498E+02  0.00000000000E+00 0.  1.
         22    1    1    2    0    0  0.65455316196E+02 -0.28890524028E+02 -0.51753029354E+02  0.88303096459E+02  0.00000000000E+00 0.  1.
</event>
<event>
 6    1  0.3624778E-005  0.1416316E+03  0.7818608E-02  0.1212569E+00
          2   -1    0    0  502    0  0.00000000000E+00  0.00000000000E+00  0.26136188463E+03  0.26136188463E+03  0.00000000000E+00 0. -1.
          1   -1    0    0  501    0 -0.00000000000E+00 -0.00000000000E+00 -0.32600183228E+03  0.32600183228E+03  0.00000000000E+00 0. -1.
          2    1    1    2  501    0  0.11080616945E+03 -0.39895376293E+02  0.38006365650E+02  0.12375028108E+03  0.00000000000E+00 0. -1.
          1    1    1    2  502    0  0.58372062316E+02  0.37131755036E+02  0.13123022984E+03  0.14834904150E+03  0.00000000000E+00 0. -1.
         22    1    1    2    0    0  0.80033781247E+01 -0.15915478265E+02  0.38096824175E+01  0.18217304684E+02  0.00000000000E+00 0.  1.
         22    1    1    2    0    0 -0.17718160989E+03  0.18679099522E+02 -0.23768622556E+03  0.29704708964E+03  0.00000000000E+00 0. -1.
</event>
<event>
 6    1  0.3624778E-005  0.1353818E+03  0.7818608E-02  0.1220492E+00
          2   -1    0    0  502    0  0.00000000000E+00  0.00000000000E+00  0.35358173942E+03  0.35358173942E+03  0.00000000000E+00 0.  1.
          1   -1    0    0  501    0 -0.00000000000E+00 -0.00000000000E+00 -0.21379428288E+03  0.21379428288E+03  0.00000000000E+00 0. -1.
          2    1    1    2  501    0  0.59083115856E+02  0.76675829866E+02  0.13477771352E+03  0.16593682390E+03  0.00000000000E+00 0.  1.
          1    1    1    2  502    0  0.18345203776E+02  0.18148566458E+02 -0.15872011780E+03  0.16080420629E+03  0.00000000000E+00 0. -1.
         22    1    1    2    0    0  0.23987288743E+02  0.13842917704E+02  0.26695707683E+02  0.38466572508E+02  0.00000000000E+00 0.  1.
         22    1    1    2    0    0 -0.10141560837E+03 -0.10866731403E+03  0.13703415314E+03  0.20216841961E+03  0.00000000000E+00 0. -1.
</event>
<event>
 6    1  0.3624778E-005  0.9834630E+02  0.7818608E-02  0.1302277E+00
          2   -1    0    0  502    0  0.00000000000E+00  0.00000000000E+00  0.83497011571E+03  0.83497011571E+03  0.00000000000E+00 0. -1.
          1   -1    0    0  501    0 -0.00000000000E+00 -0.00000000000E+00 -0.59527812719E+03  0.59527812719E+03  0.00000000000E+00 0.  1.
          2    1    1    2  501    0  0.97488986856E+02  0.48131090451E+02  0.35687017309E+03  0.37306437095E+03  0.00000000000E+00 0. -1.
          1    1    1    2  502    0 -0.69161376713E+02 -0.33950600622E+02 -0.57563569673E+03  0.58076879622E+03  0.00000000000E+00 0.  1.
         22    1    1    2    0    0  0.41025173866E+02 -0.71541071327E+01  0.67657152845E+02  0.79446437747E+02  0.00000000000E+00 0.  1.
         22    1    1    2    0    0 -0.69352784009E+02 -0.70263826955E+01  0.39080035932E+03  0.39696863799E+03  0.00000000000E+00 0. -1.
</event>
<event>
 6    1  0.3624778E-005  0.1561277E+03  0.7818608E-02  0.1224344E+00
          2   -1    0    0  502    0  0.00000000000E+00  0.00000000000E+00  0.11517008453E+03  0.11517008453E+03  0.00000000000E+00 0.  1.
          1   -1    0    0  501    0 -0.00000000000E+00 -0.00000000000E+00 -0.60934329917E+03  0.60934329917E+03  0.00000000000E+00 0.  1.
          2    1    1    2  501    0  0.11210102716E+03  0.39337761322E+02  0.39990292901E+02  0.12535279527E+03  0.00000000000E+00 0.  1.
          1    1    1    2  502    0 -0.43927938656E+02 -0.11006538609E+02 -0.39104643187E+03  0.39365990343E+03  0.00000000000E+00 0.  1.
         22    1    1    2    0    0 -0.39864118181E+02  0.16660851585E+02  0.92000404425E+01  0.44174343662E+02  0.00000000000E+00 0.  1.
         22    1    1    2    0    0 -0.28308970324E+02 -0.44992074298E+02 -0.15231711611E+03  0.16132634134E+03  0.00000000000E+00 0.  1.
</event>
<event>
 6    1  0.3624778E-005  0.1625931E+03  0.7818608E-02  0.1204206E+00
          2   -1    0    0  502    0  0.00000000000E+00  0.00000000000E+00  0.43969971533E+02  0.43969971533E+02  0.00000000000E+00 0.  1.
          1   -1    0    0  501    0 -0.00000000000E+00 -0.00000000000E+00 -0.85686899317E+03  0.85686899317E+03  0.00000000000E+00 0. -1.
          2    1    1    2  501    0 -0.18825362390E+01 -0.11275517912E+03 -0.26638115724E+03  0.28926837936E+03  0.00000000000E+00 0.  1.
          1    1    1    2  502    0  0.40680887931E+02  0.44419063297E+02 -0.39106561400E+03  0.39567701763E+03  0.00000000000E+00 0. -1.
         22    1    1    2    0    0 -0.43298812738E+02  0.87870273711E+02 -0.16637012583E+03  0.19306732234E+03  0.00000000000E+00 0.  1.
         22    1    1    2    0    0  0.45004610452E+01 -0.19534157883E+02  0.10917875438E+02  0.22826245374E+02  0.00000000000E+00 0.  1.
</event>
<event>
 6    1  0.3624778E-005  0.1712610E+03  0.7818608E-02  0.1194599E+00
          2   -1    0    0  502    0  0.00000000000E+00  0.00000000000E+00  0.33389541768E+03  0.33389541768E+03  0.00000000000E+00 0. -1.
          1   -1    0    0  501    0 -0.00000000000E+00 -0.00000000000E+00 -0.18695398348E+03  0.18695398348E+03  0.00000000000E+00 0. -1.
          2    1    1    2  501    0 -0.66981052768E+02 -0.16273492632E+03  0.74891902815E+02  0.19125353534E+03  0.00000000000E+00 0. -1.
          1    1    1    2  502    0 -0.29673270465E+02  0.14877232681E+03  0.70636365588E+02  0.16734157985E+03  0.00000000000E+00 0. -1.
         22    1    1    2    0    0 -0.80841273742E+01 -0.32444639460E+02  0.29179298268E+02  0.44378364013E+02  0.00000000000E+00 0. -1.
         22    1    1    2    0    0  0.10473845061E+03  0.46407238968E+02 -0.27766132470E+02  0.11787592195E+03  0.00000000000E+00 0.  1.
</event>
<event>
 6    1  0.3624778E-005  0.6985271E+02  0.7818608E-02  0.1389478E+00
          2   -1    0    0  502    0  0.00000000000E+00  0.00000000000E+00  0.35175400264E+03  0.35175400264E+03  0.00000000000E+00 0. -1.
          1   -1    0    0  501    0 -0.00000000000E+00 -0.00000000000E+00 -0.88704962935E+03  0.88704962935E+03  0.00000000000E+00 0. -1.
          2    1    1    2  501    0 -0.24607377733E+02  0.20846175954E+02  0.49600387170E+02  0.59163202231E+02  0.00000000000E+00 0. -1.
          1    1    1    2  502    0  0.66905390608E+02 -0.91987827827E+01 -0.86700018575E+03  0.86962651235E+03  0.00000000000E+00 0. -1.
         22    1    1    2    0    0  0.34535931821E+00 -0.43454547042E+02  0.23491808835E+03  0.23890358969E+03  0.00000000000E+00 0.  1.
         22    1    1    2    0    0 -0.42643372193E+02  0.31807153871E+02  0.47186083524E+02  0.71110327715E+02  0.00000000000E+00 0. -1.
</event>
<event>
 6    1  0.3624778E-005  0.2192924E+03  0.7818608E-02  0.1179803E+00
          2   -1    0    0  502    0  0.00000000000E+00  0.00000000000E+00  0.47582191878E+03  0.47582191878E+03  0.00000000000E+00 0.  1.
          1   -1    0    0  501    0 -0.00000000000E+00 -0.00000000000E+00 -0.14718307242E+04  0.14718307242E+04  0.00000000000E+00 0.  1.
          2    1    1    2  501    0  0.24215655813E+02  0.36072240473E+02 -0.15230400392E+03  0.15837965188E+03  0.00000000000E+00 0.  1.
          1    1    1    2  502    0 -0.69033830035E+02 -0.43496984485E+01 -0.13050583019E+04  0.13068901105E+04  0.00000000000E+00 0.  1.
         22    1    1    2    0    0  0.77081837358E+02 -0.57392223739E+01  0.40573696982E+03  0.41303394171E+03  0.00000000000E+00 0.  1.
         22    1    1    2    0    0 -0.32263663136E+02 -0.25983319650E+02  0.55616530549E+02  0.69348938920E+02  0.00000000000E+00 0.  1.
</event>
<event>
 6    1  0.3624778E-005  0.2301751E+03  0.7818608E-02  0.1187978E+00
          2   -1    0    0  502    0  0.00000000000E+00  0.00000000000E+00  0.29378171367E+03  0.29378171367E+03  0.00000000000E+00 0.  1.
          1   -1    0    0  501    0 -0.00000000000E+00 -0.00000000000E+00 -0.11983755510E+04  0.11983755510E+04  0.00000000000E+00 0.  1.
          2    1    1    2  501    0  0.16104985801E+03 -0.92826895040E+02 -0.35332608741E+03  0.39924079608E+03  0.00000000000E+00 0.  1.
          1    1    1    2  502    0 -0.22517195670E+03  0.69326826400E+02 -0.78581509472E+03  0.82037429386E+03  0.00000000000E+00 0.  1.
         22    1    1    2    0    0  0.45785204401E+02  0.29752395432E+02  0.24466628673E+03  0.25068522461E+03  0.00000000000E+00 0.  1.
         22    1    1    2    0    0  0.18336894284E+02 -0.62523267920E+01 -0.10118941902E+02  0.21856950096E+02  0.00000000000E+00 0.  1.
</event>
<event>
 6    1  0.3624778E-005  0.1410434E+03  0.7818608E-02  0.1257703E+00
          2   -1    0    0  502    0  0.00000000000E+00  0.00000000000E+00  0.92584735477E+02  0.92584735477E+02  0.00000000000E+00 0.  1.
          1   -1    0    0  501    0 -0.00000000000E+00 -0.00000000000E+00 -0.49264642636E+03  0.49264642636E+03  0.00000000000E+00 0.  1.
          2    1    1    2  501    0 -0.59346837319E+02  0.19762598761E+01 -0.47864449698E+02  0.76268986146E+02  0.00000000000E+00 0.  1.
          1    1    1    2  502    0  0.42785196077E+02  0.23316523422E+02 -0.37481935780E+03  0.37797325864E+03  0.00000000000E+00 0.  1.
         22    1    1    2    0    0 -0.11167509606E+02 -0.63728721352E+02 -0.19507350086E+02  0.67576622461E+02  0.00000000000E+00 0.  1.
         22    1    1    2    0    0  0.27729150848E+02  0.38435938054E+02  0.42129466698E+02  0.63412294589E+02  0.00000000000E+00 0.  1.
</event>
<event>
 6    1  0.3624778E-005  0.1126212E+03  0.7818608E-02  0.1344891E+00
          2   -1    0    0  502    0  0.00000000000E+00  0.00000000000E+00  0.19024469116E+03  0.19024469116E+03  0.00000000000E+00 0.  1.
          1   -1    0    0  501    0 -0.00000000000E+00 -0.00000000000E+00 -0.26774896968E+03  0.26774896968E+03  0.00000000000E+00 0.  1.
          2    1    1    2  501    0  0.38422674062E+02 -0.47097156473E+02  0.39877756578E+02  0.72695801114E+02  0.00000000000E+00 0.  1.
          1    1    1    2  502    0 -0.40614154739E+01  0.30259494935E+02 -0.21863100180E+03  0.22075245656E+03  0.00000000000E+00 0.  1.
         22    1    1    2    0    0  0.13312843760E+02  0.17219043048E+02  0.11329888359E+03  0.11537055203E+03  0.00000000000E+00 0.  1.
         22    1    1    2    0    0 -0.47674102348E+02 -0.38138151034E+00 -0.12049916891E+02  0.49174851130E+02  0.00000000000E+00 0. -1.
</event>
<event>
 6    1  0.3624778E-005  0.9511662E+02  0.7818608E-02  0.1331792E+00
          2   -1    0    0  502    0  0.00000000000E+00  0.00000000000E+00  0.22268258621E+02  0.22268258621E+02  0.00000000000E+00 0. -1.
          1   -1    0    0  501    0 -0.00000000000E+00 -0.00000000000E+00 -0.14029256777E+04  0.14029256777E+04  0.00000000000E+00 0. -1.
          2    1    1    2  501    0 -0.34600897697E+02 -0.20262929134E+02 -0.63826073246E+03  0.63951901537E+03  0.00000000000E+00 0. -1.
          1    1    1    2  502    0  0.53339490193E+02  0.80825174972E+01 -0.57477106379E+03  0.57729732727E+03  0.00000000000E+00 0. -1.
         22    1    1    2    0    0 -0.35257169026E+02 -0.30063533658E+02 -0.15429294702E+03  0.16109996128E+03  0.00000000000E+00 0. -1.
         22    1    1    2    0    0  0.16518576530E+02  0.42243945295E+02 -0.13332675857E+02  0.47277632451E+02  0.00000000000E+00 0. -1.
</event>
<event>
 6    1  0.3624778E-005  0.1279122E+03  0.7818608E-02  0.1289392E+00
          2   -1    0    0  502    0  0.00000000000E+00  0.00000000000E+00  0.20153963591E+02  0.20153963591E+02  0.00000000000E+00 0. -1.
          1   -1    0    0  501    0 -0.00000000000E+00 -0.00000000000E+00 -0.26628061204E+04  0.26628061204E+04  0.00000000000E+00 0. -1.
          2    1    1    2  501    0  0.20408655600E+02 -0.13991989879E+02 -0.18578604164E+03  0.18742663170E+03  0.00000000000E+00 0. -1.
          1    1    1    2  502    0 -0.64403155260E+02  0.31450915163E+02 -0.22224191717E+04  0.22235745774E+04  0.00000000000E+00 0. -1.
         22    1    1    2    0    0  0.34664133970E+02  0.20438402907E+02 -0.22905055535E+03  0.23255856768E+03  0.00000000000E+00 0. -1.
         22    1    1    2    0    0  0.93303656901E+01 -0.37897328190E+02 -0.53963881801E+01  0.39400307274E+02  0.00000000000E+00 0. -1.
</event>
<event>
 6    1  0.3624778E-005  0.2201534E+03  0.7818608E-02  0.1170964E+00
          2   -1    0    0  502    0  0.00000000000E+00  0.00000000000E+00  0.37540398005E+03  0.37540398005E+03  0.00000000000E+00 0.  1.
          1   -1    0    0  501    0 -0.00000000000E+00 -0.00000000000E+00 -0.29663421335E+03  0.29663421335E+03  0.00000000000E+00 0.  1.
          2    1    1    2  501    0  0.19455159861E+03 -0.56464988202E+02  0.10832459553E+03  0.22972339325E+03  0.00000000000E+00 0.  1.
          1    1    1    2  502    0 -0.18784866253E+03 -0.42157125827E+02 -0.14958854665E+03  0.24380540716E+03  0.00000000000E+00 0.  1.
         22    1    1    2    0    0  0.56238554856E+02  0.32193284885E+02  0.35296372271E+02  0.73790355328E+02  0.00000000000E+00 0.  1.
         22    1    1    2    0    0 -0.62941490935E+02  0.66428829144E+02  0.84737345547E+02  0.12471903765E+03  0.00000000000E+00 0. -1.
</event>
<event>
 6    1  0.3624778E-005  0.1754990E+03  0.7818608E-02  0.1263041E+00
          2   -1    0    0  502    0  0.00000000000E+00  0.00000000000E+00  0.16796312190E+03  0.16796312190E+03  0.00000000000E+00 0. -1.
          1   -1    0    0  501    0 -0.00000000000E+00 -0.00000000000E+00 -0.26367509032E+03  0.26367509032E+03  0.00000000000E+00 0. -1.
          2    1    1    2  501    0  0.34550390774E+01 -0.41350973414E+02 -0.39556140794E+01  0.41683176223E+02  0.00000000000E+00 0. -1.
          1    1    1    2  502    0 -0.86853720639E+02  0.89089102717E+02  0.86114704480E+02  0.15131483516E+03  0.00000000000E+00 0. -1.
         22    1    1    2    0    0  0.10910943567E+03 -0.45525135384E+02 -0.17695817907E+03  0.21281824180E+03  0.00000000000E+00 0. -1.
         22    1    1    2    0    0 -0.25710754107E+02 -0.22129939192E+01 -0.91287974232E+00  0.25821959032E+02  0.00000000000E+00 0. -1.
</event>
<event>
 6    1  0.3624778E-005  0.1053814E+03  0.7818608E-02  0.1336811E+00
          2   -1    0    0  502    0  0.00000000000E+00  0.00000000000E+00  0.17876187931E+03  0.17876187931E+03  0.00000000000E+00 0. -1.
          1   -1    0    0  501    0 -0.00000000000E+00 -0.00000000000E+00 -0.14845095935E+03  0.14845095935E+03  0.00000000000E+00 0. -1.
          2    1    1    2  501    0  0.31231603019E+02  0.20927225082E+02 -0.21931157160E+02  0.43523986848E+02  0.00000000000E+00 0. -1.
          1    1    1    2  502    0  0.18472585448E+02  0.38519775681E+02 -0.76173932743E+02  0.87335431305E+02  0.00000000000E+00 0. -1.
         22    1    1    2    0    0 -0.52541820381E+02 -0.29026620864E+02 -0.42863337934E+01  0.60179400671E+02  0.00000000000E+00 0. -1.
         22    1    1    2    0    0  0.28376319141E+01 -0.30420379899E+02  0.13270234366E+03  0.13617401984E+03  0.00000000000E+00 0. -1.
</event>
<event>
 6    1  0.4544494E-005  0.2807371E+03  0.7818608E-02  0.1181597E+00
          2   -1    0    0  502    0  0.00000000000E+00  0.00000000000E+00  0.63625029229E+03  0.63625029229E+03  0.00000000000E+00 0. -1.
          1   -1    0    0  501    0 -0.00000000000E+00 -0.00000000000E+00 -0.58782343811E+03  0.58782343811E+03  0.00000000000E+00 0. -1.
          2    1    1    2  501    0 -0.27128516414E+02  0.83869023871E+02  0.34042175337E+02  0.94492535523E+02  0.00000000000E+00 0. -1.
          1    1    1    2  502    0 -0.25916149962E+02 -0.31240626342E+02 -0.54715867699E+03  0.54866222885E+03  0.00000000000E+00 0. -1.
         22    1    1    2    0    0 -0.27439860173E+02  0.21233877294E+02  0.81049984647E+02  0.88164184806E+02  0.00000000000E+00 0. -1.
         22    1    1    2    0    0  0.80484526550E+02 -0.73862274823E+02  0.48049337119E+03  0.49275478122E+03  0.00000000000E+00 0. -1.
</event>
<event>
 6    1  0.3624778E-005  0.7096441E+02  0.7818608E-02  0.1421873E+00
          2   -1    0    0  502    0  0.00000000000E+00  0.00000000000E+00  0.15974953230E+03  0.15974953230E+03  0.00000000000E+00 0.  1.
          1   -1    0    0  501    0 -0.00000000000E+00 -0.00000000000E+00 -0.27488449280E+03  0.27488449280E+03  0.00000000000E+00 0. -1.
          2    1    1    2  501    0 -0.55239585865E+02 -0.21941440628E+02 -0.34093937130E+02  0.68521786407E+02  0.00000000000E+00 0.  1.
          1    1    1    2  502    0  0.39329452793E+02  0.27991403180E+02 -0.19052157951E+03  0.19654209923E+03  0.00000000000E+00 0. -1.
         22    1    1    2    0    0  0.17121928539E+02 -0.18102143039E+02  0.13713445248E+03  0.13937971903E+03  0.00000000000E+00 0.  1.
         22    1    1    2    0    0 -0.12117954675E+01  0.12052180486E+02 -0.27653896347E+02  0.30190420433E+02  0.00000000000E+00 0. -1.
</event>
<event>
 6    1  0.3624778E-005  0.1788625E+03  0.7818608E-02  0.1172363E+00
          2   -1    0    0  502    0  0.00000000000E+00  0.00000000000E+00  0.66478836430E+02  0.66478836430E+02  0.00000000000E+00 0. -1.
          1   -1    0    0  501    0 -0.00000000000E+00 -0.00000000000E+00 -0.16478537809E+04  0.16478537809E+04  0.00000000000E+00 0.  1.
          2    1    1    2  501    0  0.87308641744E+02  0.13309378543E+03 -0.18799586015E+03  0.24633148008E+03  0.00000000000E+00 0. -1.
          1    1    1    2  502    0  0.13262520960E+02 -0.37904513827E+02 -0.11924760670E+04  0.11931520511E+04  0.00000000000E+00 0.  1.
         22    1    1    2    0    0  0.77856812724E+01  0.15949132744E+02  0.36015914059E+01  0.18109752313E+02  0.00000000000E+00 0.  1.
         22    1    1    2    0    0 -0.10835684398E+03 -0.11113840434E+03 -0.20450460867E+03  0.25673933381E+03  0.00000000000E+00 0. -1.
</event>
<event>
 6    1  0.3624778E-005  0.2880664E+03  0.7818608E-02  0.1169667E+00
          2   -1    0    0  502    0  0.00000000000E+00  0.00000000000E+00  0.11845346896E+03  0.11845346896E+03  0.00000000000E+00 0. -1.
          1   -1    0    0  501    0 -0.00000000000E+00 -0.00000000000E+00 -0.77011766614E+03  0.77011766614E+03  0.00000000000E+00 0. -1.
          2    1    1    2  501    0  0.16380278733E+03  0.65411133422E+02 -0.44228111014E+03  0.47615391408E+03  0.00000000000E+00 0. -1.
          1    1    1    2  502    0 -0.20758089002E+03 -0.36642128043E+02 -0.17275409648E+03  0.27253706041E+03  0.00000000000E+00 0. -1.
         22    1    1    2    0    0  0.36768102050E+02 -0.70258620620E+02 -0.52285747128E+02  0.94984032618E+02  0.00000000000E+00 0.  1.
         22    1    1    2    0    0  0.70100006317E+01  0.41489615241E+02  0.15656756573E+02  0.44896127985E+02  0.00000000000E+00 0.  1.
</event>
<event>
 6    1  0.3624778E-005  0.7323297E+02  0.7818608E-02  0.1436481E+00
          2   -1    0    0  502    0  0.00000000000E+00  0.00000000000E+00  0.37454190340E+02  0.37454190340E+02  0.00000000000E+00 0.  1.
          1   -1    0    0  501    0 -0.00000000000E+00 -0.00000000000E+00 -0.16169188150E+04  0.16169188150E+04  0.00000000000E+00 0.  1.
          2    1    1    2  501    0 -0.24784986420E+02 -0.12104659573E+02 -0.86473754025E+02  0.90766339963E+02  0.00000000000E+00 0.  1.
          1    1    1    2  502    0 -0.11045125811E+02 -0.30977323733E+02 -0.13934025526E+04  0.13937906094E+04  0.00000000000E+00 0.  1.
         22    1    1    2    0    0  0.17947598996E+02  0.27917603903E+01  0.28812300513E+02  0.34059637353E+02  0.00000000000E+00 0.  1.
         22    1    1    2    0    0  0.17882513235E+02  0.40290222916E+02 -0.12840061862E+03  0.13575641865E+03  0.00000000000E+00 0.  1.
</event>
<event>
 6    1  0.3624778E-005  0.5969412E+02  0.7818608E-02  0.1401345E+00
          2   -1    0    0  502    0  0.00000000000E+00  0.00000000000E+00  0.22060664657E+03  0.22060664657E+03  0.00000000000E+00 0. -1.
          1   -1    0    0  501    0 -0.00000000000E+00 -0.00000000000E+00 -0.66647357405E+02  0.66647357405E+02  0.00000000000E+00 0. -1.
          2    1    1    2  501    0  0.70223301829E+01  0.33390561557E+02  0.53518784447E-01  0.34121043163E+02  0.00000000000E+00 0. -1.
          1    1    1    2  502    0  0.41050303249E+00 -0.22802531382E+02 -0.25394674335E+02  0.34132293136E+02  0.00000000000E+00 0. -1.
         22    1    1    2    0    0  0.52853925274E+00  0.43723412570E+02  0.15737281734E+02  0.46472337975E+02  0.00000000000E+00 0. -1.
         22    1    1    2    0    0 -0.79613724681E+01 -0.54311442744E+02  0.16356316298E+03  0.17252832970E+03  0.00000000000E+00 0. -1.
</event>
<event>
 6    1  0.3624778E-005  0.9858493E+02  0.7818608E-02  0.1346923E+00
          2   -1    0    0  502    0  0.00000000000E+00  0.00000000000E+00  0.78060706704E+02  0.78060706704E+02  0.00000000000E+00 0.  1.
          1   -1    0    0  501    0 -0.00000000000E+00 -0.00000000000E+00 -0.17457732883E+03  0.17457732883E+03  0.00000000000E+00 0.  1.
          2    1    1    2  501    0 -0.19335408202E+02 -0.96633212388E+01 -0.62531765522E+02  0.66162372139E+02  0.00000000000E+00 0.  1.
          1    1    1    2  502    0 -0.37839875406E+02 -0.14928040840E+02 -0.27750844926E+02  0.49242379798E+02  0.00000000000E+00 0.  1.
         22    1    1    2    0    0  0.44934170931E+02  0.53436823849E+02 -0.48214034983E+02  0.84847905276E+02  0.00000000000E+00 0.  1.
         22    1    1    2    0    0  0.12241112677E+02 -0.28845461770E+02  0.41980023310E+02  0.52385378317E+02  0.00000000000E+00 0.  1.
</event>
<event>
 6    1  0.3624778E-005  0.1234856E+03  0.7818608E-02  0.1282625E+00
          2   -1    0    0  502    0  0.00000000000E+00  0.00000000000E+00  0.16447410617E+02  0.16447410617E+02  0.00000000000E+00 0. -1.
          1   -1    0    0  501    0 -0.00000000000E+00 -0.00000000000E+00 -0.11067207111E+04  0.11067207111E+04  0.00000000000E+00 0. -1.
          2    1    1    2  501    0  0.10859061629E+01  0.36500080548E+02 -0.49361757017E+03  0.49496640356E+03  0.00000000000E+00 0. -1.
          1    1    1    2  502    0 -0.11900998246E+02 -0.23221717517E+02 -0.97549879992E+01  0.27857525276E+02  0.00000000000E+00 0. -1.
         22    1    1    2    0    0  0.19875266876E+02 -0.67688074315E+02 -0.35875057058E+03  0.36562094241E+03  0.00000000000E+00 0. -1.
         22    1    1    2    0    0 -0.90601747937E+01  0.54409711284E+02 -0.22815017177E+03  0.23472325051E+03  0.00000000000E+00 0.  1.
</event>
<event>
 6    1  0.3624778E-005  0.1971575E+03  0.7818608E-02  0.1184864E+00
          2   -1    0    0  502    0  0.00000000000E+00  0.00000000000E+00  0.88894628084E+03  0.88894628084E+03  0.00000000000E+00 0. -1.
          1   -1    0    0  501    0 -0.00000000000E+00 -0.00000000000E+00 -0.11849733095E+03  0.11849733095E+03  0.00000000000E+00 0. -1.
          2    1    1    2  501    0 -0.32095588108E+02 -0.94427560535E+02  0.83231518492E+02  0.12990064140E+03  0.00000000000E+00 0. -1.
          1    1    1    2  502    0  0.64052578545E+01  0.23920525122E+03  0.99920186063E+02  0.25931491110E+03  0.00000000000E+00 0. -1.
         22    1    1    2    0    0  0.11416274083E+02 -0.92412524229E+02  0.53435609998E+03  0.54240837709E+03  0.00000000000E+00 0. -1.
         22    1    1    2    0    0  0.14274056170E+02 -0.52365166454E+02  0.52941145355E+02  0.75819682199E+02  0.00000000000E+00 0. -1.
</event>
<event>
 6    1  0.3624778E-005  0.1345357E+03  0.7818608E-02  0.1244468E+00
          2   -1    0    0  502    0  0.00000000000E+00  0.00000000000E+00  0.99736801998E+03  0.99736801998E+03  0.00000000000E+00 0.  1.
          1   -1    0    0  501    0 -0.00000000000E+00 -0.00000000000E+00 -0.22620159091E+03  0.22620159091E+03  0.00000000000E+00 0. -1.
          2    1    1    2  501    0 -0.15655449121E+03  0.32838548363E+02  0.61121624805E+03  0.63180137770E+03  0.00000000000E+00 0.  1.
          1    1    1    2  502    0  0.11226063344E+03 -0.59261391463E+02 -0.18299965087E+03  0.22271783619E+03  0.00000000000E+00 0. -1.
         22    1    1    2    0    0  0.82778081776E+02 -0.29800175945E+01  0.16494977302E+03  0.18457930260E+03  0.00000000000E+00 0. -1.
         22    1    1    2    0    0 -0.38484224002E+02  0.29402860694E+02  0.17800005887E+03  0.18447109441E+03  0.00000000000E+00 0. -1.
</event>
<event>
 6    1  0.3624778E-005  0.4289409E+03  0.7818608E-02  0.1164411E+00
          2   -1    0    0  502    0  0.00000000000E+00  0.00000000000E+00  0.43746666112E+03  0.43746666112E+03  0.00000000000E+00 0. -1.
          1   -1    0    0  501    0 -0.00000000000E+00 -0.00000000000E+00 -0.58705853832E+03  0.58705853832E+03  0.00000000000E+00 0. -1.
          2    1    1    2  501    0 -0.11805374496E+03  0.82041408573E+02 -0.26443022163E+03  0.30098309177E+03  0.00000000000E+00 0. -1.
          1    1    1    2  502    0  0.26840432267E+03 -0.26962131265E+03  0.21208714478E+03  0.43556571220E+03  0.00000000000E+00 0. -1.
         22    1    1    2    0    0  0.13677941316E+02  0.44454344112E+01  0.12202065609E+02  0.18861027832E+02  0.00000000000E+00 0.  1.
         22    1    1    2    0    0 -0.16402851903E+03  0.18313446966E+03 -0.10945086596E+03  0.26911536763E+03  0.00000000000E+00 0. -1.
</event>
<event>
 6    1  0.3624778E-005  0.9840775E+02  0.7818608E-02  0.1386829E+00
          2   -1    0    0  502    0  0.00000000000E+00  0.00000000000E+00  0.17684688688E+02  0.17684688688E+02  0.00000000000E+00 0.  1.
          1   -1    0    0  501    0 -0.00000000000E+00 -0.00000000000E+00 -0.77606208649E+03  0.77606208649E+03  0.00000000000E+00 0.  1.
          2    1    1    2  501    0 -0.24070323053E+02  0.14840832267E+02 -0.54382077138E+02  0.61294706689E+02  0.00000000000E+00 0.  1.
          1    1    1    2  502    0 -0.26527218273E+02 -0.11822108037E+01 -0.39509567313E+03  0.39598697182E+03  0.00000000000E+00 0.  1.
         22    1    1    2    0    0  0.62587189231E+02 -0.24582610766E+02 -0.31266506937E+03  0.31981386245E+03  0.00000000000E+00 0.  1.
         22    1    1    2    0    0 -0.11989647905E+02  0.10923989303E+02  0.37654218388E+01  0.16651234213E+02  0.00000000000E+00 0.  1.
</event>
<event>
 6    1  0.3624778E-005  0.1827379E+03  0.7818608E-02  0.1165582E+00
          2   -1    0    0  502    0  0.00000000000E+00  0.00000000000E+00  0.65131239946E+03  0.65131239946E+03  0.00000000000E+00 0.  1.
          1   -1    0    0  501    0 -0.00000000000E+00 -0.00000000000E+00 -0.43314017995E+03  0.43314017995E+03  0.00000000000E+00 0. -1.
          2    1    1    2  501    0  0.57073746020E+02  0.14572286137E+03  0.28638652796E+03  0.32635840453E+03  0.00000000000E+00 0.  1.
          1    1    1    2  502    0  0.11973975808E+02  0.16593510110E+02 -0.37984107115E+03  0.38039185060E+03  0.00000000000E+00 0. -1.
         22    1    1    2    0    0 -0.71391642701E+02 -0.17915385410E+03  0.26258064926E+03  0.32579359639E+03  0.00000000000E+00 0.  1.
         22    1    1    2    0    0  0.23439208729E+01  0.16837482614E+02  0.49046113451E+02  0.51908727884E+02  0.00000000000E+00 0.  1.
</event>
<event>
 6    1  0.3624778E-005  0.1157908E+03  0.7818608E-02  0.1350188E+00
          2   -1    0    0  502    0  0.00000000000E+00  0.00000000000E+00  0.47845498905E+02  0.47845498905E+02  0.00000000000E+00 0. -1.
          1   -1    0    0  501    0 -0.00000000000E+00 -0.00000000000E+00 -0.13511861918E+04  0.13511861918E+04  0.00000000000E+00 0. -1.
          2    1    1    2  501    0 -0.58946169452E+02 -0.49073645125E+02 -0.19307663487E+03  0.20775336452E+03  0.00000000000E+00 0. -1.
          1    1    1    2  502    0  0.84779197975E+02  0.58885922286E+01 -0.10307318602E+04  0.10342293535E+04  0.00000000000E+00 0. -1.
         22    1    1    2    0    0 -0.13900856264E+02  0.29324091649E+02 -0.11372904348E+03  0.11826847207E+03  0.00000000000E+00 0. -1.
         22    1    1    2    0    0 -0.11932172259E+02  0.13860961247E+02  0.34196845628E+02  0.38780500672E+02  0.00000000000E+00 0. -1.
</event>
<event>
 6    1  0.3624778E-005  0.2610912E+03  0.7818608E-02  0.1232178E+00
          2   -1    0    0  502    0  0.00000000000E+00  0.00000000000E+00  0.36686061866E+02  0.36686061866E+02  0.00000000000E+00 0.  1.
          1   -1    0    0  501    0 -0.00000000000E+00 -0.00000000000E+00 -0.20224733442E+04  0.20224733442E+04  0.00000000000E+00 0.  1.
          2    1    1    2  501    0 -0.10938736090E+03  0.43452887674E+02 -0.25451472756E+03  0.28041307872E+03  0.00000000000E+00 0.  1.
          1    1    1    2  502    0  0.52679610950E+02 -0.16119114192E+03 -0.12923417834E+04  0.13034205042E+04  0.00000000000E+00 0.  1.
         22    1    1    2    0    0  0.65617467199E+02  0.12924864911E+03 -0.43727784975E+03  0.46067644088E+03  0.00000000000E+00 0.  1.
         22    1    1    2    0    0 -0.89097172494E+01 -0.11510394864E+02 -0.16529216411E+01  0.14649382285E+02  0.00000000000E+00 0.  1.
</event>
<event>
 6    1  0.3624778E-005  0.6180815E+02  0.7818608E-02  0.1444612E+00
          2   -1    0    0  502    0  0.00000000000E+00  0.00000000000E+00  0.74230810909E+02  0.74230810909E+02  0.00000000000E+00 0.  1.
          1   -1    0    0  501    0 -0.00000000000E+00 -0.00000000000E+00 -0.13089308288E+04  0.13089308288E+04  0.00000000000E+00 0.  1.
          2    1    1    2  501    0 -0.44532816028E+01  0.25693784626E+02 -0.12492434676E+01  0.26106759560E+02  0.00000000000E+00 0.  1.
          1    1    1    2  502    0 -0.36153854127E+02  0.20312096007E+02 -0.12119987264E+04  0.12127079596E+04  0.00000000000E+00 0.  1.
         22    1    1    2    0    0  0.47404125425E+02 -0.38337335748E+02 -0.71095938445E+02  0.93656472723E+02  0.00000000000E+00 0. -1.
         22    1    1    2    0    0 -0.67969896949E+01 -0.76685448856E+01  0.49643890412E+02  0.50690447865E+02  0.00000000000E+00 0.  1.
</event>
<event>
 6    1  0.3624778E-005  0.8961915E+02  0.7818608E-02  0.1376242E+00
          2   -1    0    0  502    0  0.00000000000E+00  0.00000000000E+00  0.14119204656E+03  0.14119204656E+03  0.00000000000E+00 0. -1.
          1   -1    0    0  501    0 -0.00000000000E+00 -0.00000000000E+00 -0.85612799147E+02  0.85612799147E+02  0.00000000000E+00 0. -1.
          2    1    1    2  501    0  0.23665579948E+02  0.11903015984E+02 -0.11731150172E+02  0.28971733606E+02  0.00000000000E+00 0. -1.
          1    1    1    2  502    0  0.19651590602E+02 -0.25767623546E+02 -0.23604245800E+02  0.40091343906E+02  0.00000000000E+00 0. -1.
         22    1    1    2    0    0 -0.65161477838E+02  0.27045024295E+02  0.80147178767E+01  0.71004839524E+02  0.00000000000E+00 0. -1.
         22    1    1    2    0    0  0.21844307288E+02 -0.13180416733E+02  0.82899925510E+02  0.86736928673E+02  0.00000000000E+00 0. -1.
</event>
<event>
 6    1  0.3624778E-005  0.7148363E+02  0.7818608E-02  0.1439370E+00
          2   -1    0    0  502    0  0.00000000000E+00  0.00000000000E+00  0.30657085382E+02  0.30657085382E+02  0.00000000000E+00 0. -1.
          1   -1    0    0  501    0 -0.00000000000E+00 -0.00000000000E+00 -0.18744020957E+04  0.18744020957E+04  0.00000000000E+00 0. -1.
          2    1    1    2  501    0 -0.34379141485E+02  0.46919727494E+02 -0.36699744033E+03  0.37157840008E+03  0.00000000000E+00 0. -1.
          1    1    1    2  502    0  0.42656324196E+02 -0.48379248912E+02 -0.13529253663E+04  0.13544619450E+04  0.00000000000E+00 0. -1.
         22    1    1    2    0    0  0.16894546188E+02 -0.80212392135E+01  0.23061997992E+02  0.29692115465E+02  0.00000000000E+00 0. -1.
         22    1    1    2    0    0 -0.25171728898E+02  0.94807606315E+01 -0.14688420168E+03  0.14932672052E+03  0.00000000000E+00 0. -1.
</event>
<event>
 6    1  0.3624778E-005  0.7907638E+02  0.7818608E-02  0.1336211E+00
          2   -1    0    0  502    0  0.00000000000E+00  0.00000000000E+00  0.32189612148E+03  0.32189612148E+03  0.00000000000E+00 0. -1.
          1   -1    0    0  501    0 -0.00000000000E+00 -0.00000000000E+00 -0.31938412183E+03  0.31938412183E+03  0.00000000000E+00 0. -1.
          2    1    1    2  501    0  0.55724477836E+00  0.22778807554E+02  0.32784969461E+02  0.39925415688E+02  0.00000000000E+00 0. -1.
          1    1    1    2  502    0 -0.45514302970E+02  0.14724845715E+02 -0.29760080866E+03  0.30142099159E+03  0.00000000000E+00 0. -1.
         22    1    1    2    0    0  0.76817039294E+02 -0.55202324959E+02  0.22500745774E+03  0.24408299868E+03  0.00000000000E+00 0. -1.
         22    1    1    2    0    0 -0.31859981102E+02  0.17698671690E+02  0.42320381112E+02  0.55850837352E+02  0.00000000000E+00 0. -1.
</event>
<event>
 6    1  0.3624778E-005  0.6423226E+02  0.7818608E-02  0.1503896E+00
          2   -1    0    0  502    0  0.00000000000E+00  0.00000000000E+00  0.40150295108E+02  0.40150295108E+02  0.00000000000E+00 0.  1.
          1   -1    0    0  501    0 -0.00000000000E+00 -0.00000000000E+00 -0.39597904860E+03  0.39597904860E+03  0.00000000000E+00 0. -1.
          2    1    1    2  501    0  0.23601129255E+02 -0.77527129897E+01 -0.10484150395E+03  0.10774441430E+03  0.00000000000E+00 0.  1.
          1    1    1    2  502    0 -0.58308482326E+01 -0.23426857035E+02 -0.18173300092E+03  0.18332948493E+03  0.00000000000E+00 0. -1.
         22    1    1    2    0    0 -0.26296359410E+02  0.25498798265E+02 -0.10324719001E+03  0.10955213132E+03  0.00000000000E+00 0. -1.
         22    1    1    2    0    0  0.85260783878E+01  0.56807717597E+01  0.33992941396E+02  0.35503313159E+02  0.00000000000E+00 0.  1.
</event>
<event>
 6    1  0.3624778E-005  0.7238410E+02  0.7818608E-02  0.1354565E+00
          2   -1    0    0  502    0  0.00000000000E+00  0.00000000000E+00  0.10043442683E+03  0.10043442683E+03  0.00000000000E+00 0.  1.
          1   -1    0    0  501    0 -0.00000000000E+00 -0.00000000000E+00 -0.10742404325E+04  0.10742404325E+04  0.00000000000E+00 0.  1.
          2    1    1    2  501    0  0.30618435735E+02 -0.15964160265E+02 -0.35883187816E+02  0.49799058100E+02  0.00000000000E+00 0.  1.
          1    1    1    2  502    0  0.15534696612E+02  0.15094179170E+02 -0.98093617877E+03  0.98117528906E+03  0.00000000000E+00 0.  1.
         22    1    1    2    0    0 -0.63537649209E+02  0.30754651685E+02  0.70324401299E+02  0.99641371354E+02  0.00000000000E+00 0.  1.
         22    1    1    2    0    0  0.17384516861E+02 -0.29884670590E+02 -0.27311040389E+02  0.44059140821E+02  0.00000000000E+00 0.  1.
</event>
<event>
 6    1  0.3624778E-005  0.8107542E+02  0.7818608E-02  0.1330518E+00
          2   -1    0    0  502    0  0.00000000000E+00  0.00000000000E+00  0.31242774734E+03  0.31242774734E+03  0.00000000000E+00 0. -1.
          1   -1    0    0  501    0 -0.00000000000E+00 -0.00000000000E+00 -0.67323658603E+03  0.67323658603E+03  0.00000000000E+00 0.  1.
          2    1    1    2  501    0  0.31893171819E+02 -0.67841313402E+00  0.32032366465E+02  0.45207379424E+02  0.00000000000E+00 0. -1.
          1    1    1    2  502    0 -0.25983036140E+02 -0.16337169415E+02 -0.65213605599E+03  0.65285791471E+03  0.00000000000E+00 0.  1.
         22    1    1    2    0    0 -0.61402514340E+02  0.27728778410E+02  0.12775501658E+03  0.14443163843E+03  0.00000000000E+00 0. -1.
         22    1    1    2    0    0  0.55492378661E+02 -0.10713195862E+02  0.13153983426E+03  0.14316740080E+03  0.00000000000E+00 0. -1.
</event>
<event>
 6    1  0.3624778E-005  0.5763301E+02  0.7818608E-02  0.1429489E+00
          2   -1    0    0  502    0  0.00000000000E+00  0.00000000000E+00  0.64870983631E+02  0.64870983631E+02  0.00000000000E+00 0.  1.
          1   -1    0    0  501    0 -0.00000000000E+00 -0.00000000000E+00 -0.32678290685E+04  0.32678290685E+04  0.00000000000E+00 0.  1.
          2    1    1    2  501    0 -0.34704121300E+02  0.13192755719E+02 -0.23082298252E+03  0.23378980751E+03  0.00000000000E+00 0.  1.
          1    1    1    2  502    0  0.54070955732E+02  0.22701898614E+02 -0.29622002909E+04  0.29627807222E+04  0.00000000000E+00 0.  1.
         22    1    1    2    0    0 -0.41634657207E+01 -0.41203792371E+02  0.55214320714E+02  0.69019621590E+02  0.00000000000E+00 0.  1.
         22    1    1    2    0    0 -0.15203368711E+02  0.53091380390E+01 -0.65149132172E+02  0.67109900832E+02  0.00000000000E+00 0.  1.
</event>
<event>
 6    1  0.3624778E-005  0.3419051E+03  0.7818608E-02  0.1192345E+00
          2   -1    0    0  502    0  0.00000000000E+00  0.00000000000E+00  0.31000419373E+03  0.31000419373E+03  0.00000000000E+00 0. -1.
          1   -1    0    0  501    0 -0.00000000000E+00 -0.00000000000E+00 -0.43783928398E+03  0.43783928398E+03  0.00000000000E+00 0. -1.
          2    1    1    2  501    0 -0.18636594646E+03 -0.20133439734E+03 -0.21941416056E+03  0.35129813465E+03  0.00000000000E+00 0. -1.
          1    1    1    2  502    0  0.19144443110E+03  0.14001001912E+03  0.89207954613E+02  0.25340054226E+03  0.00000000000E+00 0. -1.
         22    1    1    2    0    0  0.98240657451E+01  0.63926784901E+02 -0.54325001020E+02  0.84465092383E+02  0.00000000000E+00 0.  1.
         22    1    1    2    0    0 -0.14902550384E+02 -0.26024066835E+01  0.56696116719E+02  0.58679708413E+02  0.00000000000E+00 0. -1.
</event>
<event>
 6    1  0.3624778E-005  0.1574717E+03  0.7818608E-02  0.1204652E+00
          2   -1    0    0  502    0  0.00000000000E+00  0.00000000000E+00  0.29470319248E+03  0.29470319248E+03  0.00000000000E+00 0.  1.
          1   -1    0    0  501    0 -0.00000000000E+00 -0.00000000000E+00 -0.27720023591E+03  0.27720023591E+03  0.00000000000E+00 0.  1.
          2    1    1    2  501    0 -0.12198385602E+03 -0.38340672056E+02  0.12125703305E+03  0.17621956852E+03  0.00000000000E+00 0.  1.
          1    1    1    2  502    0 -0.71606954553E+01  0.66074524515E+02 -0.18280732125E+03  0.19451384283E+03  0.00000000000E+00 0.  1.
         22    1    1    2    0    0  0.10085137938E+02 -0.14304293864E+02  0.79449998515E+02  0.81354932821E+02  0.00000000000E+00 0. -1.
         22    1    1    2    0    0  0.11905941353E+03 -0.13429558595E+02 -0.39675374846E+00  0.11981508423E+03  0.00000000000E+00 0.  1.
</event>
<event>
 6    1  0.3624778E-005  0.1579950E+03  0.7818608E-02  0.1324009E+00
          2   -1    0    0  502    0  0.00000000000E+00  0.00000000000E+00  0.64510130376E+02  0.64510130376E+02  0.00000000000E+00 0. -1.
          1   -1    0    0  501    0 -0.00000000000E+00 -0.00000000000E+00 -0.51800324100E+03  0.51800324100E+03  0.00000000000E+00 0. -1.
          2    1    1    2  501    0  0.24057707834E+02  0.75533149256E+00 -0.11943326036E+03  0.12183450871E+03  0.00000000000E+00 0. -1.
          1    1    1    2  502    0 -0.25414205623E+02  0.13146437493E+03 -0.13330027613E+03  0.18893842208E+03  0.00000000000E+00 0. -1.
         22    1    1    2    0    0  0.44800823883E+01 -0.12130350284E+03 -0.21892099320E+03  0.25032181727E+03  0.00000000000E+00 0. -1.
         22    1    1    2    0    0 -0.31235845995E+01 -0.10916203583E+02  0.18161419075E+02  0.21418623304E+02  0.00000000000E+00 0. -1.
</event>
<event>
 6    1  0.3624778E-005  0.1600509E+03  0.7818608E-02  0.1281944E+00
          2   -1    0    0  502    0  0.00000000000E+00  0.00000000000E+00  0.80440659047E+02  0.80440659047E+02  0.00000000000E+00 0. -1.
          1   -1    0    0  501    0 -0.00000000000E+00 -0.00000000000E+00 -0.66816127320E+03  0.66816127320E+03  0.00000000000E+00 0. -1.
          2    1    1    2  501    0  0.29869942191E+02 -0.33229983643E+02 -0.47616398986E+03  0.47825577937E+03  0.00000000000E+00 0. -1.
          1    1    1    2  502    0 -0.94118169622E+02  0.52091972208E+02 -0.43036463481E+02  0.11586173057E+03  0.00000000000E+00 0. -1.
         22    1    1    2    0    0 -0.33778321786E+00 -0.23636800313E+02  0.29003013506E+02  0.37416403073E+02  0.00000000000E+00 0. -1.
         22    1    1    2    0    0  0.64586010649E+02  0.47748117469E+01 -0.97523174311E+02  0.11706801923E+03  0.00000000000E+00 0. -1.
</event>
<event>
 6    1  0.3624778E-005  0.1462597E+03  0.7818608E-02  0.1206690E+00
          2   -1    0    0  502    0  0.00000000000E+00  0.00000000000E+00  0.53444522138E+02  0.53444522138E+02  0.00000000000E+00 0. -1.
          1   -1    0    0  501    0 -0.00000000000E+00 -0.00000000000E+00 -0.65050890612E+03  0.65050890612E+03  0.00000000000E+00 0. -1.
          2    1    1    2  501    0  0.13710700099E+03  0.12092705534E+02 -0.41226697541E+03  0.43463619529E+03  0.00000000000E+00 0. -1.
          1    1    1    2  502    0 -0.27574107062E+02 -0.11693523325E+02 -0.44285949414E+02  0.53463213367E+02  0.00000000000E+00 0. -1.
         22    1    1    2    0    0 -0.13517077129E+03 -0.31219903971E+01 -0.10138332378E+03  0.16899545135E+03  0.00000000000E+00 0. -1.
         22    1    1    2    0    0  0.25637877359E+02  0.27228081875E+01 -0.39128135378E+02  0.46858568246E+02  0.00000000000E+00 0. -1.
</event>
<event>
 6    1  0.5473573E-005  0.9617956E+02  0.7818608E-02  0.1321617E+00
          2   -1    0    0  502    0  0.00000000000E+00  0.00000000000E+00  0.11372935239E+03  0.11372935239E+03  0.00000000000E+00 0. -1.
          1   -1    0    0  501    0 -0.00000000000E+00 -0.00000000000E+00 -0.13545742935E+04  0.13545742935E+04  0.00000000000E+00 0. -1.
          2    1    1    2  501    0 -0.63279134806E+01 -0.81136982322E+02 -0.97400654244E+03  0.97740063286E+03  0.00000000000E+00 0. -1.
          1    1    1    2  502    0 -0.11123073856E+02  0.48823514523E+02 -0.33667856968E+03  0.34038201719E+03  0.00000000000E+00 0. -1.
         22    1    1    2    0    0  0.22339186591E+01 -0.17670441417E+02 -0.31680452936E+02  0.36343995249E+02  0.00000000000E+00 0. -1.
         22    1    1    2    0    0  0.15217068677E+02  0.49983909216E+02  0.10152062399E+03  0.11417700055E+03  0.00000000000E+00 0. -1.
</event>
<event>
 6    1  0.3624778E-005  0.1310688E+03  0.7818608E-02  0.1228502E+00
          2   -1    0    0  502    0  0.00000000000E+00  0.00000000000E+00  0.10108079685E+03  0.10108079685E+03  0.00000000000E+00 0. -1.
          1   -1    0    0  501    0 -0.00000000000E+00 -0.00000000000E+00 -0.62150330783E+03  0.62150330783E+03  0.00000000000E+00 0. -1.
          2    1    1    2  501    0  0.77145149635E+02  0.46935804986E+02 -0.27473461838E+02  0.94388214345E+02  0.00000000000E+00 0. -1.
          1    1    1    2  502    0 -0.17829307700E+01  0.51006277912E+02 -0.44700968125E+03  0.44991385216E+03  0.00000000000E+00 0. -1.
         22    1    1    2    0    0  0.32385222348E+01  0.25603152521E+02 -0.57979725640E+01  0.26450442929E+02  0.00000000000E+00 0. -1.
         22    1    1    2    0    0 -0.78600741100E+02 -0.12354523542E+03 -0.40141395318E+02  0.15183159524E+03  0.00000000000E+00 0. -1.
</event>
<event>
 6    1  0.3624778E-005  0.2834644E+03  0.7818608E-02  0.1161983E+00
          2   -1    0    0  502    0  0.00000000000E+00  0.00000000000E+00  0.53842688310E+03  0.53842688310E+03  0.00000000000E+00 0.  1.
          1   -1    0    0  501    0 -0.00000000000E+00 -0.00000000000E+00 -0.30953058723E+03  0.30953058723E+03  0.00000000000E+00 0.  1.
          2    1    1    2  501    0  0.33532813580E+02  0.21800030075E+01 -0.48326995748E+02  0.58861706718E+02  0.00000000000E+00 0.  1.
          1    1    1    2  502    0 -0.47158097942E+01  0.20186496018E+02 -0.24803868201E+03  0.24890343762E+03  0.00000000000E+00 0.  1.
         22    1    1    2    0    0 -0.70151465798E+02  0.11946270509E+02  0.33605860365E+03  0.34351030060E+03  0.00000000000E+00 0.  1.
         22    1    1    2    0    0  0.41334462012E+02 -0.34312769534E+02  0.18920336998E+03  0.19668202540E+03  0.00000000000E+00 0.  1.
</event>
<event>
 6    1  0.3624778E-005  0.1159383E+03  0.7818608E-02  0.1259384E+00
          2   -1    0    0  502    0  0.00000000000E+00  0.00000000000E+00  0.69358997964E+02  0.69358997964E+02  0.00000000000E+00 0. -1.
          1   -1    0    0  501    0 -0.00000000000E+00 -0.00000000000E+00 -0.14236429747E+04  0.14236429747E+04  0.00000000000E+00 0.  1.
          2    1    1    2  501    0  0.28817649932E+02  0.61455427327E+02 -0.76963354347E+02  0.10261863577E+03  0.00000000000E+00 0. -1.
          1    1    1    2  502    0  0.50477204589E+02  0.67246474508E+00 -0.12180768145E+04  0.12191224411E+04  0.00000000000E+00 0.  1.
         22    1    1    2    0    0 -0.31888954550E+02  0.27861602700E+02 -0.55062372771E+02  0.69462502277E+02  0.00000000000E+00 0. -1.
         22    1    1    2    0    0 -0.47405899971E+02 -0.89989494772E+02 -0.41814351212E+01  0.10179839351E+03  0.00000000000E+00 0. -1.
</event>
<event>
 6    1  0.3624778E-005  0.1773262E+03  0.7818608E-02  0.1211927E+00
          2   -1    0    0  502    0  0.00000000000E+00  0.00000000000E+00  0.36188720419E+02  0.36188720419E+02  0.00000000000E+00 0. -1.
          1   -1    0    0  501    0 -0.00000000000E+00 -0.00000000000E+00 -0.15361828052E+04  0.15361828052E+04  0.00000000000E+00 0. -1.
          2    1    1    2  501    0 -0.85088826495E+02  0.11407285523E+02 -0.49721161893E+03  0.50456875504E+03  0.00000000000E+00 0. -1.
          1    1    1    2  502    0  0.97263763311E+02  0.13567036352E+03 -0.55820870655E+03  0.58263508928E+03  0.00000000000E+00 0. -1.
         22    1    1    2    0    0 -0.24494715659E+02 -0.77174802592E+02 -0.38217982503E+03  0.39066271887E+03  0.00000000000E+00 0. -1.
         22    1    1    2    0    0  0.12319778843E+02 -0.69902846446E+02 -0.62393934264E+02  0.94504962436E+02  0.00000000000E+00 0. -1.
</event>
<event>
 6    1  0.3624778E-005  0.1197331E+03  0.7818608E-02  0.1269090E+00
          2   -1    0    0  502    0  0.00000000000E+00  0.00000000000E+00  0.30990417724E+03  0.30990417724E+03  0.00000000000E+00 0. -1.
          1   -1    0    0  501    0 -0.00000000000E+00 -0.00000000000E+00 -0.67310965395E+02  0.67310965395E+02  0.00000000000E+00 0.  1.
          2    1    1    2  501    0  0.47672403759E+02  0.99054886505E+01  0.14168754271E+02  0.50710259151E+02  0.00000000000E+00 0. -1.
          1    1    1    2  502    0 -0.34714695475E+02  0.50876725971E+02  0.13919022900E+01  0.61607537845E+02  0.00000000000E+00 0.  1.
         22    1    1    2    0    0  0.37634277205E+02 -0.89734526794E+01  0.16522087796E+03  0.16969030670E+03  0.00000000000E+00 0. -1.
         22    1    1    2    0    0 -0.50591985489E+02 -0.51808761942E+02  0.61811677318E+02  0.95207038934E+02  0.00000000000E+00 0.  1.
</event>
<event>
 6    1  0.3624778E-005  0.2163757E+03  0.7818608E-02  0.1263272E+00
          2   -1    0    0  502    0  0.00000000000E+00  0.00000000000E+00  0.44396191524E+02  0.44396191524E+02  0.00000000000E+00 0. -1.
          1   -1    0    0  501    0 -0.00000000000E+00 -0.00000000000E+00 -0.10868783308E+04  0.10868783308E+04  0.00000000000E+00 0. -1.
          2    1    1    2  501    0  0.15156995268E+02 -0.84449555830E+02 -0.37271417891E+03  0.38246218263E+03  0.00000000000E+00 0. -1.
          1    1    1    2  502    0  0.83142551502E+02  0.98306619280E+02 -0.50550365308E+03  0.52164242402E+03  0.00000000000E+00 0. -1.
         22    1    1    2    0    0  0.12621121071E+02 -0.53473654243E+01  0.12342887771E+02  0.18445430128E+02  0.00000000000E+00 0. -1.
         22    1    1    2    0    0 -0.11092066784E+03 -0.85096980254E+01 -0.17660719503E+03  0.20872448551E+03  0.00000000000E+00 0. -1.
</event>
<event>
 6    1  0.3624778E-005  0.1596047E+03  0.7818608E-02  0.1239321E+00
          2   -1    0    0  502    0  0.00000000000E+00  0.00000000000E+00  0.98309387738E+03  0.98309387738E+03  0.00000000000E+00 0. -1.
          1   -1    0    0  501    0 -0.00000000000E+00 -0.00000000000E+00 -0.17376800909E+03  0.17376800909E+03  0.00000000000E+00 0. -1.
          2    1    1    2  501    0  0.65345477021E+02 -0.13229328316E+03 -0.10792984231E+03  0.18281245854E+03  0.00000000000E+00 0. -1.
          1    1    1    2  502    0 -0.26946826701E+02  0.16692509766E+03  0.69240888177E+03  0.71275534319E+03  0.00000000000E+00 0. -1.
         22    1    1    2    0    0 -0.33683582768E+02 -0.43553406932E+02  0.23824308281E+03  0.24452249285E+03  0.00000000000E+00 0. -1.
         22    1    1    2    0    0 -0.47150675517E+01  0.89215924360E+01 -0.13396253979E+02  0.16771591883E+02  0.00000000000E+00 0. -1.
</event>
<event>
 6    1  0.3624778E-005  0.9015195E+02  0.7818608E-02  0.1309580E+00
          2   -1    0    0  502    0  0.00000000000E+00  0.00000000000E+00  0.24262310851E+03  0.24262310851E+03  0.00000000000E+00 0. -1.
          1   -1    0    0  501    0 -0.00000000000E+00 -0.00000000000E+00 -0.10375922464E+03  0.10375922464E+03  0.00000000000E+00 0. -1.
          2    1    1    2  501    0 -0.45342850398E+02  0.14530467106E+02  0.39059336161E+02  0.61585227920E+02  0.00000000000E+00 0. -1.
          1    1    1    2  502    0  0.36333180935E+02  0.24922850510E+02 -0.63852846865E+02  0.77578570283E+02  0.00000000000E+00 0. -1.
         22    1    1    2    0    0  0.50660394273E+02 -0.50132302550E+02  0.53958393284E+02  0.89393688326E+02  0.00000000000E+00 0. -1.
         22    1    1    2    0    0 -0.41650724809E+02  0.10678984934E+02  0.10969900129E+03  0.11782484662E+03  0.00000000000E+00 0. -1.
</event>
<event>
 6    1  0.3624778E-005  0.9350467E+02  0.7818608E-02  0.1298157E+00
          2   -1    0    0  502    0  0.00000000000E+00  0.00000000000E+00  0.13102251888E+03  0.13102251888E+03  0.00000000000E+00 0. -1.
          1   -1    0    0  501    0 -0.00000000000E+00 -0.00000000000E+00 -0.76477409614E+03  0.76477409614E+03  0.00000000000E+00 0. -1.
          2    1    1    2  501    0  0.35879056290E+02  0.42944704316E+02  0.38180445893E+02  0.67744378052E+02  0.00000000000E+00 0. -1.
          1    1    1    2  502    0 -0.23109710956E+02 -0.24161263853E+02 -0.69824525262E+03  0.69904524762E+03  0.00000000000E+00 0. -1.
         22    1    1    2    0    0  0.49444234600E+02  0.12851737168E+02  0.29767050505E+02  0.59126785632E+02  0.00000000000E+00 0. -1.
         22    1    1    2    0    0 -0.62213579933E+02 -0.31635177631E+02 -0.34538210369E+01  0.69880203717E+02  0.00000000000E+00 0. -1.
</event>
<event>
 6    1  0.3624778E-005  0.3086648E+03  0.7818608E-02  0.1190764E+00
          2   -1    0    0  502    0  0.00000000000E+00  0.00000000000E+00  0.44348551761E+03  0.44348551761E+03  0.00000000000E+00 0. -1.
          1   -1    0    0  501    0 -0.00000000000E+00 -0.00000000000E+00 -0.53672535869E+03  0.53672535869E+03  0.00000000000E+00 0. -1.
          2    1    1    2  501    0  0.16385650079E+03 -0.18196898445E+03 -0.37972734631E+03  0.45183461763E+03  0.00000000000E+00 0. -1.
          1    1    1    2  502    0 -0.10243630023E+03  0.23047603699E+03  0.29075547869E+03  0.38490407587E+03  0.00000000000E+00 0. -1.
         22    1    1    2    0    0 -0.40257566018E+02 -0.46184090409E+02 -0.58808344178E+02  0.84923866926E+02  0.00000000000E+00 0. -1.
         22    1    1    2    0    0 -0.21162634537E+02 -0.23229621304E+01  0.54540370726E+02  0.58548315881E+02  0.00000000000E+00 0.  1.
</event>
<event>
 6    1  0.3624778E-005  0.8758784E+02  0.7818608E-02  0.1316602E+00
          2   -1    0    0  502    0  0.00000000000E+00  0.00000000000E+00  0.16357180007E+03  0.16357180007E+03  0.00000000000E+00 0. -1.
          1   -1    0    0  501    0 -0.00000000000E+00 -0.00000000000E+00 -0.57156042123E+02  0.57156042123E+02  0.00000000000E+00 0.  1.
          2    1    1    2  501    0 -0.31761175191E+02 -0.14941663357E+02  0.41305137848E+02  0.54204612036E+02  0.00000000000E+00 0. -1.
          1    1    1    2  502    0 -0.40309959778E+01  0.24610949409E+02  0.47727056266E+01  0.25391464676E+02  0.00000000000E+00 0.  1.
         22    1    1    2    0    0  0.77623585995E+02 -0.65914421129E+01  0.61373539809E+02  0.99174490675E+02  0.00000000000E+00 0.  1.
         22    1    1    2    0    0 -0.41831414827E+02 -0.30778439389E+01 -0.10356253323E+01  0.41957274811E+02  0.00000000000E+00 0. -1.
</event>
<event>
 6    1  0.3624778E-005  0.1018309E+03  0.7818608E-02  0.1360066E+00
          2   -1    0    0  502    0  0.00000000000E+00  0.00000000000E+00  0.21816731266E+03  0.21816731266E+03  0.00000000000E+00 0. -1.
          1   -1    0    0  501    0 -0.00000000000E+00 -0.00000000000E+00 -0.41508784084E+03  0.41508784084E+03  0.00000000000E+00 0. -1.
          2    1    1    2  501    0 -0.22075775042E+02  0.24891238019E+02  0.19938597052E+01  0.33330002256E+02  0.00000000000E+00 0. -1.
          1    1    1    2  502    0  0.85102044862E+02 -0.50303841529E+02 -0.36816292878E+03  0.38120437647E+03  0.00000000000E+00 0. -1.
         22    1    1    2    0    0 -0.58542109535E+02  0.47714755873E+02  0.36218122914E+02  0.83759351384E+02  0.00000000000E+00 0.  1.
         22    1    1    2    0    0 -0.44841602850E+01 -0.22302152364E+02  0.13303041798E+03  0.13496142339E+03  0.00000000000E+00 0. -1.
</event>
<event>
 6    1  0.3624778E-005  0.1176965E+03  0.7818608E-02  0.1305030E+00
          2   -1    0    0  502    0  0.00000000000E+00  0.00000000000E+00  0.92336602326E+03  0.92336602326E+03  0.00000000000E+00 0. -1.
          1   -1    0    0  501    0 -0.00000000000E+00 -0.00000000000E+00 -0.63721850891E+02  0.63721850891E+02  0.00000000000E+00 0.  1.
          2    1    1    2  501    0  0.17326889153E+02 -0.39231038572E+02  0.18092052681E+03  0.18593421550E+03  0.00000000000E+00 0. -1.
          1    1    1    2  502    0 -0.75052101895E+02  0.71920043583E+02 -0.37874540367E+01  0.10401757292E+03  0.00000000000E+00 0.  1.
         22    1    1    2    0    0  0.95981381747E+02 -0.38316537261E+02  0.49000597966E+03  0.50078582525E+03  0.00000000000E+00 0. -1.
         22    1    1    2    0    0 -0.38256169005E+02  0.56275322498E+01  0.19250511994E+03  0.19635026048E+03  0.00000000000E+00 0. -1.
</event>
<event>
 6    1  0.3624778E-005  0.5212280E+03  0.7818608E-02  0.1140475E+00
          2   -1    0    0  502    0  0.00000000000E+00  0.00000000000E+00  0.32461789658E+03  0.32461789658E+03  0.00000000000E+00 0. -1.
          1   -1    0    0  501    0 -0.00000000000E+00 -0.00000000000E+00 -0.14669317489E+04  0.14669317489E+04  0.00000000000E+00 0. -1.
          2    1    1    2  501    0  0.27028662924E+02  0.12717964133E+03 -0.39223122321E+02  0.13580744867E+03  0.00000000000E+00 0. -1.
          1    1    1    2  502    0 -0.32506502937E+03  0.11912065464E+03 -0.11901992801E+04  0.12395286726E+04  0.00000000000E+00 0. -1.
         22    1    1    2    0    0  0.28451617361E+03 -0.24230007538E+03  0.50653326083E+02  0.37712668828E+03  0.00000000000E+00 0. -1.
         22    1    1    2    0    0  0.13520192844E+02 -0.40002205967E+01  0.36455224088E+02  0.39086835925E+02  0.00000000000E+00 0.  1.
</event>
<event>
 6    1  0.3624778E-005  0.4368443E+03  0.7818608E-02  0.1095977E+00
          2   -1    0    0  502    0  0.00000000000E+00  0.00000000000E+00  0.10126283638E+04  0.10126283638E+04  0.00000000000E+00 0. -1.
          1   -1    0    0  501    0 -0.00000000000E+00 -0.00000000000E+00 -0.20464910139E+03  0.20464910139E+03  0.00000000000E+00 0. -1.
          2    1    1    2  501    0 -0.35361126049E+03 -0.14687449297E+03  0.16002562840E+03  0.41499547223E+03  0.00000000000E+00 0. -1.
          1    1    1    2  502    0  0.31977403728E+03  0.12761478149E+03  0.43634747126E+03  0.55582378777E+03  0.00000000000E+00 0. -1.
         22    1    1    2    0    0  0.19660867695E+02  0.70487082933E+02  0.12039491149E+03  0.14088972032E+03  0.00000000000E+00 0. -1.
         22    1    1    2    0    0  0.14176355514E+02 -0.51227371458E+02  0.91211251273E+02  0.10556848489E+03  0.00000000000E+00 0.  1.
</event>
<event>
 6    1  0.3624778E-005  0.1156944E+03  0.7818608E-02  0.1374467E+00
          2   -1    0    0  502    0  0.00000000000E+00  0.00000000000E+00  0.28604740725E+02  0.28604740725E+02  0.00000000000E+00 0. -1.
          1   -1    0    0  501    0 -0.00000000000E+00 -0.00000000000E+00 -0.11527458183E+04  0.11527458183E+04  0.00000000000E+00 0. -1.
          2    1    1    2  501    0  0.69923076777E+02 -0.21998837905E+01 -0.26638207509E+03  0.27541511593E+03  0.00000000000E+00 0. -1.
          1    1    1    2  502    0 -0.11509081120E+03 -0.18967713197E+01 -0.65846682252E+03  0.66845197952E+03  0.00000000000E+00 0. -1.
         22    1    1    2    0    0  0.39176351486E+02  0.14734543536E+02 -0.21417898624E+03  0.21823045487E+03  0.00000000000E+00 0. -1.
         22    1    1    2    0    0  0.59913829340E+01 -0.10637888426E+02  0.14886806321E+02  0.19253008650E+02  0.00000000000E+00 0. -1.
</event>
<event>
 6    1  0.3624778E-005  0.1219128E+03  0.7818608E-02  0.1295273E+00
          2   -1    0    0  502    0  0.00000000000E+00  0.00000000000E+00  0.62891591037E+03  0.62891591037E+03  0.00000000000E+00 0.  1.
          1   -1    0    0  501    0 -0.00000000000E+00 -0.00000000000E+00 -0.34737571775E+02  0.34737571775E+02  0.00000000000E+00 0. -1.
          2    1    1    2  501    0 -0.97387716345E+01  0.39709822982E+02  0.79664381439E+02  0.89543996919E+02  0.00000000000E+00 0.  1.
          1    1    1    2  502    0  0.63327847338E+02 -0.48534415627E+02  0.34445168717E+03  0.35357173323E+03  0.00000000000E+00 0. -1.
         22    1    1    2    0    0  0.37139493398E+02 -0.18846508674E+02  0.29792088160E+02  0.51206458343E+02  0.00000000000E+00 0. -1.
         22    1    1    2    0    0 -0.90728569101E+02  0.27671101320E+02  0.14027018183E+03  0.16933129365E+03  0.00000000000E+00 0.  1.
</event>
<event>
 6    1  0.3624778E-005  0.9113867E+02  0.7818608E-02  0.1336752E+00
          2   -1    0    0  502    0  0.00000000000E+00  0.00000000000E+00  0.10268528799E+03  0.10268528799E+03  0.00000000000E+00 0.  1.
          1   -1    0    0  501    0 -0.00000000000E+00 -0.00000000000E+00 -0.10302443173E+04  0.10302443173E+04  0.00000000000E+00 0.  1.
          2    1    1    2  501    0  0.16044083686E+02 -0.77451962375E+02 -0.29893069868E+02  0.84556577054E+02  0.00000000000E+00 0.  1.
          1    1    1    2  502    0 -0.16001218393E+02  0.83912553003E+02 -0.91969081815E+03  0.92364958535E+03  0.00000000000E+00 0.  1.
         22    1    1    2    0    0  0.29909319041E+02 -0.43042656504E+02 -0.24972480580E+02  0.58059128746E+02  0.00000000000E+00 0.  1.
         22    1    1    2    0    0 -0.29952184334E+02  0.36582065876E+02  0.46997339232E+02  0.66664314180E+02  0.00000000000E+00 0.  1.
</event>
<event>
 6    1  0.3624778E-005  0.9891211E+02  0.7818608E-02  0.1348649E+00
          2   -1    0    0  502    0  0.00000000000E+00  0.00000000000E+00  0.12680300252E+03  0.12680300252E+03  0.00000000000E+00 0. -1.
          1   -1    0    0  501    0 -0.00000000000E+00 -0.00000000000E+00 -0.11939426945E+04  0.11939426945E+04  0.00000000000E+00 0. -1.
          2    1    1    2  501    0  0.57050722818E+02  0.28723947948E+02 -0.27097490722E+02  0.69383889796E+02  0.00000000000E+00 0. -1.
          1    1    1    2  502    0 -0.85225607719E+02 -0.29559859191E+02 -0.11042649022E+04  0.11079432132E+04  0.00000000000E+00 0. -1.
         22    1    1    2    0    0  0.21433123471E+02 -0.21165756771E+02  0.98012751906E+02  0.10253715218E+03  0.00000000000E+00 0. -1.
         22    1    1    2    0    0  0.67417614289E+01  0.22001668014E+02 -0.33790050987E+02  0.40881441856E+02  0.00000000000E+00 0. -1.
</event>
<event>
 6    1  0.3624778E-005  0.2430733E+03  0.7818608E-02  0.1205456E+00
          2   -1    0    0  502    0  0.00000000000E+00  0.00000000000E+00  0.64469570659E+03  0.64469570659E+03  0.00000000000E+00 0.  1.
          1   -1    0    0  501    0 -0.00000000000E+00 -0.00000000000E+00 -0.64154486367E+03  0.64154486367E+03  0.00000000000E+00 0. -1.
          2    1    1    2  501    0  0.49350934069E+00  0.93730708590E+02  0.92693344585E+02  0.13182467680E+03  0.00000000000E+00 0.  1.
          1    1    1    2  502    0 -0.85990391620E+01  0.20149152468E+02 -0.60777724955E+03  0.60817194682E+03  0.00000000000E+00 0. -1.
         22    1    1    2    0    0  0.31205707467E+02 -0.89464885902E+02  0.49816703982E+03  0.50709778303E+03  0.00000000000E+00 0.  1.
         22    1    1    2    0    0 -0.23100177646E+02 -0.24414975156E+02  0.20067708066E+02  0.39146163620E+02  0.00000000000E+00 0.  1.
</event>
<event>
 6    1  0.3624778E-005  0.1584677E+03  0.7818608E-02  0.1194360E+00
          2   -1    0    0  502    0  0.00000000000E+00  0.00000000000E+00  0.25023311285E+03  0.25023311285E+03  0.00000000000E+00 0. -1.
          1   -1    0    0  501    0 -0.00000000000E+00 -0.00000000000E+00 -0.26182258730E+03  0.26182258730E+03  0.00000000000E+00 0. -1.
          2    1    1    2  501    0 -0.41055597497E+02  0.67077984511E+02 -0.15810749820E+03  0.17658708639E+03  0.00000000000E+00 0. -1.
          1    1    1    2  502    0 -0.99557675952E+02 -0.42131606956E+01  0.81510922857E+02  0.12873815328E+03  0.00000000000E+00 0. -1.
         22    1    1    2    0    0  0.46449251116E+01  0.26288519150E+02 -0.88866000940E+01  0.28135977496E+02  0.00000000000E+00 0. -1.
         22    1    1    2    0    0  0.13596834834E+03 -0.89153342966E+02  0.73893700980E+02  0.17859448300E+03  0.00000000000E+00 0. -1.
</event>
<event>
 6    1  0.3624778E-005  0.2106258E+03  0.7818608E-02  0.1190084E+00
          2   -1    0    0  502    0  0.00000000000E+00  0.00000000000E+00  0.25575213369E+03  0.25575213369E+03  0.00000000000E+00 0. -1.
          1   -1    0    0  501    0 -0.00000000000E+00 -0.00000000000E+00 -0.76708737791E+03  0.76708737791E+03  0.00000000000E+00 0.  1.
          2    1    1    2  501    0 -0.10051718494E+03  0.13214296481E+03 -0.21055997187E+03  0.26814356112E+03  0.00000000000E+00 0. -1.
          1    1    1    2  502    0  0.68278380150E+02 -0.19310405054E+03 -0.48253063035E+03  0.52420122163E+03  0.00000000000E+00 0.  1.
         22    1    1    2    0    0  0.55073450982E+02  0.39915797420E+02  0.18701405686E+03  0.19899902851E+03  0.00000000000E+00 0. -1.
         22    1    1    2    0    0 -0.22834646190E+02  0.21045288308E+02 -0.52586988532E+01  0.31495700345E+02  0.00000000000E+00 0.  1.
</event>
<event>
 6    1  0.3624778E-005  0.1202778E+03  0.7818608E-02  0.1316153E+00
          2   -1    0    0  502    0  0.00000000000E+00  0.00000000000E+00  0.33226433048E+02  0.33226433048E+02  0.00000000000E+00 0.  1.
          1   -1    0    0  501    0 -0.00000000000E+00 -0.00000000000E+00 -0.86016711465E+03  0.86016711465E+03  0.00000000000E+00 0.  1.
          2    1    1    2  501    0 -0.40341182757E+02 -0.52377599048E+02 -0.18749836841E+03  0.19881263055E+03  0.00000000000E+00 0.  1.
          1    1    1    2  502    0  0.26502308261E+02  0.83740940809E+02 -0.48464441077E+03  0.49253946278E+03  0.00000000000E+00 0.  1.
         22    1    1    2    0    0 -0.28906745795E+02 -0.64308248103E+01  0.89845943145E+01  0.30946379355E+02  0.00000000000E+00 0.  1.
         22    1    1    2    0    0  0.42745620290E+02 -0.24932516950E+02 -0.16378249673E+03  0.17109507501E+03  0.00000000000E+00 0.  1.
</event>
<event>
 6    1  0.3624778E-005  0.7389505E+02  0.7818608E-02  0.1362514E+00
          2   -1    0    0  502    0  0.00000000000E+00  0.00000000000E+00  0.14416091012E+03  0.14416091012E+03  0.00000000000E+00 0. -1.
          1   -1    0    0  501    0 -0.00000000000E+00 -0.00000000000E+00 -0.59516759752E+03  0.59516759752E+03  0.00000000000E+00 0. -1.
          2    1    1    2  501    0 -0.83415862649E+01  0.25521803399E+02  0.21328796088E+02  0.34290845028E+02  0.00000000000E+00 0. -1.
          1    1    1    2  502    0 -0.26424934650E+01 -0.24986338238E+02 -0.55561364205E+03  0.55618146239E+03  0.00000000000E+00 0. -1.
         22    1    1    2    0    0 -0.45491762596E+02 -0.98762333786E+00  0.80304897904E+02  0.92300338522E+02  0.00000000000E+00 0. -1.
         22    1    1    2    0    0  0.56475842326E+02  0.45215817670E+00  0.29732606551E+01  0.56555861697E+02  0.00000000000E+00 0. -1.
</event>
<event>
 6    1  0.3624778E-005  0.8690531E+02  0.7818608E-02  0.1384286E+00
          2   -1    0    0  502    0  0.00000000000E+00  0.00000000000E+00  0.64483571176E+02  0.64483571176E+02  0.00000000000E+00 0.  1.
          1   -1    0    0  501    0 -0.00000000000E+00 -0.00000000000E+00 -0.19353515997E+04  0.19353515997E+04  0.00000000000E+00 0.  1.
          2    1    1    2  501    0 -0.26123261989E+02  0.27904377833E+02 -0.10294847073E+03  0.10981560338E+03  0.00000000000E+00 0.  1.
          1    1    1    2  502    0  0.47045831351E+02 -0.57227854134E+02 -0.17604786817E+04  0.17620367551E+04  0.00000000000E+00 0.  1.
         22    1    1    2    0    0 -0.97469769644E+01  0.51169990206E+02 -0.54201617444E+02  0.75174375895E+02  0.00000000000E+00 0.  1.
         22    1    1    2    0    0 -0.11175592397E+02 -0.21846513905E+02  0.46760741356E+02  0.52808436518E+02  0.00000000000E+00 0.  1.
</event>
<event>
 6    1  0.3624778E-005  0.8411942E+02  0.7818608E-02  0.1325041E+00
          2   -1    0    0  502    0  0.00000000000E+00  0.00000000000E+00  0.19945856339E+03  0.19945856339E+03  0.00000000000E+00 0.  1.
          1   -1    0    0  501    0 -0.00000000000E+00 -0.00000000000E+00 -0.15528539382E+03  0.15528539382E+03  0.00000000000E+00 0.  1.
          2    1    1    2  501    0  0.31041398156E+02  0.61368019754E+01  0.27927110792E+02  0.42203699544E+02  0.00000000000E+00 0.  1.
          1    1    1    2  502    0 -0.89211691629E+01  0.48925780933E+02 -0.11483482625E+03  0.12514134656E+03  0.00000000000E+00 0.  1.
         22    1    1    2    0    0  0.47042100752E+02 -0.41371642028E+02  0.71766280387E+02  0.95262642247E+02  0.00000000000E+00 0.  1.
         22    1    1    2    0    0 -0.69162329746E+02 -0.13690940880E+02  0.59314604631E+02  0.92136268866E+02  0.00000000000E+00 0.  1.
</event>
<event>
 6    1  0.5791356E-005  0.5661920E+02  0.7818608E-02  0.1446183E+00
          2   -1    0    0  502    0  0.00000000000E+00  0.00000000000E+00  0.79151358094E+02  0.79151358094E+02  0.00000000000E+00 0. -1.
          1   -1    0    0  501    0 -0.00000000000E+00 -0.00000000000E+00 -0.14263013132E+04  0.14263013132E+04  0.00000000000E+00 0. -1.
          2    1    1    2  501    0 -0.36163212899E+02 -0.22065059591E+02 -0.90914437941E+02  0.10029994939E+03  0.00000000000E+00 0. -1.
          1    1    1    2  502    0  0.28295906970E+02  0.40823472589E+02 -0.12750528002E+04  0.12760199283E+04  0.00000000000E+00 0. -1.
         22    1    1    2    0    0  0.20960356933E+02 -0.26779580557E+02  0.68853400173E+02  0.76793705555E+02  0.00000000000E+00 0. -1.
         22    1    1    2    0    0 -0.13093051004E+02  0.80211675585E+01 -0.50036117198E+02  0.52339088049E+02  0.00000000000E+00 0.  1.
</event>
<event>
 6    1  0.3624778E-005  0.2316083E+03  0.7818608E-02  0.1229927E+00
          2   -1    0    0  502    0  0.00000000000E+00  0.00000000000E+00  0.29133889081E+03  0.29133889081E+03  0.00000000000E+00 0. -1.
          1   -1    0    0  501    0 -0.00000000000E+00 -0.00000000000E+00 -0.73455786508E+03  0.73455786508E+03  0.00000000000E+00 0.  1.
          2    1    1    2  501    0  0.58391212195E+02  0.71845882911E+02  0.13951801366E+01  0.92592176131E+02  0.00000000000E+00 0. -1.
          1    1    1    2  502    0  0.38108043555E+02  0.35737860223E+02 -0.64969115298E+03  0.65178831832E+03  0.00000000000E+00 0.  1.
         22    1    1    2    0    0 -0.96375016560E+02 -0.85741736511E+02  0.74167783421E+02  0.14879734304E+03  0.00000000000E+00 0. -1.
         22    1    1    2    0    0 -0.12423919044E+00 -0.21842006624E+02  0.13090921516E+03  0.13271891840E+03  0.00000000000E+00 0. -1.
</event>
<event>
 6    1  0.3624778E-005  0.2938619E+03  0.7818608E-02  0.1176044E+00
          2   -1    0    0  502    0  0.00000000000E+00  0.00000000000E+00  0.54592324054E+03  0.54592324054E+03  0.00000000000E+00 0.  1.
          1   -1    0    0  501    0 -0.00000000000E+00 -0.00000000000E+00 -0.66815681025E+03  0.66815681025E+03  0.00000000000E+00 0.  1.
          2    1    1    2  501    0  0.13610182812E+03  0.64215078377E+02  0.11454773406E+03  0.18912553315E+03  0.00000000000E+00 0.  1.
          1    1    1    2  502    0 -0.13276519503E+03 -0.17364335777E+01 -0.61131383332E+03  0.62556711472E+03  0.00000000000E+00 0.  1.
         22    1    1    2    0    0  0.59212780401E+01  0.33767297303E+02  0.49023743814E+02  0.59821562654E+02  0.00000000000E+00 0.  1.
         22    1    1    2    0    0 -0.92579111305E+01 -0.96245942103E+02  0.32550878573E+03  0.33956584027E+03  0.00000000000E+00 0. -1.
</event>
<event>
 6    1  0.3624778E-005  0.3250404E+03  0.7818608E-02  0.1199424E+00
          2   -1    0    0  502    0  0.00000000000E+00  0.00000000000E+00  0.17890308977E+03  0.17890308977E+03  0.00000000000E+00 0. -1.
          1   -1    0    0  501    0 -0.00000000000E+00 -0.00000000000E+00 -0.88427869939E+03  0.88427869939E+03  0.00000000000E+00 0.  1.
          2    1    1    2  501    0  0.10025723721E+03 -0.14436032166E+03  0.61122182114E+01  0.17586578773E+03  0.00000000000E+00 0. -1.
          1    1    1    2  502    0 -0.98717188300E+02  0.26834169030E+03 -0.63887395365E+03  0.69993733625E+03  0.00000000000E+00 0.  1.
         22    1    1    2    0    0 -0.16560156155E+02 -0.12262098853E+03 -0.98005669874E+02  0.15784567440E+03  0.00000000000E+00 0.  1.
         22    1    1    2    0    0  0.15020107246E+02 -0.13603801189E+01  0.25391795698E+02  0.29532990781E+02  0.00000000000E+00 0. -1.
</event>
<event>
 6    1  0.3624778E-005  0.7483024E+02  0.7818608E-02  0.1348335E+00
          2   -1    0    0  502    0  0.00000000000E+00  0.00000000000E+00  0.33171460327E+02  0.33171460327E+02  0.00000000000E+00 0.  1.
          1   -1    0    0  501    0 -0.00000000000E+00 -0.00000000000E+00 -0.32517300657E+03  0.32517300657E+03  0.00000000000E+00 0. -1.
          2    1    1    2  501    0 -0.11878488781E+02 -0.23351258952E+02 -0.16741854350E+02  0.31091308713E+02  0.00000000000E+00 0.  1.
          1    1    1    2  502    0  0.50211581212E+01 -0.21387490064E+02 -0.12074227752E+03  0.12272462810E+03  0.00000000000E+00 0. -1.
         22    1    1    2    0    0 -0.43598036797E+02 -0.14735030121E+02 -0.22577267477E+02  0.51260539716E+02  0.00000000000E+00 0.  1.
         22    1    1    2    0    0  0.50455367458E+02  0.59473779138E+02 -0.13194014689E+03  0.15326799037E+03  0.00000000000E+00 0. -1.
</event>
<event>
 6    1  0.3624778E-005  0.7533785E+02  0.7818608E-02  0.1383570E+00
          2   -1    0    0  502    0  0.00000000000E+00  0.00000000000E+00  0.48424564191E+02  0.48424564191E+02  0.00000000000E+00 0. -1.
          1   -1    0    0  501    0 -0.00000000000E+00 -0.00000000000E+00 -0.34782475635E+03  0.34782475635E+03  0.00000000000E+00 0. -1.
          2    1    1    2  501    0  0.20307106461E+02  0.37608836771E+02 -0.19656410332E+03  0.20115727650E+03  0.00000000000E+00 0. -1.
          1    1    1    2  502    0  0.24509955325E+02 -0.11348284343E+02 -0.25163436022E+02  0.36915037315E+02  0.00000000000E+00 0. -1.
         22    1    1    2    0    0 -0.38790360339E+02 -0.19292213206E+01  0.29081418608E+02  0.48519510080E+02  0.00000000000E+00 0. -1.
         22    1    1    2    0    0 -0.60267014477E+01 -0.24331331108E+02 -0.10675407142E+03  0.10965749664E+03  0.00000000000E+00 0.  1.
</event>
<event>
 6    1  0.3624778E-005  0.1249076E+03  0.7818608E-02  0.1310479E+00
          2   -1    0    0  502    0  0.00000000000E+00  0.00000000000E+00  0.12414669146E+03  0.12414669146E+03  0.00000000000E+00 0.  1.
          1   -1    0    0  501    0 -0.00000000000E+00 -0.00000000000E+00 -0.11499501343E+04  0.11499501343E+04  0.00000000000E+00 0.  1.
          2    1    1    2  501    0  0.59901137147E+02 -0.45223314717E+01  0.13839155060E+02  0.61645112752E+02  0.00000000000E+00 0.  1.
          1    1    1    2  502    0 -0.18153991593E+01 -0.31112072916E+02 -0.10704481056E+04  0.10709016778E+04  0.00000000000E+00 0.  1.
         22    1    1    2    0    0 -0.35884232560E+02  0.54744574786E+02 -0.31544463666E+02  0.72661542805E+02  0.00000000000E+00 0.  1.
         22    1    1    2    0    0 -0.22201505428E+02 -0.19110170398E+02  0.62349971364E+02  0.68888492399E+02  0.00000000000E+00 0.  1.
</event>
<event>
 6    1  0.3624778E-005  0.8707041E+02  0.7818608E-02  0.1392648E+00
          2   -1    0    0  502    0  0.00000000000E+00  0.00000000000E+00  0.44188640671E+02  0.44188640671E+02  0.00000000000E+00 0. -1.
          1   -1    0    0  501    0 -0.00000000000E+00 -0.00000000000E+00 -0.58441573169E+03  0.58441573169E+03  0.00000000000E+00 0. -1.
          2    1    1    2  501    0 -0.21751199049E+02 -0.11575071035E+02 -0.31947499707E+01  0.24845590291E+02  0.00000000000E+00 0. -1.
          1    1    1    2  502    0  0.48298456440E+02 -0.10927657532E+01 -0.44135382426E+03  0.44399001477E+03  0.00000000000E+00 0. -1.
         22    1    1    2    0    0 -0.13952267139E+01 -0.21279544233E+02  0.24440426881E+02  0.32436092959E+02  0.00000000000E+00 0. -1.
         22    1    1    2    0    0 -0.25152030677E+02  0.33947381021E+02 -0.12011894367E+03  0.12733267434E+03  0.00000000000E+00 0. -1.
</event>
<event>
 6    1  0.3624778E-005  0.1480186E+03  0.7818608E-02  0.1311813E+00
          2   -1    0    0  502    0  0.00000000000E+00  0.00000000000E+00  0.87448983722E+02  0.87448983722E+02  0.00000000000E+00 0.  1.
          1   -1    0    0  501    0 -0.00000000000E+00 -0.00000000000E+00 -0.57693153810E+03  0.57693153810E+03  0.00000000000E+00 0. -1.
          2    1    1    2  501    0 -0.21726020751E+02 -0.58527588892E+01 -0.24400831118E+02  0.33191494747E+02  0.00000000000E+00 0.  1.
          1    1    1    2  502    0 -0.54102868335E+02 -0.88649158778E+02 -0.44619756510E+03  0.45812450362E+03  0.00000000000E+00 0. -1.
         22    1    1    2    0    0  0.67359289808E+02  0.10945237080E+03 -0.49690166097E+02  0.13779044961E+03  0.00000000000E+00 0.  1.
         22    1    1    2    0    0  0.84695992789E+01 -0.14950453129E+02  0.30806007939E+02  0.35274073848E+02  0.00000000000E+00 0. -1.
</event>
<event>
 6    1  0.3624778E-005  0.6414137E+02  0.7818608E-02  0.1420834E+00
          2   -1    0    0  502    0  0.00000000000E+00  0.00000000000E+00  0.96105080976E+02  0.96105080976E+02  0.00000000000E+00 0.  1.
          1   -1    0    0  501    0 -0.00000000000E+00 -0.00000000000E+00 -0.12975209859E+03  0.12975209859E+03  0.00000000000E+00 0. -1.
          2    1    1    2  501    0  0.28938371859E+02 -0.22449528211E+02 -0.21585905746E+02  0.42513080453E+02  0.00000000000E+00 0.  1.
          1    1    1    2  502    0 -0.45193160979E+02  0.16570585916E+02 -0.20881493203E+02  0.52469447064E+02  0.00000000000E+00 0. -1.
         22    1    1    2    0    0 -0.63673884362E+01 -0.19886223563E+02 -0.54777873029E+02  0.58622699500E+02  0.00000000000E+00 0. -1.
         22    1    1    2    0    0  0.22622177556E+02  0.25765165857E+02  0.63598254364E+02  0.72251952549E+02  0.00000000000E+00 0.  1.
</event>
<event>
 6    1  0.3624778E-005  0.1207134E+03  0.7818608E-02  0.1307935E+00
          2   -1    0    0  502    0  0.00000000000E+00  0.00000000000E+00  0.16306196480E+03  0.16306196480E+03  0.00000000000E+00 0. -1.
          1   -1    0    0  501    0 -0.00000000000E+00 -0.00000000000E+00 -0.12911698916E+04  0.12911698916E+04  0.00000000000E+00 0. -1.
          2    1    1    2  501    0 -0.84383235871E+01  0.38605113516E+02 -0.12984925894E+03  0.13572910573E+03  0.00000000000E+00 0. -1.
          1    1    1    2  502    0  0.44031151749E+02 -0.18669322102E+02 -0.11326682916E+04  0.11336775312E+04  0.00000000000E+00 0. -1.
         22    1    1    2    0    0  0.11672436706E+02 -0.31922751019E+02  0.13167037968E+03  0.13598675191E+03  0.00000000000E+00 0. -1.
         22    1    1    2    0    0 -0.47265264869E+02  0.11986959604E+02  0.27392440076E+01  0.48838467640E+02  0.00000000000E+00 0. -1.
</event>
<event>
 6    1  0.3624778E-005  0.1398283E+03  0.7818608E-02  0.1278500E+00
          2   -1    0    0  502    0  0.00000000000E+00  0.00000000000E+00  0.62080396127E+02  0.62080396127E+02  0.00000000000E+00 0.  1.
          1   -1    0    0  501    0 -0.00000000000E+00 -0.00000000000E+00 -0.31354965757E+03  0.31354965757E+03  0.00000000000E+00 0.  1.
          2    1    1    2  501    0  0.21220216289E+02  0.46469234938E+02 -0.50219676112E+02  0.71635907504E+02  0.00000000000E+00 0.  1.
          1    1    1    2  502    0  0.27656121766E+02  0.11034641376E+01 -0.15088544747E+03  0.15340305395E+03  0.00000000000E+00 0.  1.
         22    1    1    2    0    0  0.35527523692E+02 -0.11607456283E+01  0.99877779402E+01  0.36923000667E+02  0.00000000000E+00 0. -1.
         22    1    1    2    0    0 -0.84403861747E+02 -0.46411953447E+02 -0.60351915802E+02  0.11366809157E+03  0.00000000000E+00 0.  1.
</event>
<event>
 6    1  0.3624778E-005  0.1986396E+03  0.7818608E-02  0.1225342E+00
          2   -1    0    0  502    0  0.00000000000E+00  0.00000000000E+00  0.11057427402E+04  0.11057427402E+04  0.00000000000E+00 0.  1.
          1   -1    0    0  501    0 -0.00000000000E+00 -0.00000000000E+00 -0.20579672521E+02  0.20579672521E+02  0.00000000000E+00 0.  1.
          2    1    1    2  501    0 -0.72375451112E+01 -0.64204404888E+02  0.11796268930E+03  0.13449826665E+03  0.00000000000E+00 0.  1.
          1    1    1    2  502    0  0.37941601034E+01 -0.49856667626E+02  0.26546240063E+03  0.27013028172E+03  0.00000000000E+00 0.  1.
         22    1    1    2    0    0 -0.33124036288E+02  0.12467204037E+03  0.49849979054E+03  0.51491976132E+03  0.00000000000E+00 0.  1.
         22    1    1    2    0    0  0.36567421296E+02 -0.10610967855E+02  0.20323818718E+03  0.20677410299E+03  0.00000000000E+00 0. -1.
</event>
<event>
 6    1  0.3624778E-005  0.9810006E+02  0.7818608E-02  0.1285950E+00
          2   -1    0    0  502    0  0.00000000000E+00  0.00000000000E+00  0.18480396987E+03  0.18480396987E+03  0.00000000000E+00 0. -1.
          1   -1    0    0  501    0 -0.00000000000E+00 -0.00000000000E+00 -0.46741746200E+03  0.46741746200E+03  0.00000000000E+00 0.  1.
          2    1    1    2  501    0  0.62017581058E+02 -0.32009458336E+02  0.46056422787E+02  0.83618059432E+02  0.00000000000E+00 0. -1.
          1    1    1    2  502    0 -0.31658910133E+02  0.14569642673E+02 -0.41430122766E+03  0.41576443850E+03  0.00000000000E+00 0.  1.
         22    1    1    2    0    0 -0.70018978178E+02  0.34035154611E+02  0.32175534591E+02  0.84239622985E+02  0.00000000000E+00 0.  1.
         22    1    1    2    0    0  0.39660307253E+02 -0.16595338947E+02  0.53455778152E+02  0.68599310959E+02  0.00000000000E+00 0. -1.
</event>
<event>
 6    1  0.3624778E-005  0.4280873E+03  0.7818608E-02  0.1173434E+00
          2   -1    0    0  502    0  0.00000000000E+00  0.00000000000E+00  0.38488298409E+02  0.38488298409E+02  0.00000000000E+00 0.  1.
          1   -1    0    0  501    0 -0.00000000000E+00 -0.00000000000E+00 -0.17140127978E+04  0.17140127978E+04  0.00000000000E+00 0.  1.
          2    1    1    2  501    0  0.21358651329E+03 -0.15741869745E+01 -0.50356841133E+03  0.54699435245E+03  0.00000000000E+00 0.  1.
          1    1    1    2  502    0 -0.24721782847E+02  0.37855898378E+02 -0.32175247580E+03  0.32491366742E+03  0.00000000000E+00 0.  1.
         22    1    1    2    0    0  0.60072013021E+01 -0.10116472166E+02 -0.49371219240E+01  0.12759492524E+02  0.00000000000E+00 0. -1.
         22    1    1    2    0    0 -0.19487193174E+03 -0.26165239237E+02 -0.84526649038E+03  0.86783358386E+03  0.00000000000E+00 0.  1.
</event>
<event>
 6    1  0.3624778E-005  0.4371667E+02  0.7818608E-02  0.1493176E+00
          2   -1    0    0  502    0  0.00000000000E+00  0.00000000000E+00  0.99593747766E+02  0.99593747766E+02  0.00000000000E+00 0. -1.
          1   -1    0    0  501    0 -0.00000000000E+00 -0.00000000000E+00 -0.30990713797E+03  0.30990713797E+03  0.00000000000E+00 0. -1.
          2    1    1    2  501    0 -0.31470402355E+02 -0.25073625190E+02 -0.24830230767E+03  0.25154146557E+03  0.00000000000E+00 0. -1.
          1    1    1    2  502    0  0.20690629752E+02 -0.80397538679E+01  0.30769071058E+01  0.22409979008E+02  0.00000000000E+00 0. -1.
         22    1    1    2    0    0 -0.11617059902E+02  0.29329715451E+01 -0.45359577303E+02  0.46915345634E+02  0.00000000000E+00 0.  1.
         22    1    1    2    0    0  0.22396832505E+02  0.30180407513E+02  0.80271587664E+02  0.88634095528E+02  0.00000000000E+00 0. -1.
</event>
<event>
 6    1  0.3624778E-005  0.1833082E+03  0.7818608E-02  0.1296720E+00
          2   -1    0    0  502    0  0.00000000000E+00  0.00000000000E+00  0.51629941853E+02  0.51629941853E+02  0.00000000000E+00 0.  1.
          1   -1    0    0  501    0 -0.00000000000E+00 -0.00000000000E+00 -0.59566318781E+03  0.59566318781E+03  0.00000000000E+00 0.  1.
          2    1    1    2  501    0  0.41943227437E+02 -0.67751029998E+02 -0.12844950004E+03  0.15115789908E+03  0.00000000000E+00 0.  1.
          1    1    1    2  502    0  0.31378201440E+02 -0.17206190562E+02 -0.27918095566E+03  0.28146518528E+03  0.00000000000E+00 0.  1.
         22    1    1    2    0    0 -0.11262339922E+01  0.11873706338E+02  0.22492073211E+02  0.25458724684E+02  0.00000000000E+00 0.  1.
         22    1    1    2    0    0 -0.72195194884E+02  0.73083514223E+02 -0.15889486347E+03  0.18921132062E+03  0.00000000000E+00 0.  1.
</event>
<event>
 6    1  0.3624778E-005  0.5965595E+02  0.7818608E-02  0.1404300E+00
          2   -1    0    0  502    0  0.00000000000E+00  0.00000000000E+00  0.22763009627E+03  0.22763009627E+03  0.00000000000E+00 0. -1.
          1   -1    0    0  501    0 -0.00000000000E+00 -0.00000000000E+00 -0.79897830595E+03  0.79897830595E+03  0.00000000000E+00 0.  1.
          2    1    1    2  501    0 -0.51497818426E+02  0.40452108338E+02  0.13912425718E+02  0.66947396970E+02  0.00000000000E+00 0. -1.
          1    1    1    2  502    0  0.42821285316E+02 -0.14636797431E+02 -0.74885862608E+03  0.75022472645E+03  0.00000000000E+00 0.  1.
         22    1    1    2    0    0  0.33339868022E+02 -0.39991293521E+02  0.17205368195E+03  0.17975906049E+03  0.00000000000E+00 0. -1.
         22    1    1    2    0    0 -0.24663334911E+02  0.14175982615E+02 -0.84556912657E+01  0.29677218313E+02  0.00000000000E+00 0.  1.
</event>
<event>
 6    1  0.3624778E-005  0.1006873E+03  0.7818608E-02  0.1280349E+00
          2   -1    0    0  502    0  0.00000000000E+00  0.00000000000E+00  0.93485177346E+02  0.93485177346E+02  0.00000000000E+00 0. -1.
          1   -1    0    0  501    0 -0.00000000000E+00 -0.00000000000E+00 -0.18281052269E+04  0.18281052269E+04  0.00000000000E+00 0.  1.
          2    1    1    2  501    0  0.59651932115E+02 -0.69481277688E+02 -0.31067674418E+02  0.96701609852E+02  0.00000000000E+00 0. -1.
          1    1    1    2  502    0 -0.23202328220E+02  0.28911015347E+02 -0.16917674709E+04  0.16921735639E+04  0.00000000000E+00 0.  1.
         22    1    1    2    0    0  0.20941276743E+02 -0.25987572459E+02 -0.27735337990E+02  0.43395160645E+02  0.00000000000E+00 0.  1.
         22    1    1    2    0    0 -0.57390880638E+02  0.66557834800E+02  0.15950433674E+02  0.89320069906E+02  0.00000000000E+00 0. -1.
</event>
<event>
 6    1  0.3624778E-005  0.1979837E+03  0.7818608E-02  0.1203803E+00
          2   -1    0    0  502    0  0.00000000000E+00  0.00000000000E+00  0.19398348365E+03  0.19398348365E+03  0.00000000000E+00 0. -1.
          1   -1    0    0  501    0 -0.00000000000E+00 -0.00000000000E+00 -0.46214542555E+03  0.46214542555E+03  0.00000000000E+00 0. -1.
          2    1    1    2  501    0  0.14874448373E+03  0.25305333415E+02 -0.15494924589E+03  0.21627424753E+03  0.00000000000E+00 0. -1.
          1    1    1    2  502    0 -0.20858534433E+03 -0.89326248254E+02 -0.16214833785E+03  0.27888906032E+03  0.00000000000E+00 0. -1.
         22    1    1    2    0    0  0.34455121970E+02  0.49972090738E+02  0.91289323109E+02  0.10962712163E+03  0.00000000000E+00 0. -1.
         22    1    1    2    0    0  0.25385738633E+02  0.14048824102E+02 -0.42353681264E+02  0.51338479732E+02  0.00000000000E+00 0. -1.
</event>
<event>
 6    1  0.3624778E-005  0.1588590E+03  0.7818608E-02  0.1236314E+00
          2   -1    0    0  502    0  0.00000000000E+00  0.00000000000E+00  0.33475122222E+02  0.33475122222E+02  0.00000000000E+00 0. -1.
          1   -1    0    0  501    0 -0.00000000000E+00 -0.00000000000E+00 -0.98272334932E+03  0.98272334932E+03  0.00000000000E+00 0. -1.
          2    1    1    2  501    0 -0.50254446600E+02  0.12969646166E+02 -0.38130691046E+03  0.38482292173E+03  0.00000000000E+00 0. -1.
          1    1    1    2  502    0  0.53334139660E+02  0.86734701433E+02 -0.12878232001E+03  0.16417163224E+03  0.00000000000E+00 0. -1.
         22    1    1    2    0    0 -0.59274203721E+02 -0.80555288838E+02 -0.26974496373E+03  0.28768894877E+03  0.00000000000E+00 0. -1.
         22    1    1    2    0    0  0.56194510662E+02 -0.19149058761E+02 -0.16941403289E+03  0.17951496879E+03  0.00000000000E+00 0. -1.
</event>
<event>
 6    1  0.3624778E-005  0.1099477E+03  0.7818608E-02  0.1262768E+00
          2   -1    0    0  502    0  0.00000000000E+00  0.00000000000E+00  0.13608837503E+03  0.13608837503E+03  0.00000000000E+00 0. -1.
          1   -1    0    0  501    0 -0.00000000000E+00 -0.00000000000E+00 -0.81104369452E+03  0.81104369452E+03  0.00000000000E+00 0.  1.
          2    1    1    2  501    0  0.43409412905E+02  0.77543964130E+02  0.19307129233E+02  0.90940688039E+02  0.00000000000E+00 0. -1.
          1    1    1    2  502    0 -0.77809803221E+02 -0.15637615266E+02 -0.70927342519E+03  0.71370000152E+03  0.00000000000E+00 0.  1.
         22    1    1    2    0    0  0.30343980674E+02 -0.96274015450E+02 -0.74786387364E+01  0.10121943119E+03  0.00000000000E+00 0. -1.
         22    1    1    2    0    0  0.40564096417E+01  0.34367666585E+02  0.22489615196E+02  0.41271948796E+02  0.00000000000E+00 0.  1.
</event>
<event>
 6    1  0.3624778E-005  0.1972326E+03  0.7818608E-02  0.1229858E+00
          2   -1    0    0  502    0  0.00000000000E+00  0.00000000000E+00  0.15120732789E+03  0.15120732789E+03  0.00000000000E+00 0.  1.
          1   -1    0    0  501    0 -0.00000000000E+00 -0.00000000000E+00 -0.11778598149E+04  0.11778598149E+04  0.00000000000E+00 0.  1.
          2    1    1    2  501    0 -0.22235408701E+02  0.70144380789E+02 -0.36566912411E+02  0.82169256048E+02  0.00000000000E+00 0.  1.
          1    1    1    2  502    0 -0.18968363299E+02 -0.30148511106E+02 -0.10828642305E+04  0.10834498942E+04  0.00000000000E+00 0.  1.
         22    1    1    2    0    0 -0.34877024049E+02  0.61771905820E+01  0.75187828198E+00  0.35427811264E+02  0.00000000000E+00 0. -1.
         22    1    1    2    0    0  0.76080796049E+02 -0.46173060264E+02  0.92026777605E+02  0.12802018129E+03  0.00000000000E+00 0.  1.
</event>
<event>
 6    1  0.3624778E-005  0.1458218E+03  0.7818608E-02  0.1259470E+00
          2   -1    0    0  502    0  0.00000000000E+00  0.00000000000E+00  0.39906270656E+02  0.39906270656E+02  0.00000000000E+00 0. -1.
          1   -1    0    0  501    0 -0.00000000000E+00 -0.00000000000E+00 -0.64203020940E+03  0.64203020940E+03  0.00000000000E+00 0. -1.
          2    1    1    2  501    0  0.22057358198E+02  0.37965283245E+02 -0.46547323865E+03  0.46753954451E+03  0.00000000000E+00 0. -1.
          1    1    1    2  502    0  0.75843186404E+01  0.21876032484E+02 -0.97115790249E+01  0.25107717014E+02  0.00000000000E+00 0. -1.
         22    1    1    2    0    0  0.30059215307E+02 -0.38377464155E+02 -0.15602102612E+01  0.48773152819E+02  0.00000000000E+00 0. -1.
         22    1    1    2    0    0 -0.59700892145E+02 -0.21463851574E+02 -0.12537891080E+03  0.14051606571E+03  0.00000000000E+00 0.  1.
</event>
<event>
 6    1  0.3624778E-005  0.2020677E+03  0.7818608E-02  0.1231791E+00
          2   -1    0    0  502    0  0.00000000000E+00  0.00000000000E+00  0.10707175583E+03  0.10707175583E+03  0.00000000000E+00 0.  1.
          1   -1    0    0  501    0 -0.00000000000E+00 -0.00000000000E+00 -0.10141774723E+04  0.10141774723E+04  0.00000000000E+00 0. -1.
          2    1    1    2  501    0  0.12855520922E+03  0.21745416697E+01 -0.42182839551E+02  0.13531652671E+03  0.00000000000E+00 0.  1.
          1    1    1    2  502    0 -0.18865409977E+03  0.43242077627E+02 -0.80432967618E+03  0.82728862836E+03  0.00000000000E+00 0. -1.
         22    1    1    2    0    0  0.76818691966E+02 -0.18542637500E+02  0.11548875608E+02  0.79864368580E+02  0.00000000000E+00 0. -1.
         22    1    1    2    0    0 -0.16719801412E+02 -0.26873981796E+02 -0.72142076309E+02  0.78779704436E+02  0.00000000000E+00 0.  1.
</event>
<event>
 6    1  0.3624778E-005  0.7395399E+02  0.7818608E-02  0.1357881E+00
          2   -1    0    0  502    0  0.00000000000E+00  0.00000000000E+00  0.37578063355E+02  0.37578063355E+02  0.00000000000E+00 0. -1.
          1   -1    0    0  501    0 -0.00000000000E+00 -0.00000000000E+00 -0.42039770254E+03  0.42039770254E+03  0.00000000000E+00 0. -1.
          2    1    1    2  501    0 -0.26754908110E+02 -0.28983428878E+02 -0.75594193307E+02  0.85266325823E+02  0.00000000000E+00 0. -1.
          1    1    1    2  502    0 -0.27539748031E+02  0.60650316652E+02 -0.15408301739E+03  0.16786445389E+03  0.00000000000E+00 0. -1.
         22    1    1    2    0    0  0.59672374069E+02  0.15343296496E+02 -0.21992932924E+02  0.65420929931E+02  0.00000000000E+00 0. -1.
         22    1    1    2    0    0 -0.53777179276E+01 -0.47010184270E+02 -0.13114949556E+03  0.13942405625E+03  0.00000000000E+00 0. -1.
</event>
<event>
 6    1  0.3624778E-005  0.8517223E+02  0.7818608E-02  0.1392759E+00
          2   -1    0    0  502    0  0.00000000000E+00  0.00000000000E+00  0.41072562538E+02  0.41072562538E+02  0.00000000000E+00 0.  1.
          1   -1    0    0  501    0 -0.00000000000E+00 -0.00000000000E+00 -0.46527510303E+03  0.46527510303E+03  0.00000000000E+00 0. -1.
          2    1    1    2  501    0 -0.30214502984E+02  0.48474039233E+02 -0.96703341504E+02  0.11231288852E+03  0.00000000000E+00 0.  1.
          1    1    1    2  502    0  0.49966132810E+01 -0.25093195656E+02 -0.23320923616E+03  0.23460857282E+03  0.00000000000E+00 0. -1.
         22    1    1    2    0    0  0.22717641187E+02 -0.10646826776E+01  0.27441581964E+02  0.35640779887E+02  0.00000000000E+00 0.  1.
         22    1    1    2    0    0  0.25002485159E+01 -0.22316160899E+02 -0.12173154480E+03  0.12378542434E+03  0.00000000000E+00 0. -1.
</event>
<event>
 6    1  0.3624778E-005  0.1739927E+03  0.7818608E-02  0.1211844E+00
          2   -1    0    0  502    0  0.00000000000E+00  0.00000000000E+00  0.16647179764E+03  0.16647179764E+03  0.00000000000E+00 0.  1.
          1   -1    0    0  501    0 -0.00000000000E+00 -0.00000000000E+00 -0.44272714497E+03  0.44272714497E+03  0.00000000000E+00 0. -1.
          2    1    1    2  501    0 -0.38141914893E+02  0.55828000828E+02  0.70626521508E+01  0.67981265093E+02  0.00000000000E+00 0.  1.
          1    1    1    2  502    0  0.15187287924E+03  0.22794735608E+02 -0.31608144330E+03  0.35141492600E+03  0.00000000000E+00 0. -1.
         22    1    1    2    0    0 -0.90265792718E+02 -0.71026635598E+01  0.61256423949E+02  0.10931930589E+03  0.00000000000E+00 0.  1.
         22    1    1    2    0    0 -0.23465171625E+02 -0.71520072876E+02 -0.28492980134E+02  0.80483445630E+02  0.00000000000E+00 0. -1.
</event>
<event>
 6    1  0.3624778E-005  0.9349477E+02  0.7818608E-02  0.1347704E+00
          2   -1    0    0  502    0  0.00000000000E+00  0.00000000000E+00  0.45134277748E+02  0.45134277748E+02  0.00000000000E+00 0.  1.
          1   -1    0    0  501    0 -0.00000000000E+00 -0.00000000000E+00 -0.16201274127E+04  0.16201274127E+04  0.00000000000E+00 0.  1.
          2    1    1    2  501    0  0.17674067098E+02  0.18600241892E+02 -0.56397821854E+02  0.61960115850E+02  0.00000000000E+00 0.  1.
          1    1    1    2  502    0 -0.84764647595E+02 -0.45473600757E+02 -0.14250296678E+04  0.14282725399E+04  0.00000000000E+00 0.  1.
         22    1    1    2    0    0  0.42908234890E+02 -0.13046232921E+00 -0.12176437674E+03  0.12910343561E+03  0.00000000000E+00 0.  1.
         22    1    1    2    0    0  0.24182345606E+02  0.27003821195E+02  0.28198731497E+02  0.45925599137E+02  0.00000000000E+00 0.  1.
</event>
<event>
 6    1  0.3624778E-005  0.1577698E+03  0.7818608E-02  0.1249015E+00
          2   -1    0    0  502    0  0.00000000000E+00  0.00000000000E+00  0.58317584208E+02  0.58317584208E+02  0.00000000000E+00 0.  1.
          1   -1    0    0  501    0 -0.00000000000E+00 -0.00000000000E+00 -0.42638039165E+03  0.42638039165E+03  0.00000000000E+00 0.  1.
          2    1    1    2  501    0  0.31078244697E+02 -0.47905979951E+01 -0.92520844900E+02  0.97718544113E+02  0.00000000000E+00 0.  1.
          1    1    1    2  502    0  0.20584556712E+02 -0.50791780167E+02 -0.22325046421E+03  0.22987887828E+03  0.00000000000E+00 0.  1.
         22    1    1    2    0    0 -0.92660716761E+02  0.32850751319E+02 -0.20408281734E+02  0.10040756075E+03  0.00000000000E+00 0.  1.
         22    1    1    2    0    0  0.40997915351E+02  0.22731626844E+02 -0.31883216591E+02  0.56692992709E+02  0.00000000000E+00 0.  1.
</event>
<event>
 6    1  0.3624778E-005  0.9857015E+02  0.7818608E-02  0.1286912E+00
          2   -1    0    0  502    0  0.00000000000E+00  0.00000000000E+00  0.59101173472E+02  0.59101173472E+02  0.00000000000E+00 0.  1.
          1   -1    0    0  501    0 -0.00000000000E+00 -0.00000000000E+00 -0.55254512557E+03  0.55254512557E+03  0.00000000000E+00 0.  1.
          2    1    1    2  501    0  0.43609675445E+02  0.66274054227E+02 -0.32886645754E+03  0.33830045958E+03  0.00000000000E+00 0.  1.
          1    1    1    2  502    0 -0.19109429477E+02 -0.60517791146E+01 -0.12087834212E+03  0.12252904929E+03  0.00000000000E+00 0.  1.
         22    1    1    2    0    0 -0.30406346093E+02 -0.85734242765E+02  0.95605113205E+01  0.91467533267E+02  0.00000000000E+00 0.  1.
         22    1    1    2    0    0  0.59061001250E+01  0.25511967652E+02 -0.53259663766E+02  0.59349256918E+02  0.00000000000E+00 0.  1.
</event>
<event>
 6    1  0.3624778E-005  0.6425805E+02  0.7818608E-02  0.1421604E+00
          2   -1    0    0  502    0  0.00000000000E+00  0.00000000000E+00  0.13884134239E+03  0.13884134239E+03  0.00000000000E+00 0. -1.
          1   -1    0    0  501    0 -0.00000000000E+00 -0.00000000000E+00 -0.24360359337E+03  0.24360359337E+03  0.00000000000E+00 0. -1.
          2    1    1    2  501    0  0.24408911296E+02 -0.43170364435E+02 -0.18992245212E+03  0.19629063435E+03  0.00000000000E+00 0. -1.
          1    1    1    2  502    0 -0.11605830750E+02  0.33256953777E+02  0.15113296021E+01  0.35256267514E+02  0.00000000000E+00 0. -1.
         22    1    1    2    0    0  0.14122429019E+02 -0.10352003429E+02 -0.28691113878E+02  0.33612304175E+02  0.00000000000E+00 0.  1.
         22    1    1    2    0    0 -0.26925509565E+02  0.20265414088E+02  0.11233998542E+03  0.11728572972E+03  0.00000000000E+00 0. -1.
</event>
<event>
 6    1  0.3624778E-005  0.1273545E+03  0.7818608E-02  0.1263645E+00
          2   -1    0    0  502    0  0.00000000000E+00  0.00000000000E+00  0.19208065910E+03  0.19208065910E+03  0.00000000000E+00 0. -1.
          1   -1    0    0  501    0 -0.00000000000E+00 -0.00000000000E+00 -0.43226498685E+03  0.43226498685E+03  0.00000000000E+00 0.  1.
          2    1    1    2  501    0 -0.74491898041E+01 -0.12003406859E+03 -0.13701147006E+02  0.12104292412E+03  0.00000000000E+00 0. -1.
          1    1    1    2  502    0  0.36706901012E+02  0.10672736406E+03 -0.32497850033E+03  0.34401911647E+03  0.00000000000E+00 0.  1.
         22    1    1    2    0    0 -0.14042468303E+02  0.65243319124E+02  0.74683220673E+02  0.10015720172E+03  0.00000000000E+00 0. -1.
         22    1    1    2    0    0 -0.15215242905E+02 -0.51936614599E+02  0.23812098908E+02  0.59126403637E+02  0.00000000000E+00 0. -1.
</event>
<event>
 6    1  0.3624778E-005  0.1566776E+03  0.7818608E-02  0.1249765E+00
          2   -1    0    0  502    0  0.00000000000E+00  0.00000000000E+00  0.26491972526E+02  0.26491972526E+02  0.00000000000E+00 0.  1.
          1   -1    0    0  501    0 -0.00000000000E+00 -0.00000000000E+00 -0.15553744052E+04  0.15553744052E+04  0.00000000000E+00 0.  1.
          2    1    1    2  501    0 -0.66105427895E+02  0.66662391097E+02 -0.23965010743E+03  0.25738293645E+03  0.00000000000E+00 0.  1.
          1    1    1    2  502    0  0.10718502777E+03 -0.71941500554E+02 -0.97042255835E+03  0.97897096557E+03  0.00000000000E+00 0.  1.
         22    1    1    2    0    0  0.44185253596E+02  0.16464295190E+02 -0.11699002694E+03  0.12613514995E+03  0.00000000000E+00 0.  1.
         22    1    1    2    0    0 -0.85264853467E+02 -0.11185185733E+02 -0.20181973996E+03  0.21937732575E+03  0.00000000000E+00 0.  1.
</event>
<event>
 6    1  0.3624778E-005  0.2961570E+03  0.7818608E-02  0.1170809E+00
          2   -1    0    0  502    0  0.00000000000E+00  0.00000000000E+00  0.34862909937E+03  0.34862909937E+03  0.00000000000E+00 0. -1.
          1   -1    0    0  501    0 -0.00000000000E+00 -0.00000000000E+00 -0.38966315014E+03  0.38966315014E+03  0.00000000000E+00 0. -1.
          2    1    1    2  501    0 -0.21061018386E+02 -0.23098853096E+03 -0.16087108129E+03  0.28227428633E+03  0.00000000000E+00 0. -1.
          1    1    1    2  502    0  0.23979928381E+02  0.29429345825E+03  0.53425768758E+02  0.30006330882E+03  0.00000000000E+00 0. -1.
         22    1    1    2    0    0  0.31697083642E+02 -0.48309422276E+02 -0.20420481305E+02  0.61282146248E+02  0.00000000000E+00 0. -1.
         22    1    1    2    0    0 -0.34615993637E+02 -0.14995505015E+02  0.86831743072E+02  0.94672508106E+02  0.00000000000E+00 0. -1.
</event>
<event>
 6    1  0.3624778E-005  0.5755970E+03  0.7818608E-02  0.1066452E+00
          2   -1    0    0  502    0  0.00000000000E+00  0.00000000000E+00  0.10215047721E+04  0.10215047721E+04  0.00000000000E+00 0.  1.
          1   -1    0    0  501    0 -0.00000000000E+00 -0.00000000000E+00 -0.22574943282E+03  0.22574943282E+03  0.00000000000E+00 0.  1.
          2    1    1    2  501    0 -0.26036895598E+03 -0.31457023706E+03  0.27563193488E+03  0.49266559734E+03  0.00000000000E+00 0.  1.
          1    1    1    2  502    0  0.17221644140E+02  0.26988541574E+03  0.24559735142E+03  0.36531189644E+03  0.00000000000E+00 0.  1.
         22    1    1    2    0    0  0.17407097011E+03  0.29414437997E+02  0.10456966443E+03  0.20518461570E+03  0.00000000000E+00 0.  1.
         22    1    1    2    0    0  0.69076341726E+02  0.15270383320E+02  0.16995638852E+03  0.18409209541E+03  0.00000000000E+00 0.  1.
</event>
<event>
 6    1  0.3624778E-005  0.1308788E+03  0.7818608E-02  0.1229486E+00
          2   -1    0    0  502    0  0.00000000000E+00  0.00000000000E+00  0.22489684659E+03  0.22489684659E+03  0.00000000000E+00 0. -1.
          1   -1    0    0  501    0 -0.00000000000E+00 -0.00000000000E+00 -0.14668332206E+03  0.14668332206E+03  0.00000000000E+00 0. -1.
          2    1    1    2  501    0 -0.93662349713E+02 -0.44900673037E+02  0.89105450468E+02  0.13685206427E+03  0.00000000000E+00 0. -1.
          1    1    1    2  502    0 -0.16783404554E+02  0.12781232600E+02 -0.57974493943E+02  0.61693472289E+02  0.00000000000E+00 0. -1.
         22    1    1    2    0    0 -0.62979233009E+01 -0.21227434643E+02  0.38475117347E+02  0.44391468486E+02  0.00000000000E+00 0.  1.
         22    1    1    2    0    0  0.11674367757E+03  0.53346875080E+02  0.86074506535E+01  0.12864316359E+03  0.00000000000E+00 0. -1.
</event>
<event>
 6    1  0.3624778E-005  0.1086073E+03  0.7818608E-02  0.1300313E+00
          2   -1    0    0  502    0  0.00000000000E+00  0.00000000000E+00  0.41606664745E+03  0.41606664745E+03  0.00000000000E+00 0.  1.
          1   -1    0    0  501    0 -0.00000000000E+00 -0.00000000000E+00 -0.19832235085E+04  0.19832235085E+04  0.00000000000E+00 0.  1.
          2    1    1    2  501    0 -0.10075153944E+02 -0.31899631623E+02  0.63329286700E+02  0.71621880585E+02  0.00000000000E+00 0.  1.
          1    1    1    2  502    0  0.40929237492E+02 -0.87828173567E+00 -0.19661701035E+04  0.19665962599E+04  0.00000000000E+00 0.  1.
         22    1    1    2    0    0  0.32615460298E+02 -0.27539847102E+02  0.77979372256E+02  0.88898784729E+02  0.00000000000E+00 0.  1.
         22    1    1    2    0    0 -0.63469543846E+02  0.60317760461E+02  0.25770458341E+03  0.27217323074E+03  0.00000000000E+00 0. -1.
</event>
<event>
 6    1  0.3624778E-005  0.9039959E+02  0.7818608E-02  0.1333918E+00
          2   -1    0    0  502    0  0.00000000000E+00  0.00000000000E+00  0.38453849513E+02  0.38453849513E+02  0.00000000000E+00 0. -1.
          1   -1    0    0  501    0 -0.00000000000E+00 -0.00000000000E+00 -0.94194662927E+03  0.94194662927E+03  0.00000000000E+00 0.  1.
          2    1    1    2  501    0  0.16377199611E+02  0.31900178872E+02 -0.28814686232E+03  0.29036950312E+03  0.00000000000E+00 0. -1.
          1    1    1    2  502    0 -0.40461617619E+02 -0.28787487268E+02 -0.53562185737E+03  0.53791880057E+03  0.00000000000E+00 0.  1.
         22    1    1    2    0    0 -0.27423232347E+02 -0.16974612501E+02 -0.91904134259E+02  0.97398875947E+02  0.00000000000E+00 0.  1.
         22    1    1    2    0    0  0.51507650355E+02  0.13861920897E+02  0.12180074181E+02  0.54713299143E+02  0.00000000000E+00 0. -1.
</event>
<event>
 6    1  0.3624778E-005  0.5806765E+02  0.7818608E-02  0.1407535E+00
          2   -1    0    0  502    0  0.00000000000E+00  0.00000000000E+00  0.36840826626E+02  0.36840826626E+02  0.00000000000E+00 0.  1.
          1   -1    0    0  501    0 -0.00000000000E+00 -0.00000000000E+00 -0.71450415952E+03  0.71450415952E+03  0.00000000000E+00 0. -1.
          2    1    1    2  501    0  0.28792943445E+02  0.98891368929E+01  0.25440125487E+01  0.30549969240E+02  0.00000000000E+00 0.  1.
          1    1    1    2  502    0  0.12096347181E+02 -0.21793087897E+02 -0.48305903274E+03  0.48370165330E+03  0.00000000000E+00 0. -1.
         22    1    1    2    0    0 -0.61099118159E+02 -0.69147414323E+01 -0.20008749662E+03  0.20932253150E+03  0.00000000000E+00 0.  1.
         22    1    1    2    0    0  0.20209827533E+02  0.18818692437E+02  0.29391839153E+01  0.27770832109E+02  0.00000000000E+00 0. -1.
</event>
<event>
 6    1  0.3624778E-005  0.1741349E+03  0.7818608E-02  0.1305539E+00
          2   -1    0    0  502    0  0.00000000000E+00  0.00000000000E+00  0.20741919178E+03  0.20741919178E+03  0.00000000000E+00 0.  1.
          1   -1    0    0  501    0 -0.00000000000E+00 -0.00000000000E+00 -0.62047779718E+03  0.62047779718E+03  0.00000000000E+00 0. -1.
          2    1    1    2  501    0 -0.15701902580E+02  0.28439913898E+02  0.13709307208E+02  0.35260793401E+02  0.00000000000E+00 0.  1.
          1    1    1    2  502    0  0.38985854710E+02 -0.16685384683E+03 -0.54534920979E+03  0.57163437938E+03  0.00000000000E+00 0. -1.
         22    1    1    2    0    0 -0.87325857277E+01 -0.79788286721E+01  0.62422095136E+02  0.63532965629E+02  0.00000000000E+00 0. -1.
         22    1    1    2    0    0 -0.14551366403E+02  0.14639276161E+03  0.56159202053E+02  0.15746885054E+03  0.00000000000E+00 0.  1.
</event>
<event>
 6    1  0.3624778E-005  0.1310896E+03  0.7818608E-02  0.1277988E+00
          2   -1    0    0  502    0  0.00000000000E+00  0.00000000000E+00  0.94152262614E+02  0.94152262614E+02  0.00000000000E+00 0.  1.
          1   -1    0    0  501    0 -0.00000000000E+00 -0.00000000000E+00 -0.44099767451E+03  0.44099767451E+03  0.00000000000E+00 0. -1.
          2    1    1    2  501    0  0.32774484103E+02  0.22821423914E+02 -0.12392860041E+03  0.13020477025E+03  0.00000000000E+00 0.  1.
          1    1    1    2  502    0 -0.11352215810E+03 -0.90037293776E+02 -0.19118148078E+03  0.23988404125E+03  0.00000000000E+00 0. -1.
         22    1    1    2    0    0  0.45316435397E+02  0.99088967754E+01  0.43831499137E+02  0.63819792142E+02  0.00000000000E+00 0.  1.
         22    1    1    2    0    0  0.35431238599E+02  0.57306973087E+02 -0.75566829841E+02  0.10124133348E+03  0.00000000000E+00 0. -1.
</event>
<event>
 6    1  0.3624778E-005  0.2856583E+03  0.7818608E-02  0.1192510E+00
          2   -1    0    0  502    0  0.00000000000E+00  0.00000000000E+00  0.54943220319E+03  0.54943220319E+03  0.00000000000E+00 0. -1.
          1   -1    0    0  501    0 -0.00000000000E+00 -0.00000000000E+00 -0.83760320683E+02  0.83760320683E+02  0.00000000000E+00 0. -1.
          2    1    1    2  501    0 -0.12624798556E+03  0.10154880797E+00  0.15844865409E+03  0.20259452153E+03  0.00000000000E+00 0. -1.
          1    1    1    2  502    0  0.96663156117E+00 -0.31501944703E+02  0.23066235661E+03  0.23280556190E+03  0.00000000000E+00 0. -1.
         22    1    1    2    0    0  0.24734094840E+01 -0.25726894898E+02  0.54828927466E+02  0.60615197456E+02  0.00000000000E+00 0.  1.
         22    1    1    2    0    0  0.12280794451E+03  0.57127290793E+02  0.21731944345E+02  0.13717724299E+03  0.00000000000E+00 0. -1.
</event>
<event>
 6    1  0.3624778E-005  0.2051819E+03  0.7818608E-02  0.1182911E+00
          2   -1    0    0  502    0  0.00000000000E+00  0.00000000000E+00  0.59933741254E+03  0.59933741254E+03  0.00000000000E+00 0. -1.
          1   -1    0    0  501    0 -0.00000000000E+00 -0.00000000000E+00 -0.13037920473E+03  0.13037920473E+03  0.00000000000E+00 0.  1.
          2    1    1    2  501    0 -0.10157466413E+03 -0.70627627571E+02  0.18339855994E+03  0.22122546408E+03  0.00000000000E+00 0. -1.
          1    1    1    2  502    0  0.15720397121E+03  0.12182404309E+03  0.11650110253E+02  0.19922326949E+03  0.00000000000E+00 0.  1.
         22    1    1    2    0    0 -0.78447267163E+02 -0.35956441563E+02  0.26752073774E+03  0.28109461848E+03  0.00000000000E+00 0. -1.
         22    1    1    2    0    0  0.22817960091E+02 -0.15239973958E+02  0.63887998749E+01  0.28173265214E+02  0.00000000000E+00 0.  1.
</event>
<event>
 6    1  0.3624778E-005  0.5518787E+02  0.7818608E-02  0.1461054E+00
          2   -1    0    0  502    0  0.00000000000E+00  0.00000000000E+00  0.91738091401E+02  0.91738091401E+02  0.00000000000E+00 0.  1.
          1   -1    0    0  501    0 -0.00000000000E+00 -0.00000000000E+00 -0.35948181857E+03  0.35948181857E+03  0.00000000000E+00 0. -1.
          2    1    1    2  501    0 -0.25222900116E+02  0.35325771484E+02 -0.26839508133E+02  0.51033949661E+02  0.00000000000E+00 0.  1.
          1    1    1    2  502    0  0.29439547780E+02 -0.16785701540E+02 -0.27131170083E+03  0.27341998053E+03  0.00000000000E+00 0. -1.
         22    1    1    2    0    0  0.25936690871E+02 -0.14116863388E+02  0.70482947241E+02  0.76418869509E+02  0.00000000000E+00 0.  1.
         22    1    1    2    0    0 -0.30153338535E+02 -0.44232065558E+01 -0.40075465453E+02  0.50347110268E+02  0.00000000000E+00 0.  1.
</event>
<event>
 6    1  0.3624778E-005  0.1624597E+03  0.7818608E-02  0.1250930E+00
          2   -1    0    0  502    0  0.00000000000E+00  0.00000000000E+00  0.10519482320E+03  0.10519482320E+03  0.00000000000E+00 0.  1.
          1   -1    0    0  501    0 -0.00000000000E+00 -0.00000000000E+00 -0.38185870981E+03  0.38185870981E+03  0.00000000000E+00 0.  1.
          2    1    1    2  501    0 -0.41372410282E+02  0.73464246920E+02 -0.15600356243E+03  0.17732958975E+03  0.00000000000E+00 0.  1.
          1    1    1    2  502    0  0.80189515043E+02 -0.12027507504E+03 -0.39058558743E+02  0.14973985111E+03  0.00000000000E+00 0.  1.
         22    1    1    2    0    0 -0.13522573473E+02  0.79487291892E+02 -0.86642081962E+02  0.11835514324E+03  0.00000000000E+00 0. -1.
         22    1    1    2    0    0 -0.25294531289E+02 -0.32676463773E+02  0.50403165255E+01  0.41628948924E+02  0.00000000000E+00 0. -1.
</event>
<event>
 6    1  0.3624778E-005  0.1145005E+03  0.7818608E-02  0.1267857E+00
          2   -1    0    0  502    0  0.00000000000E+00  0.00000000000E+00  0.14512422678E+03  0.14512422678E+03  0.00000000000E+00 0.  1.
          1   -1    0    0  501    0 -0.00000000000E+00 -0.00000000000E+00 -0.12656370304E+03  0.12656370304E+03  0.00000000000E+00 0. -1.
          2    1    1    2  501    0  0.53525813040E+02 -0.30768204394E+01 -0.13970215433E+02  0.55404389761E+02  0.00000000000E+00 0.  1.
          1    1    1    2  502    0 -0.34610592643E+01  0.36048126707E+02 -0.44941699172E+02  0.57716572098E+02  0.00000000000E+00 0. -1.
         22    1    1    2    0    0  0.28144035198E+02 -0.49187938741E+02  0.44926690857E+02  0.72318376546E+02  0.00000000000E+00 0.  1.
         22    1    1    2    0    0 -0.78208788973E+02  0.16216632473E+02  0.32545747495E+02  0.86248591417E+02  0.00000000000E+00 0. -1.
</event>
<event>
 6    1  0.3624778E-005  0.8308300E+02  0.7818608E-02  0.1324714E+00
          2   -1    0    0  502    0  0.00000000000E+00  0.00000000000E+00  0.34031581690E+03  0.34031581690E+03  0.00000000000E+00 0.  1.
          1   -1    0    0  501    0 -0.00000000000E+00 -0.00000000000E+00 -0.19367739975E+03  0.19367739975E+03  0.00000000000E+00 0. -1.
          2    1    1    2  501    0  0.29718584691E+02 -0.58641689718E+01  0.38851604877E+02  0.49264895771E+02  0.00000000000E+00 0.  1.
          1    1    1    2  502    0 -0.24396705433E+02 -0.96326926175E+01 -0.17322037365E+03  0.17519499379E+03  0.00000000000E+00 0. -1.
         22    1    1    2    0    0  0.60462166159E+02  0.49747354849E+01  0.16440980435E+03  0.17524555714E+03  0.00000000000E+00 0.  1.
         22    1    1    2    0    0 -0.65784045417E+02  0.10522126104E+02  0.11659738157E+03  0.13428776995E+03  0.00000000000E+00 0. -1.
</event>
<event>
 6    1  0.3624778E-005  0.7921932E+02  0.7818608E-02  0.1349080E+00
          2   -1    0    0  502    0  0.00000000000E+00  0.00000000000E+00  0.67415196661E+02  0.67415196661E+02  0.00000000000E+00 0.  1.
          1   -1    0    0  501    0 -0.00000000000E+00 -0.00000000000E+00 -0.40280487069E+03  0.40280487069E+03  0.00000000000E+00 0.  1.
          2    1    1    2  501    0  0.22321716475E+02  0.27700062897E+02 -0.24997161280E+03  0.25249031609E+03  0.00000000000E+00 0.  1.
          1    1    1    2  502    0  0.20749914505E+02  0.18682899616E+02 -0.71420908275E+02  0.76684782251E+02  0.00000000000E+00 0.  1.
         22    1    1    2    0    0 -0.53009709614E+02 -0.26743486632E+02  0.47302810382E+02  0.75913103353E+02  0.00000000000E+00 0.  1.
         22    1    1    2    0    0  0.99380786345E+01 -0.19639475881E+02 -0.61299963334E+02  0.65131865662E+02  0.00000000000E+00 0.  1.
</event>
<event>
 6    1  0.3624778E-005  0.9875124E+02  0.7818608E-02  0.1284170E+00
          2   -1    0    0  502    0  0.00000000000E+00  0.00000000000E+00  0.24232852592E+03  0.24232852592E+03  0.00000000000E+00 0.  1.
          1   -1    0    0  501    0 -0.00000000000E+00 -0.00000000000E+00 -0.22385324342E+03  0.22385324342E+03  0.00000000000E+00 0.  1.
          2    1    1    2  501    0 -0.11016828698E+02 -0.55694288938E+02  0.25067758934E+02  0.62061395995E+02  0.00000000000E+00 0.  1.
          1    1    1    2  502    0 -0.29382565933E+02  0.70370868154E+01 -0.17949087565E+03  0.18201601637E+03  0.00000000000E+00 0.  1.
         22    1    1    2    0    0 -0.16642291666E+01 -0.40043775851E+02  0.37693723142E+02  0.55019000422E+02  0.00000000000E+00 0.  1.
         22    1    1    2    0    0  0.42063623797E+02  0.88700977974E+02  0.13520467608E+03  0.16708535655E+03  0.00000000000E+00 0.  1.
</event>
<event>
 6    1  0.3624778E-005  0.2918888E+03  0.7818608E-02  0.1172198E+00
          2   -1    0    0  502    0  0.00000000000E+00  0.00000000000E+00  0.62677715164E+03  0.62677715164E+03  0.00000000000E+00 0.  1.
          1   -1    0    0  501    0 -0.00000000000E+00 -0.00000000000E+00 -0.70002694236E+03  0.70002694236E+03  0.00000000000E+00 0. -1.
          2    1    1    2  501    0  0.34808704341E+02 -0.51208600667E+02 -0.23430571255E+02  0.66203914911E+02  0.00000000000E+00 0.  1.
          1    1    1    2  502    0 -0.82412021949E+02  0.69768824642E+01 -0.64430722462E+03  0.64959388694E+03  0.00000000000E+00 0. -1.
         22    1    1    2    0    0 -0.31974073567E+02 -0.20856389627E+02  0.17295738570E+03  0.17712026321E+03  0.00000000000E+00 0. -1.
         22    1    1    2    0    0  0.79577391174E+02  0.65088107830E+02  0.42153061946E+03  0.43388602894E+03  0.00000000000E+00 0.  1.
</event>
<event>
 6    1  0.3624778E-005  0.7475899E+02  0.7818608E-02  0.1346536E+00
          2   -1    0    0  502    0  0.00000000000E+00  0.00000000000E+00  0.24490341566E+03  0.24490341566E+03  0.00000000000E+00 0.  1.
          1   -1    0    0  501    0 -0.00000000000E+00 -0.00000000000E+00 -0.92871469846E+03  0.92871469846E+03  0.00000000000E+00 0.  1.
          2    1    1    2  501    0  0.59070072441E+02  0.32433263335E+02  0.41097715163E+00  0.67389605511E+02  0.00000000000E+00 0.  1.
          1    1    1    2  502    0 -0.14868197646E+02 -0.22817501189E+02 -0.87390635424E+03  0.87433061118E+03  0.00000000000E+00 0.  1.
         22    1    1    2    0    0  0.25065976778E+02  0.19342483536E+01 -0.43796980081E+01  0.25519135235E+02  0.00000000000E+00 0. -1.
         22    1    1    2    0    0 -0.69267851572E+02 -0.11550010500E+02  0.19406379230E+03  0.20637876220E+03  0.00000000000E+00 0.  1.
</event>
<event>
 6    1  0.3624778E-005  0.3366193E+03  0.7818608E-02  0.1166307E+00
          2   -1    0    0  502    0  0.00000000000E+00  0.00000000000E+00  0.53166845181E+03  0.53166845181E+03  0.00000000000E+00 0. -1.
          1   -1    0    0  501    0 -0.00000000000E+00 -0.00000000000E+00 -0.35850242193E+03  0.35850242193E+03  0.00000000000E+00 0.  1.
          2    1    1    2  501    0  0.18032345212E+03 -0.40215639734E+02  0.16388963090E+03  0.24696893768E+03  0.00000000000E+00 0. -1.
          1    1    1    2  502    0 -0.17238197579E+03  0.16802853535E+03 -0.23714542485E+03  0.33791579838E+03  0.00000000000E+00 0.  1.
         22    1    1    2    0    0  0.22888860542E+02  0.16955152095E+02  0.66235720922E+02  0.72100955927E+02  0.00000000000E+00 0.  1.
         22    1    1    2    0    0 -0.30830336871E+02 -0.14476804771E+03  0.18018610291E+03  0.23318518175E+03  0.00000000000E+00 0.  1.
</event>
<event>
 6    1  0.3624778E-005  0.8738478E+02  0.7818608E-02  0.1311550E+00
          2   -1    0    0  502    0  0.00000000000E+00  0.00000000000E+00  0.78317509610E+02  0.78317509610E+02  0.00000000000E+00 0. -1.
          1   -1    0    0  501    0 -0.00000000000E+00 -0.00000000000E+00 -0.54504448417E+03  0.54504448417E+03  0.00000000000E+00 0. -1.
          2    1    1    2  501    0 -0.28564213811E+02 -0.40085312464E+02 -0.11273246221E+02  0.50495867815E+02  0.00000000000E+00 0. -1.
          1    1    1    2  502    0 -0.80423289507E+01  0.31536889540E+02 -0.44188562497E+03  0.44308256569E+03  0.00000000000E+00 0. -1.
         22    1    1    2    0    0 -0.40250975043E+02 -0.19380803837E+02 -0.17341720222E+02  0.47921725862E+02  0.00000000000E+00 0. -1.
         22    1    1    2    0    0  0.76857517805E+02  0.27929226761E+02  0.37736168529E+01  0.81861834421E+02  0.00000000000E+00 0. -1.
</event>
<event>
 6    1  0.3624778E-005  0.3849308E+03  0.7818608E-02  0.1191596E+00
          2   -1    0    0  502    0  0.00000000000E+00  0.00000000000E+00  0.35321503656E+03  0.35321503656E+03  0.00000000000E+00 0. -1.
          1   -1    0    0  501    0 -0.00000000000E+00 -0.00000000000E+00 -0.67500207702E+03  0.67500207702E+03  0.00000000000E+00 0. -1.
          2    1    1    2  501    0 -0.73673722010E+02 -0.17881660324E+03 -0.25577798385E+03  0.32066426669E+03  0.00000000000E+00 0. -1.
          1    1    1    2  502    0  0.31863681951E+01  0.36524360271E+03  0.14424065836E+03  0.39270651864E+03  0.00000000000E+00 0. -1.
         22    1    1    2    0    0  0.70460190961E+02 -0.17564940219E+03 -0.22661647769E+03  0.29524968918E+03  0.00000000000E+00 0.  1.
         22    1    1    2    0    0  0.27162853705E-01 -0.10777597278E+02  0.16366762716E+02  0.19596639067E+02  0.00000000000E+00 0. -1.
</event>
<event>
 6    1  0.3624778E-005  0.9593900E+02  0.7818608E-02  0.1295514E+00
          2   -1    0    0  502    0  0.00000000000E+00  0.00000000000E+00  0.27915520755E+03  0.27915520755E+03  0.00000000000E+00 0. -1.
          1   -1    0    0  501    0 -0.00000000000E+00 -0.00000000000E+00 -0.87911908769E+02  0.87911908769E+02  0.00000000000E+00 0. -1.
          2    1    1    2  501    0  0.41850019152E+02 -0.85512790250E+02  0.28821785751E+02  0.99471386505E+02  0.00000000000E+00 0. -1.
          1    1    1    2  502    0 -0.56620148337E+02  0.37279210765E+00  0.40882830020E+02  0.69838284358E+02  0.00000000000E+00 0. -1.
         22    1    1    2    0    0 -0.36153155766E+02  0.20907519002E+01  0.87273533932E+02  0.94488579418E+02  0.00000000000E+00 0. -1.
         22    1    1    2    0    0  0.50923284951E+02  0.83049246242E+02  0.34265149080E+02  0.10326886604E+03  0.00000000000E+00 0. -1.
</event>
<event>
 6    1  0.3624778E-005  0.1834332E+03  0.7818608E-02  0.1200895E+00
          2   -1    0    0  502    0  0.00000000000E+00  0.00000000000E+00  0.95193940458E+02  0.95193940458E+02  0.00000000000E+00 0.  1.
          1   -1    0    0  501    0 -0.00000000000E+00 -0.00000000000E+00 -0.21385205484E+04  0.21385205484E+04  0.00000000000E+00 0.  1.
          2    1    1    2  501    0 -0.42235055106E+01  0.60728887542E+02 -0.20980430268E+03  0.21845750435E+03  0.00000000000E+00 0.  1.
          1    1    1    2  502    0 -0.18638928986E+02 -0.32174827321E+02 -0.18803004501E+04  0.18806680759E+04  0.00000000000E+00 0.  1.
         22    1    1    2    0    0  0.41430711547E+01  0.47385476613E+02  0.23044542811E+02  0.52854511499E+02  0.00000000000E+00 0. -1.
         22    1    1    2    0    0  0.18719363342E+02 -0.75939536835E+02  0.23733601944E+02  0.81734397165E+02  0.00000000000E+00 0.  1.
</event>
<event>
 6    1  0.3624778E-005  0.1022926E+03  0.7818608E-02  0.1278506E+00
          2   -1    0    0  502    0  0.00000000000E+00  0.00000000000E+00  0.54322455357E+02  0.54322455357E+02  0.00000000000E+00 0. -1.
          1   -1    0    0  501    0 -0.00000000000E+00 -0.00000000000E+00 -0.30184992273E+03  0.30184992273E+03  0.00000000000E+00 0. -1.
          2    1    1    2  501    0  0.16686714887E+01 -0.72447451600E+02 -0.62612625627E+02  0.95769298816E+02  0.00000000000E+00 0. -1.
          1    1    1    2  502    0 -0.40256280807E+02  0.11119606654E+02 -0.29644858503E+02  0.51215538972E+02  0.00000000000E+00 0. -1.
         22    1    1    2    0    0  0.42890921760E+02  0.88013014345E+02 -0.15354281314E+03  0.18210249128E+03  0.00000000000E+00 0. -1.
         22    1    1    2    0    0 -0.43033124424E+01 -0.26685169400E+02 -0.17271701058E+01  0.27085049020E+02  0.00000000000E+00 0. -1.
</event>
<event>
 6    1  0.3624778E-005  0.9952133E+02  0.7818608E-02  0.1352411E+00
          2   -1    0    0  502    0  0.00000000000E+00  0.00000000000E+00  0.34977913667E+03  0.34977913667E+03  0.00000000000E+00 0. -1.
          1   -1    0    0  501    0 -0.00000000000E+00 -0.00000000000E+00 -0.30807381063E+03  0.30807381063E+03  0.00000000000E+00 0. -1.
          2    1    1    2  501    0 -0.18457693338E+02  0.13103974087E+02  0.45820917951E+02  0.51107309674E+02  0.00000000000E+00 0. -1.
          1    1    1    2  502    0  0.44472286099E+02  0.48243382466E+02 -0.28406145594E+03  0.29154093869E+03  0.00000000000E+00 0. -1.
         22    1    1    2    0    0 -0.36959381710E+02 -0.86831971978E+02  0.11895551179E+03  0.15184268517E+03  0.00000000000E+00 0. -1.
         22    1    1    2    0    0  0.10944788948E+02  0.25484615424E+02  0.16099035223E+03  0.16336201376E+03  0.00000000000E+00 0. -1.
</event>
<event>
 6    1  0.3624778E-005  0.7995484E+02  0.7818608E-02  0.1397324E+00
          2   -1    0    0  502    0  0.00000000000E+00  0.00000000000E+00  0.11427962544E+03  0.11427962544E+03  0.00000000000E+00 0.  1.
          1   -1    0    0  501    0 -0.00000000000E+00 -0.00000000000E+00 -0.34393499192E+03  0.34393499192E+03  0.00000000000E+00 0.  1.
          2    1    1    2  501    0 -0.47639583493E+02  0.81517811731E+01 -0.16877357963E+03  0.17555769033E+03  0.00000000000E+00 0.  1.
          1    1    1    2  502    0  0.50443668616E+02  0.18931292980E+02 -0.12680538373E+03  0.13777722199E+03  0.00000000000E+00 0.  1.
         22    1    1    2    0    0  0.17974596896E+02 -0.12196718066E+02 -0.34767205468E+02  0.40995178268E+02  0.00000000000E+00 0.  1.
         22    1    1    2    0    0 -0.20778682018E+02 -0.14886356088E+02  0.10069080236E+03  0.10388452677E+03  0.00000000000E+00 0.  1.
</event>
<event>
 6    1  0.3624778E-005  0.2183651E+03  0.7818608E-02  0.1167165E+00
          2   -1    0    0  502    0  0.00000000000E+00  0.00000000000E+00  0.16317028277E+03  0.16317028277E+03  0.00000000000E+00 0. -1.
          1   -1    0    0  501    0 -0.00000000000E+00 -0.00000000000E+00 -0.15187872373E+04  0.15187872373E+04  0.00000000000E+00 0.  1.
          2    1    1    2  501    0 -0.12302736134E+03  0.28918937441E+01  0.14667487234E+01  0.12307008589E+03  0.00000000000E+00 0. -1.
          1    1    1    2  502    0  0.12522176988E+03  0.14689156860E+03 -0.13496443176E+04  0.13633772070E+04  0.00000000000E+00 0.  1.
         22    1    1    2    0    0 -0.32634314329E+02 -0.52108504304E+02  0.49041187282E+02  0.78646886414E+02  0.00000000000E+00 0. -1.
         22    1    1    2    0    0  0.30439905791E+02 -0.97674958042E+02 -0.56480572922E+02  0.11686334075E+03  0.00000000000E+00 0. -1.
</event>
<event>
 6    1  0.3624778E-005  0.1935427E+03  0.7818608E-02  0.1254482E+00
          2   -1    0    0  502    0  0.00000000000E+00  0.00000000000E+00  0.53106810740E+02  0.53106810740E+02  0.00000000000E+00 0. -1.
          1   -1    0    0  501    0 -0.00000000000E+00 -0.00000000000E+00 -0.19056625730E+04  0.19056625730E+04  0.00000000000E+00 0.  1.
          2    1    1    2  501    0  0.20693656844E+02  0.98208492805E+01 -0.72062149516E+03  0.72098544770E+03  0.00000000000E+00 0. -1.
          1    1    1    2  502    0 -0.68974213974E+02 -0.51195258640E+02 -0.10837280986E+04  0.10871269422E+04  0.00000000000E+00 0.  1.
         22    1    1    2    0    0  0.62150428185E+02  0.23312486782E+02 -0.84717812749E+02  0.10762553396E+03  0.00000000000E+00 0.  1.
         22    1    1    2    0    0 -0.13869871056E+02  0.18061922577E+02  0.36511644282E+02  0.43031459869E+02  0.00000000000E+00 0. -1.
</event>
<event>
 6    1  0.3624778E-005  0.9967399E+02  0.7818608E-02  0.1323291E+00
          2   -1    0    0  502    0  0.00000000000E+00  0.00000000000E+00  0.52756543565E+02  0.52756543565E+02  0.00000000000E+00 0.  1.
          1   -1    0    0  501    0 -0.00000000000E+00 -0.00000000000E+00 -0.38491075283E+03  0.38491075283E+03  0.00000000000E+00 0.  1.
          2    1    1    2  501    0  0.74750927314E+02 -0.40700503242E+01 -0.12191613828E+03  0.14306575837E+03  0.00000000000E+00 0.  1.
          1    1    1    2  502    0 -0.76853268500E+02 -0.17428909556E+02 -0.10193695929E+03  0.12884616966E+03  0.00000000000E+00 0.  1.
         22    1    1    2    0    0  0.28700758854E+02 -0.15789178788E+02 -0.11490146093E+03  0.11947961102E+03  0.00000000000E+00 0.  1.
         22    1    1    2    0    0 -0.26598417668E+02  0.37288138668E+02  0.66003492371E+01  0.46275757345E+02  0.00000000000E+00 0. -1.
</event>
<event>
 6    1  0.3624778E-005  0.8646763E+02  0.7818608E-02  0.1317606E+00
          2   -1    0    0  502    0  0.00000000000E+00  0.00000000000E+00  0.49354016924E+03  0.49354016924E+03  0.00000000000E+00 0.  1.
          1   -1    0    0  501    0 -0.00000000000E+00 -0.00000000000E+00 -0.31360534774E+03  0.31360534774E+03  0.00000000000E+00 0.  1.
          2    1    1    2  501    0 -0.89475167937E+01  0.29508740855E+02  0.48008294353E+02  0.57058042117E+02  0.00000000000E+00 0.  1.
          1    1    1    2  502    0  0.18971292318E+02  0.12168590151E+02 -0.29909075650E+03  0.29993876899E+03  0.00000000000E+00 0.  1.
         22    1    1    2    0    0 -0.34854529857E+02 -0.77901516323E+02  0.30405432633E+03  0.31580455642E+03  0.00000000000E+00 0.  1.
         22    1    1    2    0    0  0.24830754333E+02  0.36224185317E+02  0.12696295732E+03  0.13434414946E+03  0.00000000000E+00 0.  1.
</event>
<event>
 6    1  0.3624778E-005  0.1919358E+03  0.7818608E-02  0.1157622E+00
          2   -1    0    0  502    0  0.00000000000E+00  0.00000000000E+00  0.18344743262E+03  0.18344743262E+03  0.00000000000E+00 0. -1.
          1   -1    0    0  501    0 -0.00000000000E+00 -0.00000000000E+00 -0.90768283954E+03  0.90768283954E+03  0.00000000000E+00 0.  1.
          2    1    1    2  501    0 -0.86366433251E+02  0.14083675966E+03  0.25255609559E+02  0.16712869137E+03  0.00000000000E+00 0. -1.
          1    1    1    2  502    0  0.10503762030E+02  0.53497081284E+02 -0.66600678166E+03  0.66823446480E+03  0.00000000000E+00 0.  1.
         22    1    1    2    0    0 -0.60894589009E+01  0.83875974472E+01  0.13118028119E+02  0.16718730884E+02  0.00000000000E+00 0.  1.
         22    1    1    2    0    0  0.81952130122E+02 -0.20272143840E+03 -0.96602262934E+02  0.23904838510E+03  0.00000000000E+00 0. -1.
</event>
<event>
 6    1  0.3624778E-005  0.1112874E+03  0.7818608E-02  0.1293988E+00
          2   -1    0    0  502    0  0.00000000000E+00  0.00000000000E+00  0.33741768728E+02  0.33741768728E+02  0.00000000000E+00 0.  1.
          1   -1    0    0  501    0 -0.00000000000E+00 -0.00000000000E+00 -0.12885667022E+04  0.12885667022E+04  0.00000000000E+00 0. -1.
          2    1    1    2  501    0 -0.60646369649E+02 -0.66615765472E+01 -0.14086158632E+03  0.15350682478E+03  0.00000000000E+00 0.  1.
          1    1    1    2  502    0  0.78084507612E+02  0.16956814589E+02 -0.98901268412E+03  0.99223526103E+03  0.00000000000E+00 0. -1.
         22    1    1    2    0    0  0.11648097092E+02  0.37647880818E+02 -0.11239224813E+03  0.11910104339E+03  0.00000000000E+00 0.  1.
         22    1    1    2    0    0 -0.29086235055E+02 -0.47943118860E+02 -0.12558414913E+02  0.57465341736E+02  0.00000000000E+00 0.  1.
</event>
<event>
 6    1  0.3624778E-005  0.1070968E+03  0.7818608E-02  0.1308668E+00
          2   -1    0    0  502    0  0.00000000000E+00  0.00000000000E+00  0.43914721727E+03  0.43914721727E+03  0.00000000000E+00 0. -1.
          1   -1    0    0  501    0 -0.00000000000E+00 -0.00000000000E+00 -0.24817225703E+04  0.24817225703E+04  0.00000000000E+00 0.  1.
          2    1    1    2  501    0 -0.25897794817E+02  0.43162372956E+02  0.58926786595E+02  0.77498725112E+02  0.00000000000E+00 0. -1.
          1    1    1    2  502    0  0.41000646391E+02 -0.53513555217E+02 -0.24614965464E+04  0.24624195421E+04  0.00000000000E+00 0.  1.
         22    1    1    2    0    0 -0.15111463371E+02 -0.45588726307E+02  0.65672558466E+02  0.81360759749E+02  0.00000000000E+00 0.  1.
         22    1    1    2    0    0  0.86117977841E-02  0.55939908568E+02  0.29432184829E+03  0.29959076058E+03  0.00000000000E+00 0. -1.
</event>
<event>
 6    1  0.3624778E-005  0.1086353E+03  0.7818608E-02  0.1281241E+00
          2   -1    0    0  502    0  0.00000000000E+00  0.00000000000E+00  0.31090097305E+03  0.31090097305E+03  0.00000000000E+00 0. -1.
          1   -1    0    0  501    0 -0.00000000000E+00 -0.00000000000E+00 -0.23624036499E+03  0.23624036499E+03  0.00000000000E+00 0. -1.
          2    1    1    2  501    0  0.80248537584E+01  0.83339915282E+02  0.13641736378E+03  0.16006135354E+03  0.00000000000E+00 0. -1.
          1    1    1    2  502    0 -0.35449657810E+02 -0.78173215657E+02 -0.18819648030E+03  0.20684691219E+03  0.00000000000E+00 0. -1.
         22    1    1    2    0    0  0.65103852129E+02 -0.40379979397E+02  0.81124653080E+02  0.11158074939E+03  0.00000000000E+00 0. -1.
         22    1    1    2    0    0 -0.37679048078E+02  0.35213279772E+02  0.45315071502E+02  0.68652322914E+02  0.00000000000E+00 0. -1.
</event>
<event>
 6    1  0.3624778E-005  0.5222784E+02  0.7818608E-02  0.1478140E+00
          2   -1    0    0  502    0  0.00000000000E+00  0.00000000000E+00  0.10775769163E+03  0.10775769163E+03  0.00000000000E+00 0. -1.
          1   -1    0    0  501    0 -0.00000000000E+00 -0.00000000000E+00 -0.17327005750E+03  0.17327005750E+03  0.00000000000E+00 0. -1.
          2    1    1    2  501    0 -0.36653347127E+02  0.10608782676E+02 -0.11378821158E+03  0.12001571239E+03  0.00000000000E+00 0. -1.
          1    1    1    2  502    0  0.24322102786E+02 -0.12946923154E+02  0.73356415837E+01  0.28513139787E+02  0.00000000000E+00 0. -1.
         22    1    1    2    0    0  0.20736584151E+02  0.17713154699E+02  0.82770021724E+02  0.87147221802E+02  0.00000000000E+00 0. -1.
         22    1    1    2    0    0 -0.84053398099E+01 -0.15375014222E+02 -0.41829817594E+02  0.45351675157E+02  0.00000000000E+00 0. -1.
</event>
<event>
 6    1  0.3624778E-005  0.8222637E+02  0.7818608E-02  0.1352398E+00
          2   -1    0    0  502    0  0.00000000000E+00  0.00000000000E+00  0.33697747686E+03  0.33697747686E+03  0.00000000000E+00 0. -1.
          1   -1    0    0  501    0 -0.00000000000E+00 -0.00000000000E+00 -0.97765707687E+02  0.97765707687E+02  0.00000000000E+00 0.  1.
          2    1    1    2  501    0 -0.33880209869E+02 -0.44283413663E+01  0.20317610408E+02  0.39752787584E+02  0.00000000000E+00 0. -1.
          1    1    1    2  502    0  0.71148743162E+02  0.16511823166E+02 -0.55255041687E+02  0.91585498796E+02  0.00000000000E+00 0.  1.
         22    1    1    2    0    0  0.75816377997E+01 -0.48598533610E+02  0.21547777582E+03  0.22102029449E+03  0.00000000000E+00 0. -1.
         22    1    1    2    0    0 -0.44850171093E+02  0.36515051810E+02  0.58671424627E+02  0.82384603680E+02  0.00000000000E+00 0. -1.
</event>
<event>
 6    1  0.3624778E-005  0.1020518E+03  0.7818608E-02  0.1324507E+00
          2   -1    0    0  502    0  0.00000000000E+00  0.00000000000E+00  0.68362292623E+02  0.68362292623E+02  0.00000000000E+00 0. -1.
          1   -1    0    0  501    0 -0.00000000000E+00 -0.00000000000E+00 -0.76974269605E+03  0.76974269605E+03  0.00000000000E+00 0. -1.
          2    1    1    2  501    0 -0.10019427619E+03 -0.43337988349E+02 -0.46437872876E+03  0.47703739679E+03  0.00000000000E+00 0. -1.
          1    1    1    2  502    0  0.51266875497E+02  0.21225405899E+02 -0.21729198456E+03  0.22426461365E+03  0.00000000000E+00 0. -1.
         22    1    1    2    0    0  0.13047173306E+02  0.74085310916E+00 -0.70127475193E+02  0.71334706641E+02  0.00000000000E+00 0. -1.
         22    1    1    2    0    0  0.35880227388E+02  0.21371729340E+02  0.50417785086E+02  0.65468271593E+02  0.00000000000E+00 0. -1.
</event>
<event>
 6    1  0.3624778E-005  0.1542782E+03  0.7818608E-02  0.1264668E+00
          2   -1    0    0  502    0  0.00000000000E+00  0.00000000000E+00  0.22244568083E+02  0.22244568083E+02  0.00000000000E+00 0. -1.
          1   -1    0    0  501    0 -0.00000000000E+00 -0.00000000000E+00 -0.93382696148E+03  0.93382696148E+03  0.00000000000E+00 0. -1.
          2    1    1    2  501    0  0.52495867023E+02  0.38669642278E+02 -0.11102908507E+03  0.12875797071E+03  0.00000000000E+00 0. -1.
          1    1    1    2  502    0  0.11883663225E+02 -0.36602940042E+02 -0.38986347417E+03  0.39175824837E+03  0.00000000000E+00 0. -1.
         22    1    1    2    0    0 -0.82382418628E+02  0.30026756907E+02 -0.37186416334E+03  0.38206206957E+03  0.00000000000E+00 0. -1.
         22    1    1    2    0    0  0.18002888380E+02 -0.32093459143E+02 -0.38825670819E+02  0.53493240922E+02  0.00000000000E+00 0. -1.
</event>
<event>
 6    1  0.3624778E-005  0.1215533E+03  0.7818608E-02  0.1310043E+00
          2   -1    0    0  502    0  0.00000000000E+00  0.00000000000E+00  0.20260161075E+03  0.20260161075E+03  0.00000000000E+00 0. -1.
          1   -1    0    0  501    0 -0.00000000000E+00 -0.00000000000E+00 -0.12740898443E+03  0.12740898443E+03  0.00000000000E+00 0.  1.
          2    1    1    2  501    0 -0.79809172945E+01 -0.25769826819E+02 -0.69906761377E+01  0.27868415241E+02  0.00000000000E+00 0. -1.
          1    1    1    2  502    0 -0.37690033651E+02 -0.22487505211E+02 -0.77317755731E+02  0.88905915880E+02  0.00000000000E+00 0.  1.
         22    1    1    2    0    0 -0.24888009392E+02 -0.20175373881E+02  0.82088393759E+02  0.88119028096E+02  0.00000000000E+00 0. -1.
         22    1    1    2    0    0  0.70558960338E+02  0.68432705910E+02  0.77412664424E+02  0.12511723596E+03  0.00000000000E+00 0. -1.
</event>
<event>
 6    1  0.3624778E-005  0.9293163E+02  0.7818608E-02  0.1298406E+00
          2   -1    0    0  502    0  0.00000000000E+00  0.00000000000E+00  0.41101005481E+02  0.41101005481E+02  0.00000000000E+00 0. -1.
          1   -1    0    0  501    0 -0.00000000000E+00 -0.00000000000E+00 -0.60669087841E+03  0.60669087841E+03  0.00000000000E+00 0. -1.
          2    1    1    2  501    0  0.77012134969E+01 -0.51621844649E+02 -0.26991141322E+02  0.58759214121E+02  0.00000000000E+00 0. -1.
          1    1    1    2  502    0  0.37159823427E+02  0.38716954220E+02 -0.35700409661E+03  0.36101493046E+03  0.00000000000E+00 0. -1.
         22    1    1    2    0    0 -0.19823985397E+02 -0.51396357680E+02 -0.33082083289E+02  0.64257296975E+02  0.00000000000E+00 0. -1.
         22    1    1    2    0    0 -0.25037051527E+02  0.64301248109E+02 -0.14851255171E+03  0.16376044233E+03  0.00000000000E+00 0. -1.
</event>
<event>
 6    1  0.3624778E-005  0.1643803E+03  0.7818608E-02  0.1235980E+00
          2   -1    0    0  502    0  0.00000000000E+00  0.00000000000E+00  0.25371706466E+03  0.25371706466E+03  0.00000000000E+00 0. -1.
          1   -1    0    0  501    0 -0.00000000000E+00 -0.00000000000E+00 -0.15987667149E+03  0.15987667149E+03  0.00000000000E+00 0. -1.
          2    1    1    2  501    0 -0.28120894736E+02  0.14368133086E+02 -0.86894999129E+01  0.32752639250E+02  0.00000000000E+00 0. -1.
          1    1    1    2  502    0  0.15606094543E+03  0.23932047137E+01 -0.31185136436E+02  0.15916425118E+03  0.00000000000E+00 0. -1.
         22    1    1    2    0    0 -0.11681818192E+03  0.36030538379E+02  0.84120643692E+02  0.14839464282E+03  0.00000000000E+00 0. -1.
         22    1    1    2    0    0 -0.11121868777E+02 -0.52791876178E+02  0.49594385827E+02  0.73282202895E+02  0.00000000000E+00 0. -1.
</event>
<event>
 6    1  0.3624778E-005  0.3397364E+03  0.7818608E-02  0.1202925E+00
          2   -1    0    0  502    0  0.00000000000E+00  0.00000000000E+00  0.17969799699E+03  0.17969799699E+03  0.00000000000E+00 0. -1.
          1   -1    0    0  501    0 -0.00000000000E+00 -0.00000000000E+00 -0.17372640326E+04  0.17372640326E+04  0.00000000000E+00 0. -1.
          2    1    1    2  501    0  0.34564113899E+02 -0.42783750339E+02 -0.14864534525E+02  0.56974394682E+02  0.00000000000E+00 0. -1.
          1    1    1    2  502    0  0.12270870357E+02  0.32307628976E+03 -0.15159713922E+04  0.15500639101E+04  0.00000000000E+00 0. -1.
         22    1    1    2    0    0  0.99868030478E+01 -0.70814664447E+01  0.23390837725E+02  0.26401035805E+02  0.00000000000E+00 0. -1.
         22    1    1    2    0    0 -0.56821787304E+02 -0.27321107298E+03 -0.50120946596E+02  0.28352268903E+03  0.00000000000E+00 0. -1.
</event>
<event>
 6    1  0.4135985E-005  0.5197073E+02  0.7818608E-02  0.1512746E+00
          2   -1    0    0  502    0  0.00000000000E+00  0.00000000000E+00  0.10628488574E+03  0.10628488574E+03  0.00000000000E+00 0.  1.
          1   -1    0    0  501    0 -0.00000000000E+00 -0.00000000000E+00 -0.14665150240E+04  0.14665150240E+04  0.00000000000E+00 0.  1.
          2    1    1    2  501    0  0.15062840205E+02 -0.22115439472E+02 -0.37705058628E+02  0.46234762509E+02  0.00000000000E+00 0.  1.
          1    1    1    2  502    0 -0.36851437150E+02  0.31915130635E+02 -0.13859616150E+04  0.13868187345E+04  0.00000000000E+00 0.  1.
         22    1    1    2    0    0  0.27962387870E+02 -0.25800873773E+02 -0.27666713237E+02  0.47042823515E+02  0.00000000000E+00 0.  1.
         22    1    1    2    0    0 -0.61737909260E+01  0.16001182610E+02  0.91103248647E+02  0.92703589215E+02  0.00000000000E+00 0.  1.
</event>
<event>
 6    1  0.3624778E-005  0.1173636E+03  0.7818608E-02  0.1255773E+00
          2   -1    0    0  502    0  0.00000000000E+00  0.00000000000E+00  0.59348524421E+03  0.59348524421E+03  0.00000000000E+00 0.  1.
          1   -1    0    0  501    0 -0.00000000000E+00 -0.00000000000E+00 -0.10519617005E+04  0.10519617005E+04  0.00000000000E+00 0. -1.
          2    1    1    2  501    0 -0.42836770496E+02  0.10567334827E+02  0.19144495845E+02  0.48095417589E+02  0.00000000000E+00 0.  1.
          1    1    1    2  502    0 -0.32318546179E+02  0.19513078984E+02 -0.10274267132E+04  0.10281200804E+04  0.00000000000E+00 0. -1.
         22    1    1    2    0    0 -0.15641789788E+02  0.31299785147E+02  0.90449880362E+02  0.96982075640E+02  0.00000000000E+00 0. -1.
         22    1    1    2    0    0  0.90797106463E+02 -0.61380198958E+02  0.45935588070E+03  0.47224937110E+03  0.00000000000E+00 0.  1.
</event>
<event>
 6    1  0.3624778E-005  0.1385124E+03  0.7818608E-02  0.1237536E+00
          2   -1    0    0  502    0  0.00000000000E+00  0.00000000000E+00  0.30811262655E+02  0.30811262655E+02  0.00000000000E+00 0. -1.
          1   -1    0    0  501    0 -0.00000000000E+00 -0.00000000000E+00 -0.66448461981E+03  0.66448461981E+03  0.00000000000E+00 0. -1.
          2    1    1    2  501    0 -0.94342141558E+02 -0.10493055060E+02 -0.27745321130E+03  0.29324192800E+03  0.00000000000E+00 0. -1.
          1    1    1    2  502    0  0.61579254978E+01  0.24895127150E+02 -0.81414112569E+02  0.85357747906E+02  0.00000000000E+00 0. -1.
         22    1    1    2    0    0  0.12524735468E+02 -0.51705316276E+02 -0.18909782975E+03  0.19643904384E+03  0.00000000000E+00 0. -1.
         22    1    1    2    0    0  0.75659480592E+02  0.37303244186E+02 -0.85708203538E+02  0.12025716271E+03  0.00000000000E+00 0. -1.
</event>
<event>
 6    1  0.3624778E-005  0.1510950E+03  0.7818608E-02  0.1315918E+00
          2   -1    0    0  502    0  0.00000000000E+00  0.00000000000E+00  0.45977413721E+02  0.45977413721E+02  0.00000000000E+00 0. -1.
          1   -1    0    0  501    0 -0.00000000000E+00 -0.00000000000E+00 -0.82132877765E+03  0.82132877765E+03  0.00000000000E+00 0.  1.
          2    1    1    2  501    0 -0.15411489303E+01 -0.63749805444E+02 -0.25704098633E+03  0.26483293128E+03  0.00000000000E+00 0. -1.
          1    1    1    2  502    0 -0.70739441125E+01  0.15064972931E+03 -0.27868800136E+03  0.31687913110E+03  0.00000000000E+00 0.  1.
         22    1    1    2    0    0  0.22588219438E+02 -0.81441217059E+02 -0.25222079221E+03  0.26600418702E+03  0.00000000000E+00 0. -1.
         22    1    1    2    0    0 -0.13973126395E+02 -0.54587068100E+01  0.12598415969E+02  0.19589941966E+02  0.00000000000E+00 0. -1.
</event>
<event>
 6    1  0.3624778E-005  0.8476668E+02  0.7818608E-02  0.1317458E+00
          2   -1    0    0  502    0  0.00000000000E+00  0.00000000000E+00  0.98245842812E+02  0.98245842812E+02  0.00000000000E+00 0. -1.
          1   -1    0    0  501    0 -0.00000000000E+00 -0.00000000000E+00 -0.36607914762E+03  0.36607914762E+03  0.00000000000E+00 0. -1.
          2    1    1    2  501    0 -0.49835667898E+02  0.25455746278E+02  0.24214444992E+02  0.60974815782E+02  0.00000000000E+00 0. -1.
          1    1    1    2  502    0 -0.27108255631E+02 -0.95409766227E+01 -0.24820166895E+03  0.24985987319E+03  0.00000000000E+00 0. -1.
         22    1    1    2    0    0 -0.17875570044E+02  0.15014979430E+02  0.23516478737E+02  0.33136239737E+02  0.00000000000E+00 0. -1.
         22    1    1    2    0    0  0.94819493573E+02 -0.30929749086E+02 -0.67362559580E+02  0.12035406172E+03  0.00000000000E+00 0. -1.
</event>
<event>
 6    1  0.3624778E-005  0.1693226E+03  0.7818608E-02  0.1203703E+00
          2   -1    0    0  502    0  0.00000000000E+00  0.00000000000E+00  0.15067063401E+03  0.15067063401E+03  0.00000000000E+00 0.  1.
          1   -1    0    0  501    0 -0.00000000000E+00 -0.00000000000E+00 -0.65614544259E+03  0.65614544259E+03  0.00000000000E+00 0.  1.
          2    1    1    2  501    0  0.55492991353E+02 -0.27950541445E+02 -0.49496513043E+02  0.79439345792E+02  0.00000000000E+00 0.  1.
          1    1    1    2  502    0 -0.18340613340E+03  0.63609634580E+02 -0.50385693988E+03  0.53995908293E+03  0.00000000000E+00 0.  1.
         22    1    1    2    0    0  0.96144640321E+02  0.14577683028E+02  0.74291467748E+02  0.12237451894E+03  0.00000000000E+00 0.  1.
         22    1    1    2    0    0  0.31768501729E+02 -0.50236776162E+02 -0.26412823415E+02  0.65043128937E+02  0.00000000000E+00 0.  1.
</event>
<event>
 6    1  0.3624778E-005  0.2098033E+03  0.7818608E-02  0.1260210E+00
          2   -1    0    0  502    0  0.00000000000E+00  0.00000000000E+00  0.11398921032E+03  0.11398921032E+03  0.00000000000E+00 0.  1.
          1   -1    0    0  501    0 -0.00000000000E+00 -0.00000000000E+00 -0.69825081209E+03  0.69825081209E+03  0.00000000000E+00 0. -1.
          2    1    1    2  501    0 -0.13275595729E+02  0.78809131598E+02 -0.12764752058E+03  0.15060215860E+03  0.00000000000E+00 0.  1.
          1    1    1    2  502    0  0.24472646008E+01  0.25799390899E+02 -0.49106795469E+03  0.49175129263E+03  0.00000000000E+00 0. -1.
         22    1    1    2    0    0 -0.15829121265E+02 -0.20894424160E+01  0.59024658350E+02  0.61146031293E+02  0.00000000000E+00 0.  1.
         22    1    1    2    0    0  0.26657452393E+02 -0.10251908008E+03 -0.24570784855E+02  0.10874053990E+03  0.00000000000E+00 0. -1.
</event>
<event>
 6    1  0.3624778E-005  0.9491097E+02  0.7818608E-02  0.1321837E+00
          2   -1    0    0  502    0  0.00000000000E+00  0.00000000000E+00  0.26912087341E+02  0.26912087341E+02  0.00000000000E+00 0. -1.
          1   -1    0    0  501    0 -0.00000000000E+00 -0.00000000000E+00 -0.64959851070E+03  0.64959851070E+03  0.00000000000E+00 0. -1.
          2    1    1    2  501    0  0.38733471504E+02 -0.44524254463E+00 -0.18814448429E+03  0.19209067396E+03  0.00000000000E+00 0. -1.
          1    1    1    2  502    0 -0.61386798677E+02  0.41282016056E+02 -0.18566890143E+03  0.19986366568E+03  0.00000000000E+00 0. -1.
         22    1    1    2    0    0  0.71430466851E+02 -0.16659382309E+02 -0.19335840036E+03  0.20680260541E+03  0.00000000000E+00 0. -1.
         22    1    1    2    0    0 -0.48777139679E+02 -0.24177391203E+02 -0.55514637277E+02  0.77753652986E+02  0.00000000000E+00 0. -1.
</event>
<event>
 6    1  0.3624778E-005  0.1912927E+03  0.7818608E-02  0.1257514E+00
          2   -1    0    0  502    0  0.00000000000E+00  0.00000000000E+00  0.32853209405E+03  0.32853209405E+03  0.00000000000E+00 0. -1.
          1   -1    0    0  501    0 -0.00000000000E+00 -0.00000000000E+00 -0.15939949973E+03  0.15939949973E+03  0.00000000000E+00 0. -1.
          2    1    1    2  501    0  0.22358496918E+02 -0.13559984896E+02  0.53157450274E+02  0.59240949473E+02  0.00000000000E+00 0. -1.
          1    1    1    2  502    0 -0.78388576141E+02  0.15523178044E+03 -0.39717410360E+02  0.17837922304E+03  0.00000000000E+00 0. -1.
         22    1    1    2    0    0  0.37997083490E+02 -0.15464188162E+03  0.94403743009E+02  0.18512146445E+03  0.00000000000E+00 0. -1.
         22    1    1    2    0    0  0.18032995733E+02  0.12970086082E+02  0.61288811392E+02  0.65189956818E+02  0.00000000000E+00 0. -1.
</event>
<event>
 6    1  0.3624778E-005  0.9929182E+02  0.7818608E-02  0.1369055E+00
          2   -1    0    0  502    0  0.00000000000E+00  0.00000000000E+00  0.10557615560E+03  0.10557615560E+03  0.00000000000E+00 0. -1.
          1   -1    0    0  501    0 -0.00000000000E+00 -0.00000000000E+00 -0.55926174969E+03  0.55926174969E+03  0.00000000000E+00 0. -1.
          2    1    1    2  501    0  0.21778325114E+02 -0.27789537908E+02 -0.39931489936E+02  0.53301761231E+02  0.00000000000E+00 0. -1.
          1    1    1    2  502    0  0.58402439411E+01 -0.31485708247E+02 -0.46144225355E+03  0.46255206370E+03  0.00000000000E+00 0. -1.
         22    1    1    2    0    0 -0.41117461475E+02  0.43032551698E+02 -0.31282075846E+02  0.67238489074E+02  0.00000000000E+00 0. -1.
         22    1    1    2    0    0  0.13498892421E+02  0.16242694457E+02  0.78970225241E+02  0.81745591285E+02  0.00000000000E+00 0. -1.
</event>
<event>
 6    1  0.3624778E-005  0.7053213E+02  0.7818608E-02  0.1361571E+00
          2   -1    0    0  502    0  0.00000000000E+00  0.00000000000E+00  0.34252197081E+03  0.34252197081E+03  0.00000000000E+00 0.  1.
          1   -1    0    0  501    0 -0.00000000000E+00 -0.00000000000E+00 -0.32822171172E+03  0.32822171172E+03  0.00000000000E+00 0.  1.
          2    1    1    2  501    0  0.29734666138E+02 -0.22270243060E+02  0.12343196764E+03  0.12890137599E+03  0.00000000000E+00 0.  1.
          1    1    1    2  502    0  0.80380392912E+01 -0.26488994900E+02 -0.30368817387E+03  0.30494718211E+03  0.00000000000E+00 0.  1.
         22    1    1    2    0    0 -0.44418859188E+02  0.76456084605E+02  0.81319629608E+02  0.12013097055E+03  0.00000000000E+00 0.  1.
         22    1    1    2    0    0  0.66461537584E+01 -0.27696846645E+02  0.11323683572E+03  0.11676415390E+03  0.00000000000E+00 0.  1.
</event>
<event>
 6    1  0.3624778E-005  0.8725634E+02  0.7818608E-02  0.1320943E+00
          2   -1    0    0  502    0  0.00000000000E+00  0.00000000000E+00  0.15442991249E+03  0.15442991249E+03  0.00000000000E+00 0. -1.
          1   -1    0    0  501    0 -0.00000000000E+00 -0.00000000000E+00 -0.38812438674E+03  0.38812438674E+03  0.00000000000E+00 0. -1.
          2    1    1    2  501    0 -0.22431860836E+02 -0.12295064092E+02 -0.24788795738E+03  0.24920432660E+03  0.00000000000E+00 0. -1.
          1    1    1    2  502    0 -0.99462775434E+02  0.46084344271E+02  0.29526770753E+02  0.11352726842E+03  0.00000000000E+00 0. -1.
         22    1    1    2    0    0  0.26148410608E+02 -0.20948181582E+02 -0.63560105382E+02  0.71850210056E+02  0.00000000000E+00 0.  1.
         22    1    1    2    0    0  0.95746225662E+02 -0.12841098598E+02  0.48226817756E+02  0.10797249415E+03  0.00000000000E+00 0.  1.
</event>
<event>
 6    1  0.3624778E-005  0.1431205E+03  0.7818608E-02  0.1262921E+00
          2   -1    0    0  502    0  0.00000000000E+00  0.00000000000E+00  0.23713943177E+03  0.23713943177E+03  0.00000000000E+00 0. -1.
          1   -1    0    0  501    0 -0.00000000000E+00 -0.00000000000E+00 -0.64634587058E+03  0.64634587058E+03  0.00000000000E+00 0.  1.
          2    1    1    2  501    0 -0.33130307359E+02 -0.85403553097E+02  0.96434440809E+02  0.13300746416E+03  0.00000000000E+00 0. -1.
          1    1    1    2  502    0  0.35848230290E+02  0.12602804117E+03 -0.58304598855E+03  0.59758747271E+03  0.00000000000E+00 0.  1.
         22    1    1    2    0    0 -0.46694910173E+02 -0.22168965428E+02  0.89799257706E+02  0.10361363013E+03  0.00000000000E+00 0. -1.
         22    1    1    2    0    0  0.43976987242E+02 -0.18455522642E+02 -0.12394148772E+02  0.49276735349E+02  0.00000000000E+00 0.  1.
</event>
<event>
 6    1  0.3624778E-005  0.1842338E+03  0.7818608E-02  0.1164236E+00
          2   -1    0    0  502    0  0.00000000000E+00  0.00000000000E+00  0.37887764026E+03  0.37887764026E+03  0.00000000000E+00 0. -1.
          1   -1    0    0  501    0 -0.00000000000E+00 -0.00000000000E+00 -0.33556310782E+03  0.33556310782E+03  0.00000000000E+00 0. -1.
          2    1    1    2  501    0  0.59077055462E+02  0.15758233663E+03  0.23867745735E+03  0.29204318165E+03  0.00000000000E+00 0. -1.
          1    1    1    2  502    0 -0.28282457651E+02 -0.58346427514E+01 -0.21861124204E+03  0.22051035262E+03  0.00000000000E+00 0. -1.
         22    1    1    2    0    0 -0.29364225344E+02 -0.17088479471E+03  0.21993702439E+01  0.17340331030E+03  0.00000000000E+00 0. -1.
         22    1    1    2    0    0 -0.14303724665E+01  0.19137100832E+02  0.21048946897E+02  0.28483903509E+02  0.00000000000E+00 0.  1.
</event>
<event>
 6    1  0.3624778E-005  0.4484607E+03  0.7818608E-02  0.1139563E+00
          2   -1    0    0  502    0  0.00000000000E+00  0.00000000000E+00  0.90407268698E+03  0.90407268698E+03  0.00000000000E+00 0. -1.
          1   -1    0    0  501    0 -0.00000000000E+00 -0.00000000000E+00 -0.31952667685E+03  0.31952667685E+03  0.00000000000E+00 0. -1.
          2    1    1    2  501    0 -0.27150364300E+03  0.19444132907E+03  0.34046475187E+01  0.33396594173E+03  0.00000000000E+00 0. -1.
          1    1    1    2  502    0  0.38904681607E+03 -0.23642772467E+03  0.54086118148E+03  0.70695566461E+03  0.00000000000E+00 0. -1.
         22    1    1    2    0    0 -0.10335347575E+03  0.24359330671E+02 -0.28770373691E+02  0.11001387341E+03  0.00000000000E+00 0. -1.
         22    1    1    2    0    0 -0.14189697315E+02  0.17627064936E+02  0.69050554817E+02  0.72663884074E+02  0.00000000000E+00 0.  1.
</event>
<event>
 6    1  0.3624778E-005  0.4626692E+03  0.7818608E-02  0.1160071E+00
          2   -1    0    0  502    0  0.00000000000E+00  0.00000000000E+00  0.84173440303E+03  0.84173440303E+03  0.00000000000E+00 0. -1.
          1   -1    0    0  501    0 -0.00000000000E+00 -0.00000000000E+00 -0.15634149510E+03  0.15634149510E+03  0.00000000000E+00 0. -1.
          2    1    1    2  501    0 -0.43834197560E+02  0.32144136885E+02 -0.44307624294E+02  0.70127369710E+02  0.00000000000E+00 0. -1.
          1    1    1    2  502    0 -0.15290069097E+03 -0.26629495700E+02 -0.76490700806E+01  0.15539066772E+03  0.00000000000E+00 0. -1.
         22    1    1    2    0    0 -0.50784620394E+01  0.11611994045E+02  0.66606368410E+01  0.14317585883E+02  0.00000000000E+00 0.  1.
         22    1    1    2    0    0  0.20181335057E+03 -0.17126635230E+02  0.73068896547E+03  0.75824027482E+03  0.00000000000E+00 0. -1.
</event>
<event>
 6    1  0.3624778E-005  0.3425158E+03  0.7818608E-02  0.1176685E+00
          2   -1    0    0  502    0  0.00000000000E+00  0.00000000000E+00  0.12903952715E+03  0.12903952715E+03  0.00000000000E+00 0. -1.
          1   -1    0    0  501    0 -0.00000000000E+00 -0.00000000000E+00 -0.16357149742E+04  0.16357149742E+04  0.00000000000E+00 0. -1.
          2    1    1    2  501    0 -0.31575151508E+03 -0.40941945935E+02 -0.91838663427E+03  0.97201300002E+03  0.00000000000E+00 0. -1.
          1    1    1    2  502    0  0.34654640929E+03  0.47996161318E+02 -0.56030086798E+03  0.66055666520E+03  0.00000000000E+00 0. -1.
         22    1    1    2    0    0 -0.16252454438E+02 -0.13827014090E+02  0.49052023843E+02  0.53492332506E+02  0.00000000000E+00 0. -1.
         22    1    1    2    0    0 -0.14542439768E+02  0.67727987059E+01 -0.77039968672E+02  0.78692503644E+02  0.00000000000E+00 0.  1.
</event>
<event>
 6    1  0.3624778E-005  0.1958326E+03  0.7818608E-02  0.1249224E+00
          2   -1    0    0  502    0  0.00000000000E+00  0.00000000000E+00  0.15714352992E+03  0.15714352992E+03  0.00000000000E+00 0. -1.
          1   -1    0    0  501    0 -0.00000000000E+00 -0.00000000000E+00 -0.82532430428E+03  0.82532430428E+03  0.00000000000E+00 0. -1.
          2    1    1    2  501    0  0.13822544656E+03  0.33567097185E+02 -0.40721597634E+03  0.43134426561E+03  0.00000000000E+00 0. -1.
          1    1    1    2  502    0 -0.17387279162E+03 -0.70310933936E+02 -0.34349034974E+03  0.39135788667E+03  0.00000000000E+00 0. -1.
         22    1    1    2    0    0  0.34263823971E+01  0.24168730718E+02  0.11181126443E+03  0.11444486224E+03  0.00000000000E+00 0. -1.
         22    1    1    2    0    0  0.32220962661E+02  0.12575106033E+02 -0.29285712708E+02  0.45320819668E+02  0.00000000000E+00 0.  1.
</event>
<event>
 6    1  0.3624778E-005  0.6835539E+02  0.7818608E-02  0.1369898E+00
          2   -1    0    0  502    0  0.00000000000E+00  0.00000000000E+00  0.37913955574E+03  0.37913955574E+03  0.00000000000E+00 0.  1.
          1   -1    0    0  501    0 -0.00000000000E+00 -0.00000000000E+00 -0.31065159320E+03  0.31065159320E+03  0.00000000000E+00 0. -1.
          2    1    1    2  501    0  0.64561638548E+01  0.42496407891E+02  0.66991133351E+02  0.79595468985E+02  0.00000000000E+00 0.  1.
          1    1    1    2  502    0 -0.31941749479E+02 -0.55435459558E+02 -0.28664704874E+03  0.29370035085E+03  0.00000000000E+00 0. -1.
         22    1    1    2    0    0 -0.93321890676E+01  0.66440040141E+02  0.14887796953E+03  0.16329733157E+03  0.00000000000E+00 0.  1.
         22    1    1    2    0    0  0.34817774692E+02 -0.53500988474E+02  0.13926590841E+03  0.15319799753E+03  0.00000000000E+00 0.  1.
</event>
<event>
 6    1  0.3624778E-005  0.1771682E+03  0.7818608E-02  0.1179706E+00
          2   -1    0    0  502    0  0.00000000000E+00  0.00000000000E+00  0.85507586546E+03  0.85507586546E+03  0.00000000000E+00 0.  1.
          1   -1    0    0  501    0 -0.00000000000E+00 -0.00000000000E+00 -0.25437093445E+03  0.25437093445E+03  0.00000000000E+00 0. -1.
          2    1    1    2  501    0 -0.35164103913E+02  0.17435707768E+03  0.41598648366E+03  0.45241757186E+03  0.00000000000E+00 0.  1.
          1    1    1    2  502    0 -0.36332317838E+02 -0.86564166725E+02 -0.20871137544E+03  0.22885329475E+03  0.00000000000E+00 0. -1.
         22    1    1    2    0    0  0.39191163555E+02  0.27334852977E+02  0.87284353938E+02  0.99507285816E+02  0.00000000000E+00 0. -1.
         22    1    1    2    0    0  0.32305258196E+02 -0.11512776393E+03  0.30614546886E+03  0.32866864749E+03  0.00000000000E+00 0. -1.
</event>
<event>
 6    1  0.3624778E-005  0.9479593E+02  0.7818608E-02  0.1295390E+00
          2   -1    0    0  502    0  0.00000000000E+00  0.00000000000E+00  0.48451141825E+03  0.48451141825E+03  0.00000000000E+00 0.  1.
          1   -1    0    0  501    0 -0.00000000000E+00 -0.00000000000E+00 -0.10109362038E+04  0.10109362038E+04  0.00000000000E+00 0.  1.
          2    1    1    2  501    0  0.72184060799E+02 -0.77143300641E+01  0.11690400225E+03  0.13761030217E+03  0.00000000000E+00 0.  1.
          1    1    1    2  502    0 -0.19718334834E+02  0.35285499519E+02 -0.98714160822E+03  0.98796884256E+03  0.00000000000E+00 0.  1.
         22    1    1    2    0    0  0.26311003807E+02  0.97392117226E+01  0.19807888581E+02  0.34343465410E+02  0.00000000000E+00 0.  1.
         22    1    1    2    0    0 -0.78776729773E+02 -0.37310381177E+02  0.32400493188E+03  0.33552501186E+03  0.00000000000E+00 0.  1.
</event>
<event>
 6    1  0.3624778E-005  0.1046336E+03  0.7818608E-02  0.1390044E+00
          2   -1    0    0  502    0  0.00000000000E+00  0.00000000000E+00  0.64658062459E+02  0.64658062459E+02  0.00000000000E+00 0. -1.
          1   -1    0    0  501    0 -0.00000000000E+00 -0.00000000000E+00 -0.59751291832E+03  0.59751291832E+03  0.00000000000E+00 0.  1.
          2    1    1    2  501    0  0.25751969292E+02 -0.32225723384E+02 -0.32499890663E+02  0.52515750620E+02  0.00000000000E+00 0. -1.
          1    1    1    2  502    0 -0.91411218209E+01  0.89815767086E+02 -0.45505497141E+03  0.46392397990E+03  0.00000000000E+00 0.  1.
         22    1    1    2    0    0  0.68991097105E+01 -0.10796365007E+02  0.42010143258E+02  0.43920511708E+02  0.00000000000E+00 0. -1.
         22    1    1    2    0    0 -0.23509957182E+02 -0.46793678694E+02 -0.87310137046E+02  0.10181073855E+03  0.00000000000E+00 0.  1.
</event>
<event>
 6    1  0.3624778E-005  0.8884726E+02  0.7818608E-02  0.1310981E+00
          2   -1    0    0  502    0  0.00000000000E+00  0.00000000000E+00  0.86402497288E+02  0.86402497288E+02  0.00000000000E+00 0.  1.
          1   -1    0    0  501    0 -0.00000000000E+00 -0.00000000000E+00 -0.24476328489E+03  0.24476328489E+03  0.00000000000E+00 0. -1.
          2    1    1    2  501    0  0.17049270240E+02 -0.48097172062E+02  0.39900299833E+02  0.64776921067E+02  0.00000000000E+00 0.  1.
          1    1    1    2  502    0  0.32209519476E+02  0.10766736854E+02 -0.63742411387E+02  0.72225139507E+02  0.00000000000E+00 0. -1.
         22    1    1    2    0    0 -0.39868336369E+02  0.70593603234E+02 -0.13734136069E+03  0.15948539250E+03  0.00000000000E+00 0. -1.
         22    1    1    2    0    0 -0.93904533477E+01 -0.33263168027E+02  0.28226846445E+01  0.34678329110E+02  0.00000000000E+00 0. -1.
</event>
<event>
 6    1  0.3624778E-005  0.3212357E+03  0.7818608E-02  0.1145111E+00
          2   -1    0    0  502    0  0.00000000000E+00  0.00000000000E+00  0.11693842685E+04  0.11693842685E+04  0.00000000000E+00 0. -1.
          1   -1    0    0  501    0 -0.00000000000E+00 -0.00000000000E+00 -0.10598110889E+03  0.10598110889E+03  0.00000000000E+00 0. -1.
          2    1    1    2  501    0 -0.17634509273E+03 -0.16126023312E+03  0.60310675297E+03  0.64872198205E+03  0.00000000000E+00 0. -1.
          1    1    1    2  502    0  0.21336653832E+03  0.18685596040E+03  0.36318729391E+03  0.46080954859E+03  0.00000000000E+00 0. -1.
         22    1    1    2    0    0  0.32730149925E+02 -0.42808634166E+02  0.13413058615E+02  0.55531540720E+02  0.00000000000E+00 0.  1.
         22    1    1    2    0    0 -0.69751595515E+02  0.17212906890E+02  0.83696054094E+02  0.11030230601E+03  0.00000000000E+00 0.  1.
</event>
<event>
 6    1  0.3624778E-005  0.1324120E+03  0.7818608E-02  0.1304759E+00
          2   -1    0    0  502    0  0.00000000000E+00  0.00000000000E+00  0.41972505364E+03  0.41972505364E+03  0.00000000000E+00 0. -1.
          1   -1    0    0  501    0 -0.00000000000E+00 -0.00000000000E+00 -0.31951272064E+03  0.31951272064E+03  0.00000000000E+00 0. -1.
          2    1    1    2  501    0  0.11366820965E+03 -0.30922205651E+02 -0.25558766573E+03  0.28142796513E+03  0.00000000000E+00 0. -1.
          1    1    1    2  502    0 -0.14659206673E+03  0.43911456927E+02  0.22317127940E+03  0.27059724689E+03  0.00000000000E+00 0. -1.
         22    1    1    2    0    0  0.12266379727E+02  0.48442409115E+01 -0.24450378684E+02  0.27780420432E+02  0.00000000000E+00 0.  1.
         22    1    1    2    0    0  0.20657477356E+02 -0.17833492187E+02  0.15707909801E+03  0.15943214182E+03  0.00000000000E+00 0. -1.
</event>
<event>
 6    1  0.3624778E-005  0.1950833E+03  0.7818608E-02  0.1244849E+00
          2   -1    0    0  502    0  0.00000000000E+00  0.00000000000E+00  0.82780156338E+02  0.82780156338E+02  0.00000000000E+00 0.  1.
          1   -1    0    0  501    0 -0.00000000000E+00 -0.00000000000E+00 -0.11621899884E+04  0.11621899884E+04  0.00000000000E+00 0.  1.
          2    1    1    2  501    0 -0.57757159384E+02  0.25410392213E+02 -0.31657026277E+02  0.70595642962E+02  0.00000000000E+00 0.  1.
          1    1    1    2  502    0  0.19115707844E+03 -0.19591100556E+02 -0.94758395616E+03  0.96687134295E+03  0.00000000000E+00 0.  1.
         22    1    1    2    0    0 -0.11965277881E+02 -0.24158856688E+02  0.21608815880E+02  0.34550819888E+02  0.00000000000E+00 0.  1.
         22    1    1    2    0    0 -0.12143464117E+03  0.18339565030E+02 -0.12177766547E+03  0.17295233889E+03  0.00000000000E+00 0.  1.
</event>
<event>
 6    1  0.3624778E-005  0.6842947E+02  0.7818608E-02  0.1367400E+00
          2   -1    0    0  502    0  0.00000000000E+00  0.00000000000E+00  0.86505566247E+02  0.86505566247E+02  0.00000000000E+00 0.  1.
          1   -1    0    0  501    0 -0.00000000000E+00 -0.00000000000E+00 -0.36519674769E+03  0.36519674769E+03  0.00000000000E+00 0.  1.
          2    1    1    2  501    0  0.22087337380E+02  0.15638442479E+02 -0.12097864188E+02  0.29644049548E+02  0.00000000000E+00 0.  1.
          1    1    1    2  502    0 -0.25802207204E+02 -0.39898497414E+01 -0.29435387967E+03  0.29550952485E+03  0.00000000000E+00 0.  1.
         22    1    1    2    0    0  0.53837207527E+02  0.21678194210E+02 -0.45829088081E+01  0.58218485652E+02  0.00000000000E+00 0.  1.
         22    1    1    2    0    0 -0.50122337703E+02 -0.33326786948E+02  0.32343471228E+02  0.68330253886E+02  0.00000000000E+00 0.  1.
</event>
<event>
 6    1  0.3624778E-005  0.1083841E+03  0.7818608E-02  0.1322724E+00
          2   -1    0    0  502    0  0.00000000000E+00  0.00000000000E+00  0.16789137431E+02  0.16789137431E+02  0.00000000000E+00 0.  1.
          1   -1    0    0  501    0 -0.00000000000E+00 -0.00000000000E+00 -0.25563371767E+04  0.25563371767E+04  0.00000000000E+00 0.  1.
          2    1    1    2  501    0  0.21896089863E+02  0.29845265727E+02 -0.57193404445E+02  0.68126824009E+02  0.00000000000E+00 0.  1.
          1    1    1    2  502    0 -0.55734535149E+02 -0.32926715675E+02 -0.20954262911E+04  0.20964259701E+04  0.00000000000E+00 0.  1.
         22    1    1    2    0    0 -0.22593448301E+02  0.28007761204E+02 -0.31479102272E+02  0.47810380396E+02  0.00000000000E+00 0.  1.
         22    1    1    2    0    0  0.56431893587E+02 -0.24926311256E+02 -0.35544924155E+03  0.36076313964E+03  0.00000000000E+00 0.  1.
</event>
<event>
 6    1  0.3624778E-005  0.8345545E+02  0.7818608E-02  0.1321285E+00
          2   -1    0    0  502    0  0.00000000000E+00  0.00000000000E+00  0.16943987952E+03  0.16943987952E+03  0.00000000000E+00 0. -1.
          1   -1    0    0  501    0 -0.00000000000E+00 -0.00000000000E+00 -0.52165957067E+02  0.52165957067E+02  0.00000000000E+00 0. -1.
          2    1    1    2  501    0 -0.27442877341E+02 -0.29681829341E+02  0.14487370498E+02  0.42941895786E+02  0.00000000000E+00 0. -1.
          1    1    1    2  502    0  0.20478598521E+02  0.47490333472E+01  0.21199973077E+02  0.29855739374E+02  0.00000000000E+00 0. -1.
         22    1    1    2    0    0 -0.38845438311E+02 -0.31887337469E+02  0.43570433178E+02  0.66514306850E+02  0.00000000000E+00 0. -1.
         22    1    1    2    0    0  0.45809717131E+02  0.56820133463E+02  0.38016145699E+02  0.82293894574E+02  0.00000000000E+00 0. -1.
</event>
<event>
 6    1  0.3624778E-005  0.9410120E+02  0.7818608E-02  0.1296486E+00
          2   -1    0    0  502    0  0.00000000000E+00  0.00000000000E+00  0.24861351652E+02  0.24861351652E+02  0.00000000000E+00 0.  1.
          1   -1    0    0  501    0 -0.00000000000E+00 -0.00000000000E+00 -0.45351633045E+03  0.45351633045E+03  0.00000000000E+00 0.  1.
          2    1    1    2  501    0 -0.45766377897E+01  0.42835827758E+02 -0.13632741632E+03  0.14297208886E+03  0.00000000000E+00 0.  1.
          1    1    1    2  502    0  0.24448109789E+02  0.12442250701E+02 -0.62317199014E+02  0.68087832744E+02  0.00000000000E+00 0.  1.
         22    1    1    2    0    0 -0.12779345434E+02  0.39032965101E+02 -0.58842382523E+02  0.71758692960E+02  0.00000000000E+00 0. -1.
         22    1    1    2    0    0 -0.70921265653E+01 -0.94311043560E+02 -0.17116798095E+03  0.19555906754E+03  0.00000000000E+00 0.  1.
</event>
<event>
 6    1  0.4748860E-005  0.5711601E+03  0.7818608E-02  0.1116487E+00
          2   -1    0    0  502    0  0.00000000000E+00  0.00000000000E+00  0.14785611590E+04  0.14785611590E+04  0.00000000000E+00 0.  1.
          1   -1    0    0  501    0 -0.00000000000E+00 -0.00000000000E+00 -0.72203153161E+03  0.72203153161E+03  0.00000000000E+00 0.  1.
          2    1    1    2  501    0 -0.18105857957E+03 -0.47754895314E+02  0.14039917332E+03  0.23403988364E+03  0.00000000000E+00 0.  1.
          1    1    1    2  502    0 -0.29435776479E+02 -0.65794916677E+01 -0.66246072106E+03  0.66314701356E+03  0.00000000000E+00 0.  1.
         22    1    1    2    0    0  0.20985674967E+03  0.73670213568E+02  0.12444092654E+04  0.12641287812E+04  0.00000000000E+00 0.  1.
         22    1    1    2    0    0  0.63760637669E+00 -0.19335826586E+02  0.34181909741E+02  0.39277012172E+02  0.00000000000E+00 0.  1.
</event>
<event>
 6    1  0.3624778E-005  0.4894109E+03  0.7818608E-02  0.1113078E+00
          2   -1    0    0  502    0  0.00000000000E+00  0.00000000000E+00  0.37294010216E+04  0.37294010216E+04  0.00000000000E+00 0.  1.
          1   -1    0    0  501    0 -0.00000000000E+00 -0.00000000000E+00 -0.36391869086E+03  0.36391869086E+03  0.00000000000E+00 0.  1.
          2    1    1    2  501    0 -0.28058361835E+03  0.30877985947E+02  0.30260154013E+04  0.30391528139E+04  0.00000000000E+00 0.  1.
          1    1    1    2  502    0  0.16859873244E+03  0.28575428867E+02 -0.32433624411E+03  0.36665526992E+03  0.00000000000E+00 0.  1.
         22    1    1    2    0    0 -0.27629732855E+02 -0.18969278637E+02  0.11521712221E+03  0.11999258694E+03  0.00000000000E+00 0. -1.
         22    1    1    2    0    0  0.13961461876E+03 -0.40484136177E+02  0.54858605128E+03  0.56751904172E+03  0.00000000000E+00 0. -1.
</event>
<event>
 6    1  0.3624778E-005  0.1525368E+03  0.7818608E-02  0.1307764E+00
          2   -1    0    0  502    0  0.00000000000E+00  0.00000000000E+00  0.44601369105E+02  0.44601369105E+02  0.00000000000E+00 0.  1.
          1   -1    0    0  501    0 -0.00000000000E+00 -0.00000000000E+00 -0.66795079187E+03  0.66795079187E+03  0.00000000000E+00 0.  1.
          2    1    1    2  501    0 -0.52149832856E+02 -0.36337063632E+02 -0.10515906654E+03  0.12287561408E+03  0.00000000000E+00 0.  1.
          1    1    1    2  502    0  0.12936370329E+02 -0.51732092728E+02 -0.37609219592E+03  0.37985378625E+03  0.00000000000E+00 0.  1.
         22    1    1    2    0    0  0.43821799079E+02  0.71811440106E+02 -0.16270881176E+03  0.18317038633E+03  0.00000000000E+00 0. -1.
         22    1    1    2    0    0 -0.46083365524E+01  0.16257716254E+02  0.20610651450E+02  0.26652374318E+02  0.00000000000E+00 0.  1.
</event>
<event>
 6    1  0.3624778E-005  0.1107671E+03  0.7818608E-02  0.1377188E+00
          2   -1    0    0  502    0  0.00000000000E+00  0.00000000000E+00  0.10907350438E+03  0.10907350438E+03  0.00000000000E+00 0.  1.
          1   -1    0    0  501    0 -0.00000000000E+00 -0.00000000000E+00 -0.30169997001E+03  0.30169997001E+03  0.00000000000E+00 0.  1.
          2    1    1    2  501    0 -0.21161723677E+02  0.52555197479E+02 -0.15254590804E+03  0.16272713785E+03  0.00000000000E+00 0.  1.
          1    1    1    2  502    0 -0.71895740048E+01 -0.10288390596E+03 -0.28301301166E+02  0.10694742507E+03  0.00000000000E+00 0.  1.
         22    1    1    2    0    0  0.15706691064E+02  0.46191073285E+02 -0.67794756442E+02  0.83525112370E+02  0.00000000000E+00 0.  1.
         22    1    1    2    0    0  0.12644606618E+02  0.41376351983E+01  0.56015500022E+02  0.57573799113E+02  0.00000000000E+00 0. -1.
</event>
<event>
 6    1  0.3624778E-005  0.8320248E+02  0.7818608E-02  0.1409278E+00
          2   -1    0    0  502    0  0.00000000000E+00  0.00000000000E+00  0.93111963276E+02  0.93111963276E+02  0.00000000000E+00 0. -1.
          1   -1    0    0  501    0 -0.00000000000E+00 -0.00000000000E+00 -0.18688893067E+03  0.18688893067E+03  0.00000000000E+00 0. -1.
          2    1    1    2  501    0  0.17083054794E+02 -0.18652592990E+02 -0.25666835176E+02  0.36035210757E+02  0.00000000000E+00 0. -1.
          1    1    1    2  502    0 -0.61739299809E+02  0.62733538198E+02 -0.41648239069E+02  0.97374605381E+02  0.00000000000E+00 0. -1.
         22    1    1    2    0    0  0.48486382963E+02 -0.25687270263E+02 -0.75926672073E+02  0.93678304417E+02  0.00000000000E+00 0. -1.
         22    1    1    2    0    0 -0.38301379484E+01 -0.18393674944E+02  0.49464778920E+02  0.52912773394E+02  0.00000000000E+00 0. -1.
</event>
<event>
 6    1  0.3624778E-005  0.1699590E+03  0.7818608E-02  0.1180971E+00
          2   -1    0    0  502    0  0.00000000000E+00  0.00000000000E+00  0.74764876008E+03  0.74764876008E+03  0.00000000000E+00 0.  1.
          1   -1    0    0  501    0 -0.00000000000E+00 -0.00000000000E+00 -0.16420373154E+03  0.16420373154E+03  0.00000000000E+00 0.  1.
          2    1    1    2  501    0  0.97980041097E+02  0.14089252158E+03  0.36887940245E+03  0.40684493931E+03  0.00000000000E+00 0.  1.
          1    1    1    2  502    0 -0.13137895383E+03 -0.87615841063E+01 -0.83312194042E+02  0.15581436564E+03  0.00000000000E+00 0.  1.
         22    1    1    2    0    0  0.10956336052E+02 -0.14167239260E+03  0.18265146376E+03  0.23141448818E+03  0.00000000000E+00 0. -1.
         22    1    1    2    0    0  0.22442576678E+02  0.95414551328E+01  0.11522635637E+03  0.11777869848E+03  0.00000000000E+00 0. -1.
</event>
<event>
 6    1  0.3624778E-005  0.1039092E+03  0.7818608E-02  0.1308131E+00
          2   -1    0    0  502    0  0.00000000000E+00  0.00000000000E+00  0.49412383891E+02  0.49412383891E+02  0.00000000000E+00 0.  1.
          1   -1    0    0  501    0 -0.00000000000E+00 -0.00000000000E+00 -0.53603717754E+03  0.53603717754E+03  0.00000000000E+00 0.  1.
          2    1    1    2  501    0  0.28499756853E+02  0.27198419643E+00 -0.63247813504E+02  0.69372876754E+02  0.00000000000E+00 0.  1.
          1    1    1    2  502    0 -0.11851200569E+03 -0.59797611006E+02 -0.17641664651E+03  0.22077971587E+03  0.00000000000E+00 0.  1.
         22    1    1    2    0    0  0.52170130439E+02  0.99002623026E+01 -0.15131426169E+02  0.55215013915E+02  0.00000000000E+00 0.  1.
         22    1    1    2    0    0  0.37842118396E+02  0.49625364507E+02 -0.23182890747E+03  0.24008195490E+03  0.00000000000E+00 0.  1.
</event>
<event>
 6    1  0.3624778E-005  0.1276367E+03  0.7818608E-02  0.1253064E+00
          2   -1    0    0  502    0  0.00000000000E+00  0.00000000000E+00  0.51139196488E+02  0.51139196488E+02  0.00000000000E+00 0. -1.
          1   -1    0    0  501    0 -0.00000000000E+00 -0.00000000000E+00 -0.82429708514E+03  0.82429708514E+03  0.00000000000E+00 0. -1.
          2    1    1    2  501    0  0.74055133870E+02 -0.13155338578E+02 -0.16290050807E+03  0.17942631166E+03  0.00000000000E+00 0. -1.
          1    1    1    2  502    0 -0.34616731138E+02  0.16559133833E+02 -0.54620575263E+03  0.54755204976E+03  0.00000000000E+00 0. -1.
         22    1    1    2    0    0 -0.57674005752E+02 -0.53435390058E+02 -0.25280983712E+02  0.82587892500E+02  0.00000000000E+00 0. -1.
         22    1    1    2    0    0  0.18235603020E+02  0.50031594804E+02 -0.38770644243E+02  0.65870027715E+02  0.00000000000E+00 0.  1.
</event>
<event>
 6    1  0.3624778E-005  0.2888727E+03  0.7818608E-02  0.1208655E+00
          2   -1    0    0  502    0  0.00000000000E+00  0.00000000000E+00  0.67526481444E+02  0.67526481444E+02  0.00000000000E+00 0.  1.
          1   -1    0    0  501    0 -0.00000000000E+00 -0.00000000000E+00 -0.12144317909E+04  0.12144317909E+04  0.00000000000E+00 0. -1.
          2    1    1    2  501    0 -0.77447772347E+02  0.14329412010E+03 -0.34421787975E+03  0.38081138512E+03  0.00000000000E+00 0.  1.
          1    1    1    2  502    0 -0.43914132446E+01 -0.71900046394E+02 -0.70715087376E+03  0.71081028371E+03  0.00000000000E+00 0. -1.
         22    1    1    2    0    0  0.97293395890E+02 -0.62959071050E+02 -0.11557060191E+03  0.16366555391E+03  0.00000000000E+00 0.  1.
         22    1    1    2    0    0 -0.15454210298E+02 -0.84350026557E+01  0.20034045997E+02  0.26671049562E+02  0.00000000000E+00 0.  1.
</event>
<event>
 6    1  0.3624778E-005  0.9160450E+02  0.7818608E-02  0.1300953E+00
          2   -1    0    0  502    0  0.00000000000E+00  0.00000000000E+00  0.23029532981E+03  0.23029532981E+03  0.00000000000E+00 0.  1.
          1   -1    0    0  501    0 -0.00000000000E+00 -0.00000000000E+00 -0.75471285179E+02  0.75471285179E+02  0.00000000000E+00 0.  1.
          2    1    1    2  501    0  0.17028258658E+02 -0.38955867998E+02  0.56157066222E+02  0.70435341491E+02  0.00000000000E+00 0.  1.
          1    1    1    2  502    0  0.55965478842E+02 -0.28659342801E+01  0.37842912801E+01  0.56166442488E+02  0.00000000000E+00 0.  1.
         22    1    1    2    0    0  0.23555952731E+02 -0.25153602545E+02  0.20613501822E+02  0.40155984454E+02  0.00000000000E+00 0.  1.
         22    1    1    2    0    0 -0.96549690231E+02  0.66975404823E+02  0.74269185308E+02  0.13900884656E+03  0.00000000000E+00 0.  1.
</event>
<event>
 6    1  0.3624778E-005  0.2539070E+03  0.7818608E-02  0.1249849E+00
          2   -1    0    0  502    0  0.00000000000E+00  0.00000000000E+00  0.33842395476E+02  0.33842395476E+02  0.00000000000E+00 0.  1.
          1   -1    0    0  501    0 -0.00000000000E+00 -0.00000000000E+00 -0.14989592906E+04  0.14989592906E+04  0.00000000000E+00 0.  1.
          2    1    1    2  501    0 -0.73835105735E+02 -0.68993420500E+02 -0.60994606366E+03  0.61826039456E+03  0.00000000000E+00 0.  1.
          1    1    1    2  502    0  0.10147125768E+02 -0.18003600462E+02 -0.66281891462E+03  0.66314101620E+03  0.00000000000E+00 0.  1.
         22    1    1    2    0    0  0.74706432141E+02  0.87962616166E+02 -0.20459607198E+03  0.23490003303E+03  0.00000000000E+00 0.  1.
         22    1    1    2    0    0 -0.11018452174E+02 -0.96559520444E+00  0.12244155102E+02  0.16500242319E+02  0.00000000000E+00 0.  1.
</event>
<event>
 6    1  0.3624778E-005  0.2840213E+03  0.7818608E-02  0.1093748E+00
          2   -1    0    0  502    0  0.00000000000E+00  0.00000000000E+00  0.16272883836E+04  0.16272883836E+04  0.00000000000E+00 0. -1.
          1   -1    0    0  501    0 -0.00000000000E+00 -0.00000000000E+00 -0.30491825003E+03  0.30491825003E+03  0.00000000000E+00 0. -1.
          2    1    1    2  501    0  0.10560598664E+03  0.31586304844E+03  0.63318035042E+03  0.71542955345E+03  0.00000000000E+00 0. -1.
          1    1    1    2  502    0 -0.51364135609E+02 -0.78412071444E+02 -0.23466924951E+03  0.25269820744E+03  0.00000000000E+00 0. -1.
         22    1    1    2    0    0 -0.28909069496E+00  0.13466687171E+02  0.17506789364E+02  0.22088977130E+02  0.00000000000E+00 0. -1.
         22    1    1    2    0    0 -0.53952760333E+02 -0.25091766417E+03  0.90635224332E+03  0.94198989565E+03  0.00000000000E+00 0. -1.
</event>
<event>
 6    1  0.3624778E-005  0.3484920E+03  0.7818608E-02  0.1157768E+00
          2   -1    0    0  502    0  0.00000000000E+00  0.00000000000E+00  0.91828405012E+02  0.91828405012E+02  0.00000000000E+00 0. -1.
          1   -1    0    0  501    0 -0.00000000000E+00 -0.00000000000E+00 -0.14787265999E+04  0.14787265999E+04  0.00000000000E+00 0. -1.
          2    1    1    2  501    0  0.30188164170E+02  0.20485593213E+03 -0.94690200658E+03  0.96927843690E+03  0.00000000000E+00 0. -1.
          1    1    1    2  502    0  0.50577197213E+02 -0.23340391926E+03 -0.35694083160E+03  0.42946734412E+03  0.00000000000E+00 0. -1.
         22    1    1    2    0    0 -0.79184166600E+01 -0.30276462306E+02  0.16300891814E+02  0.35285755853E+02  0.00000000000E+00 0. -1.
         22    1    1    2    0    0 -0.72846944723E+02  0.58824449433E+02 -0.99356248565E+02  0.13652346808E+03  0.00000000000E+00 0.  1.
</event>
<event>
 6    1  0.3624778E-005  0.1053489E+03  0.7818608E-02  0.1302490E+00
          2   -1    0    0  502    0  0.00000000000E+00  0.00000000000E+00  0.23324083198E+03  0.23324083198E+03  0.00000000000E+00 0. -1.
          1   -1    0    0  501    0 -0.00000000000E+00 -0.00000000000E+00 -0.56439552984E+02  0.56439552984E+02  0.00000000000E+00 0. -1.
          2    1    1    2  501    0 -0.50230784826E+01 -0.22179972475E+02 -0.16464149077E+01  0.22801166165E+02  0.00000000000E+00 0. -1.
          1    1    1    2  502    0 -0.29145159566E+02 -0.20922885928E+02  0.10050057919E+03  0.10671257610E+03  0.00000000000E+00 0. -1.
         22    1    1    2    0    0  0.43400005507E+02 -0.38348344347E+02  0.33966490037E+02  0.67140736052E+02  0.00000000000E+00 0. -1.
         22    1    1    2    0    0 -0.92317674583E+01  0.81451202750E+02  0.43980624682E+02  0.93025906646E+02  0.00000000000E+00 0. -1.
</event>
<event>
 6    1  0.3624778E-005  0.8821217E+02  0.7818608E-02  0.1312050E+00
          2   -1    0    0  502    0  0.00000000000E+00  0.00000000000E+00  0.17403043337E+03  0.17403043337E+03  0.00000000000E+00 0.  1.
          1   -1    0    0  501    0 -0.00000000000E+00 -0.00000000000E+00 -0.14299563559E+03  0.14299563559E+03  0.00000000000E+00 0. -1.
          2    1    1    2  501    0 -0.11909746613E+02  0.53452020378E+02 -0.74665520339E+01  0.55269430485E+02  0.00000000000E+00 0.  1.
          1    1    1    2  502    0  0.34753438459E+01 -0.25335441270E+02 -0.80183529510E+02  0.84162705540E+02  0.00000000000E+00 0. -1.
         22    1    1    2    0    0  0.11340346662E+02  0.47411639850E+02  0.18604541059E+02  0.52178501356E+02  0.00000000000E+00 0. -1.
         22    1    1    2    0    0 -0.29059438952E+01 -0.75528218959E+02  0.10008033827E+03  0.12541543157E+03  0.00000000000E+00 0.  1.
</event>
<event>
 6    1  0.3624778E-005  0.1376312E+03  0.7818608E-02  0.1238906E+00
          2   -1    0    0  502    0  0.00000000000E+00  0.00000000000E+00  0.44446413196E+03  0.44446413196E+03  0.00000000000E+00 0. -1.
          1   -1    0    0  501    0 -0.00000000000E+00 -0.00000000000E+00 -0.46300524025E+02  0.46300524025E+02  0.00000000000E+00 0. -1.
          2    1    1    2  501    0  0.18111599244E+02 -0.79027779573E+02  0.52624571740E+02  0.96657982196E+02  0.00000000000E+00 0. -1.
          1    1    1    2  502    0 -0.31192049983E+02 -0.16410820393E+02  0.60180989478E+02  0.69742458393E+02  0.00000000000E+00 0. -1.
         22    1    1    2    0    0  0.55603433010E+02  0.20580876675E+02  0.66020895599E+02  0.88735972992E+02  0.00000000000E+00 0. -1.
         22    1    1    2    0    0 -0.42522982271E+02  0.74857723291E+02  0.21933715112E+03  0.23562824240E+03  0.00000000000E+00 0. -1.
</event>
<event>
 6    1  0.3624778E-005  0.1969337E+03  0.7818608E-02  0.1210338E+00
          2   -1    0    0  502    0  0.00000000000E+00  0.00000000000E+00  0.24397409746E+03  0.24397409746E+03  0.00000000000E+00 0. -1.
          1   -1    0    0  501    0 -0.00000000000E+00 -0.00000000000E+00 -0.78692938010E+03  0.78692938010E+03  0.00000000000E+00 0.  1.
          2    1    1    2  501    0  0.38122258993E+02 -0.21632036806E+02 -0.42086652584E+02  0.60766256860E+02  0.00000000000E+00 0. -1.
          1    1    1    2  502    0 -0.27756432188E+02  0.35926931613E+01 -0.71717551976E+03  0.71772143142E+03  0.00000000000E+00 0.  1.
         22    1    1    2    0    0 -0.19170518482E+02  0.71844697883E+02  0.14151156647E+03  0.15985835242E+03  0.00000000000E+00 0. -1.
         22    1    1    2    0    0  0.88046916774E+01 -0.53805354238E+02  0.74795323233E+02  0.92557436859E+02  0.00000000000E+00 0. -1.
</event>
<event>
 6    1  0.3624778E-005  0.1869098E+03  0.7818608E-02  0.1233454E+00
          2   -1    0    0  502    0  0.00000000000E+00  0.00000000000E+00  0.19846223702E+03  0.19846223702E+03  0.00000000000E+00 0. -1.
          1   -1    0    0  501    0 -0.00000000000E+00 -0.00000000000E+00 -0.73649840300E+03  0.73649840300E+03  0.00000000000E+00 0.  1.
          2    1    1    2  501    0 -0.41016624797E+02  0.78340966776E+02  0.85197645174E+01  0.88838375562E+02  0.00000000000E+00 0. -1.
          1    1    1    2  502    0  0.70287892035E+01 -0.13733159423E+03 -0.65578922160E+03  0.67005139640E+03  0.00000000000E+00 0.  1.
         22    1    1    2    0    0 -0.37259438890E+02 -0.10267794919E+02  0.33306304886E+02  0.51019636847E+02  0.00000000000E+00 0.  1.
         22    1    1    2    0    0  0.71247274483E+02  0.69258422370E+02  0.75926986222E+02  0.12505123121E+03  0.00000000000E+00 0. -1.
</event>
<event>
 6    1  0.3624778E-005  0.1286744E+03  0.7818608E-02  0.1260499E+00
          2   -1    0    0  502    0  0.00000000000E+00  0.00000000000E+00  0.17473225280E+03  0.17473225280E+03  0.00000000000E+00 0.  1.
          1   -1    0    0  501    0 -0.00000000000E+00 -0.00000000000E+00 -0.17514354897E+04  0.17514354897E+04  0.00000000000E+00 0. -1.
          2    1    1    2  501    0  0.25083705935E+02  0.49239558087E-01 -0.34725885549E+02  0.42837855398E+02  0.00000000000E+00 0.  1.
          1    1    1    2  502    0 -0.42144678969E+02 -0.24615526724E+02 -0.16871367882E+04  0.16878425993E+04  0.00000000000E+00 0. -1.
         22    1    1    2    0    0 -0.36832129165E+02  0.56396743580E+02  0.63241733791E+02  0.92394346787E+02  0.00000000000E+00 0. -1.
         22    1    1    2    0    0  0.53893102199E+02 -0.31830456414E+02  0.81917703004E+02  0.10309294101E+03  0.00000000000E+00 0.  1.
</event>
<event>
 6    1  0.3624778E-005  0.1882353E+03  0.7818608E-02  0.1208443E+00
          2   -1    0    0  502    0  0.00000000000E+00  0.00000000000E+00  0.22035137465E+03  0.22035137465E+03  0.00000000000E+00 0.  1.
          1   -1    0    0  501    0 -0.00000000000E+00 -0.00000000000E+00 -0.16181998094E+03  0.16181998094E+03  0.00000000000E+00 0.  1.
          2    1    1    2  501    0 -0.10144386380E+03 -0.49263017929E+02 -0.19351808439E+01  0.11278939384E+03  0.00000000000E+00 0.  1.
          1    1    1    2  502    0  0.30848165567E+02 -0.53951702327E+02  0.66760109497E+02  0.91210239134E+02  0.00000000000E+00 0.  1.
         22    1    1    2    0    0  0.55329960216E+02  0.31371408223E+02  0.53773757394E+02  0.83289775697E+02  0.00000000000E+00 0.  1.
         22    1    1    2    0    0  0.15265738021E+02  0.71843312033E+02 -0.60067292343E+02  0.94881946916E+02  0.00000000000E+00 0.  1.
</event>
<event>
 6    1  0.3624778E-005  0.1991185E+03  0.7818608E-02  0.1244597E+00
          2   -1    0    0  502    0  0.00000000000E+00  0.00000000000E+00  0.16938868980E+03  0.16938868980E+03  0.00000000000E+00 0. -1.
          1   -1    0    0  501    0 -0.00000000000E+00 -0.00000000000E+00 -0.58375977155E+03  0.58375977155E+03  0.00000000000E+00 0. -1.
          2    1    1    2  501    0  0.61889275540E+02  0.58466533561E+02 -0.10645487720E+03  0.13631309128E+03  0.00000000000E+00 0. -1.
          1    1    1    2  502    0  0.28452842684E+02 -0.56943968234E+02 -0.42188360337E+03  0.42665906128E+03  0.00000000000E+00 0. -1.
         22    1    1    2    0    0 -0.84538337530E+02  0.23290560248E+02  0.16237420236E+02  0.89178666311E+02  0.00000000000E+00 0. -1.
         22    1    1    2    0    0 -0.58037806930E+01 -0.24813125575E+02  0.97729978597E+02  0.10099764249E+03  0.00000000000E+00 0. -1.
</event>
<event>
 6    1  0.3624778E-005  0.9634832E+02  0.7818608E-02  0.1318555E+00
          2   -1    0    0  502    0  0.00000000000E+00  0.00000000000E+00  0.25533881116E+03  0.25533881116E+03  0.00000000000E+00 0.  1.
          1   -1    0    0  501    0 -0.00000000000E+00 -0.00000000000E+00 -0.75463064811E+02  0.75463064811E+02  0.00000000000E+00 0. -1.
          2    1    1    2  501    0  0.23088015400E+02  0.26415302181E+01 -0.95142953248E+01  0.25110873193E+02  0.00000000000E+00 0.  1.
          1    1    1    2  502    0 -0.42874262086E+02 -0.18994235714E+02 -0.28854358001E+02  0.55059579688E+02  0.00000000000E+00 0. -1.
         22    1    1    2    0    0  0.53944769361E+02  0.50340863714E+02  0.11409313444E+03  0.13587304379E+03  0.00000000000E+00 0.  1.
         22    1    1    2    0    0 -0.34158522675E+02 -0.33988158218E+02  0.10415126523E+03  0.11475837930E+03  0.00000000000E+00 0.  1.
</event>
<event>
 6    1  0.3624778E-005  0.1486157E+03  0.7818608E-02  0.1232132E+00
          2   -1    0    0  502    0  0.00000000000E+00  0.00000000000E+00  0.77354196011E+03  0.77354196011E+03  0.00000000000E+00 0. -1.
          1   -1    0    0  501    0 -0.00000000000E+00 -0.00000000000E+00 -0.13708116082E+03  0.13708116082E+03  0.00000000000E+00 0. -1.
          2    1    1    2  501    0 -0.10263828787E+03 -0.31551406147E+02  0.45026049569E+03  0.46288726850E+03  0.00000000000E+00 0. -1.
          1    1    1    2  502    0 -0.21365008374E+02 -0.14929428663E+01 -0.10373797175E+03  0.10592572513E+03  0.00000000000E+00 0. -1.
         22    1    1    2    0    0  0.94565628962E+02  0.10936337170E+02  0.68368981071E+02  0.11720315365E+03  0.00000000000E+00 0. -1.
         22    1    1    2    0    0  0.29437667277E+02  0.22108011843E+02  0.22156929428E+03  0.22460697365E+03  0.00000000000E+00 0. -1.
</event>
<event>
 6    1  0.3624778E-005  0.4465145E+03  0.7818608E-02  0.1132101E+00
          2   -1    0    0  502    0  0.00000000000E+00  0.00000000000E+00  0.40998764369E+03  0.40998764369E+03  0.00000000000E+00 0. -1.
          1   -1    0    0  501    0 -0.00000000000E+00 -0.00000000000E+00 -0.21081701861E+03  0.21081701861E+03  0.00000000000E+00 0. -1.
          2    1    1    2  501    0 -0.13614016787E+03  0.74206653002E+01 -0.86193204247E+02  0.16130244895E+03  0.00000000000E+00 0. -1.
          1    1    1    2  502    0 -0.28198199559E+02  0.31323296411E+02 -0.49654273620E+02  0.65129365459E+02  0.00000000000E+00 0. -1.
         22    1    1    2    0    0  0.17743014704E+03 -0.14577515830E+02  0.26594469146E+03  0.32003209208E+03  0.00000000000E+00 0. -1.
         22    1    1    2    0    0 -0.13091779612E+02 -0.24166445882E+02  0.69073411478E+02  0.74340755802E+02  0.00000000000E+00 0.  1.
</event>
<event>
 6    1  0.3624778E-005  0.7476885E+02  0.7818608E-02  0.1377475E+00
          2   -1    0    0  502    0  0.00000000000E+00  0.00000000000E+00  0.24365171175E+03  0.24365171175E+03  0.00000000000E+00 0.  1.
          1   -1    0    0  501    0 -0.00000000000E+00 -0.00000000000E+00 -0.16905789238E+03  0.16905789238E+03  0.00000000000E+00 0. -1.
          2    1    1    2  501    0  0.25674385420E+01  0.35468668395E+02 -0.60905284047E+01  0.36079256016E+02  0.00000000000E+00 0.  1.
          1    1    1    2  502    0  0.30582411323E+01 -0.43793655845E+02 -0.12767668772E+03  0.13501323535E+03  0.00000000000E+00 0. -1.
         22    1    1    2    0    0  0.41385502201E+02 -0.11872158263E+02  0.17573902922E+03  0.18093621618E+03  0.00000000000E+00 0.  1.
         22    1    1    2    0    0 -0.47011181875E+02  0.20197145714E+02  0.32622006279E+02  0.60680896581E+02  0.00000000000E+00 0.  1.
</event>
<event>
 6    1  0.3624778E-005  0.7498158E+02  0.7818608E-02  0.1357701E+00
          2   -1    0    0  502    0  0.00000000000E+00  0.00000000000E+00  0.61615448641E+02  0.61615448641E+02  0.00000000000E+00 0. -1.
          1   -1    0    0  501    0 -0.00000000000E+00 -0.00000000000E+00 -0.22086277008E+03  0.22086277008E+03  0.00000000000E+00 0.  1.
          2    1    1    2  501    0 -0.30441300081E+02  0.23369108200E+02 -0.27000899938E+02  0.46923731375E+02  0.00000000000E+00 0. -1.
          1    1    1    2  502    0  0.84666613823E+00 -0.35711997865E+02 -0.93507999427E+02  0.10009899896E+03  0.00000000000E+00 0.  1.
         22    1    1    2    0    0  0.25395363344E+02 -0.47507760384E+02  0.13906621495E+02  0.55635473373E+02  0.00000000000E+00 0.  1.
         22    1    1    2    0    0  0.41992705987E+01  0.59850650049E+02 -0.52645043568E+02  0.79820015016E+02  0.00000000000E+00 0. -1.
</event>
<event>
 6    1  0.3624778E-005  0.1294386E+03  0.7818608E-02  0.1301724E+00
          2   -1    0    0  502    0  0.00000000000E+00  0.00000000000E+00  0.22835847171E+03  0.22835847171E+03  0.00000000000E+00 0.  1.
          1   -1    0    0  501    0 -0.00000000000E+00 -0.00000000000E+00 -0.11667727761E+03  0.11667727761E+03  0.00000000000E+00 0.  1.
          2    1    1    2  501    0  0.61163602584E+02  0.10801318555E+02 -0.22359461941E+02  0.66012122386E+02  0.00000000000E+00 0.  1.
          1    1    1    2  502    0 -0.42437890772E+02 -0.51675802338E+02 -0.24651847212E+02  0.71267641265E+02  0.00000000000E+00 0.  1.
         22    1    1    2    0    0 -0.96750078342E+01 -0.29332418013E+02  0.12609579149E+03  0.12982351541E+03  0.00000000000E+00 0.  1.
         22    1    1    2    0    0 -0.90507039775E+01  0.70206901796E+02  0.32596711764E+02  0.77932470255E+02  0.00000000000E+00 0.  1.
</event>
<event>
 6    1  0.3624778E-005  0.4823478E+02  0.7818608E-02  0.1476915E+00
          2   -1    0    0  502    0  0.00000000000E+00  0.00000000000E+00  0.25384155364E+03  0.25384155364E+03  0.00000000000E+00 0.  1.
          1   -1    0    0  501    0 -0.00000000000E+00 -0.00000000000E+00 -0.75065221462E+02  0.75065221462E+02  0.00000000000E+00 0.  1.
          2    1    1    2  501    0 -0.10063240618E+02 -0.17665304367E+02 -0.88711827922E+01  0.22181741912E+02  0.00000000000E+00 0.  1.
          1    1    1    2  502    0  0.35192378980E+02  0.62478212024E+02 -0.33230327143E+01  0.71784908320E+02  0.00000000000E+00 0.  1.
         22    1    1    2    0    0  0.13139544868E+02 -0.33260352028E+01 -0.15676654702E+02  0.20723601332E+02  0.00000000000E+00 0.  1.
         22    1    1    2    0    0 -0.38268683230E+02 -0.41486872455E+02  0.20664720238E+03  0.21421652353E+03  0.00000000000E+00 0.  1.
</event>
<event>
 6    1  0.3624778E-005  0.9043578E+02  0.7818608E-02  0.1322354E+00
          2   -1    0    0  502    0  0.00000000000E+00  0.00000000000E+00  0.10088079179E+03  0.10088079179E+03  0.00000000000E+00 0. -1.
          1   -1    0    0  501    0 -0.00000000000E+00 -0.00000000000E+00 -0.24800138227E+03  0.24800138227E+03  0.00000000000E+00 0. -1.
          2    1    1    2  501    0  0.51804034885E+02  0.24845173891E+02  0.12590188863E+02  0.58817119546E+02  0.00000000000E+00 0. -1.
          1    1    1    2  502    0 -0.14914357703E+02 -0.82251496737E+02 -0.10985115627E+03  0.13803993377E+03  0.00000000000E+00 0. -1.
         22    1    1    2    0    0 -0.60215156150E+02  0.16186276086E+02 -0.75699374269E+02  0.98072706847E+02  0.00000000000E+00 0.  1.
         22    1    1    2    0    0  0.23325478968E+02  0.41220046760E+02  0.25839751187E+02  0.53952413898E+02  0.00000000000E+00 0. -1.
</event>
<event>
 6    1  0.3624778E-005  0.1791659E+03  0.7818608E-02  0.1247173E+00
          2   -1    0    0  502    0  0.00000000000E+00  0.00000000000E+00  0.17858275612E+03  0.17858275612E+03  0.00000000000E+00 0. -1.
          1   -1    0    0  501    0 -0.00000000000E+00 -0.00000000000E+00 -0.32955489512E+03  0.32955489512E+03  0.00000000000E+00 0.  1.
          2    1    1    2  501    0  0.59068595596E+02 -0.93430346562E+01 -0.31075723986E+02  0.67395043612E+02  0.00000000000E+00 0. -1.
          1    1    1    2  502    0 -0.53605720059E+01 -0.25292714904E+02 -0.25066623302E+03  0.25199606651E+03  0.00000000000E+00 0.  1.
         22    1    1    2    0    0  0.31574081174E+02 -0.98060993188E+01  0.62841388987E+02  0.71007903473E+02  0.00000000000E+00 0. -1.
         22    1    1    2    0    0 -0.85282104764E+02  0.44441848879E+02  0.67928429024E+02  0.11773863764E+03  0.00000000000E+00 0. -1.
</event>
<event>
 6    1  0.3624778E-005  0.2505486E+03  0.7818608E-02  0.1232101E+00
          2   -1    0    0  502    0  0.00000000000E+00  0.00000000000E+00  0.11487527853E+03  0.11487527853E+03  0.00000000000E+00 0.  1.
          1   -1    0    0  501    0 -0.00000000000E+00 -0.00000000000E+00 -0.20117525522E+04  0.20117525522E+04  0.00000000000E+00 0.  1.
          2    1    1    2  501    0 -0.19394403445E+02  0.92811991948E+02 -0.26502993062E+02  0.98451091287E+02  0.00000000000E+00 0.  1.
          1    1    1    2  502    0 -0.12845138806E+02  0.46402132575E+02 -0.18381704565E+04  0.18388009090E+04  0.00000000000E+00 0.  1.
         22    1    1    2    0    0 -0.30563357378E+01  0.16212115496E+02  0.15878415059E+02  0.22897553183E+02  0.00000000000E+00 0. -1.
         22    1    1    2    0    0  0.35295877989E+02 -0.15542624002E+03 -0.48082239112E+02  0.16647827728E+03  0.00000000000E+00 0.  1.
</event>
<event>
 6    1  0.3624778E-005  0.6175356E+02  0.7818608E-02  0.1404954E+00
          2   -1    0    0  502    0  0.00000000000E+00  0.00000000000E+00  0.92360882323E+02  0.92360882323E+02  0.00000000000E+00 0. -1.
          1   -1    0    0  501    0 -0.00000000000E+00 -0.00000000000E+00 -0.76947597118E+03  0.76947597118E+03  0.00000000000E+00 0. -1.
          2    1    1    2  501    0 -0.26460773140E+02  0.43355018786E+02 -0.47629607521E+02  0.69630522630E+02  0.00000000000E+00 0. -1.
          1    1    1    2  502    0  0.14832361366E+02 -0.32764893796E+02 -0.66080536617E+03  0.66178340049E+03  0.00000000000E+00 0. -1.
         22    1    1    2    0    0 -0.33812149213E+02  0.31448767694E+01 -0.35063952317E+02  0.48812216057E+02  0.00000000000E+00 0. -1.
         22    1    1    2    0    0  0.45440560987E+02 -0.13735001759E+02  0.66383837155E+02  0.81610714319E+02  0.00000000000E+00 0. -1.
</event>
<event>
 6    1  0.3624778E-005  0.1928117E+03  0.7818608E-02  0.1286059E+00
          2   -1    0    0  502    0  0.00000000000E+00  0.00000000000E+00  0.11481602217E+03  0.11481602217E+03  0.00000000000E+00 0. -1.
          1   -1    0    0  501    0 -0.00000000000E+00 -0.00000000000E+00 -0.95857476564E+03  0.95857476564E+03  0.00000000000E+00 0. -1.
          2    1    1    2  501    0 -0.82998015488E+02 -0.18229422751E+02 -0.94417664586E+02  0.12702628789E+03  0.00000000000E+00 0. -1.
          1    1    1    2  502    0  0.18803042565E+03  0.24972397964E+02 -0.76137749484E+03  0.78464944483E+03  0.00000000000E+00 0. -1.
         22    1    1    2    0    0 -0.92892655494E+02 -0.97587590681E+01 -0.44747727113E+02  0.10356948346E+03  0.00000000000E+00 0. -1.
         22    1    1    2    0    0 -0.12139754667E+02  0.30157838546E+01  0.56784143071E+02  0.58145571628E+02  0.00000000000E+00 0. -1.
</event>
<event>
 6    1  0.3624778E-005  0.1058333E+03  0.7818608E-02  0.1305163E+00
          2   -1    0    0  502    0  0.00000000000E+00  0.00000000000E+00  0.20301939708E+02  0.20301939708E+02  0.00000000000E+00 0. -1.
          1   -1    0    0  501    0 -0.00000000000E+00 -0.00000000000E+00 -0.45630453113E+03  0.45630453113E+03  0.00000000000E+00 0.  1.
          2    1    1    2  501    0 -0.18495812218E+02  0.10790813866E+02 -0.14478221211E+03  0.14635718526E+03  0.00000000000E+00 0. -1.
          1    1    1    2  502    0  0.28217963647E+02  0.10789769647E+02 -0.82626491905E+02  0.87976188630E+02  0.00000000000E+00 0.  1.
         22    1    1    2    0    0  0.49689805690E+02 -0.35959818646E+02 -0.91014781464E+02  0.10975370514E+03  0.00000000000E+00 0. -1.
         22    1    1    2    0    0 -0.59411957118E+02  0.14379235133E+02 -0.11757910595E+03  0.13251939182E+03  0.00000000000E+00 0. -1.
</event>
<event>
 6    1  0.3624778E-005  0.1690620E+03  0.7818608E-02  0.1225332E+00
          2   -1    0    0  502    0  0.00000000000E+00  0.00000000000E+00  0.25808493311E+03  0.25808493311E+03  0.00000000000E+00 0. -1.
          1   -1    0    0  501    0 -0.00000000000E+00 -0.00000000000E+00 -0.95896169583E+03  0.95896169583E+03  0.00000000000E+00 0. -1.
          2    1    1    2  501    0  0.24606877499E+02 -0.22126297287E+02 -0.41142733200E+02  0.52799582831E+02  0.00000000000E+00 0. -1.
          1    1    1    2  502    0 -0.11732379949E+02  0.19334264165E+02 -0.89622007656E+03  0.89650537541E+03  0.00000000000E+00 0. -1.
         22    1    1    2    0    0 -0.25156991718E+02 -0.58101082278E+02  0.12485552729E+03  0.13999111647E+03  0.00000000000E+00 0. -1.
         22    1    1    2    0    0  0.12282494167E+02  0.60893115400E+02  0.11163051975E+03  0.12775055423E+03  0.00000000000E+00 0. -1.
</event>
<event>
 6    1  0.3624778E-005  0.1356920E+03  0.7818608E-02  0.1295832E+00
          2   -1    0    0  502    0  0.00000000000E+00  0.00000000000E+00  0.66057361853E+02  0.66057361853E+02  0.00000000000E+00 0.  1.
          1   -1    0    0  501    0 -0.00000000000E+00 -0.00000000000E+00 -0.82464664615E+03  0.82464664615E+03  0.00000000000E+00 0.  1.
          2    1    1    2  501    0  0.55335912732E+02  0.78029804097E+02 -0.25914128557E+03  0.27623345100E+03  0.00000000000E+00 0.  1.
          1    1    1    2  502    0 -0.73219986259E+02 -0.11201173432E+03 -0.46179285309E+03  0.48079146642E+03  0.00000000000E+00 0.  1.
         22    1    1    2    0    0  0.34238122509E+02  0.89595291641E+01 -0.76719848327E+02  0.84489391778E+02  0.00000000000E+00 0. -1.
         22    1    1    2    0    0 -0.16354048982E+02  0.25022401054E+02  0.39064702690E+02  0.49189698809E+02  0.00000000000E+00 0.  1.
</event>
<event>
 6    1  0.3624778E-005  0.1024689E+03  0.7818608E-02  0.1340046E+00
          2   -1    0    0  502    0  0.00000000000E+00  0.00000000000E+00  0.79162856734E+02  0.79162856734E+02  0.00000000000E+00 0. -1.
          1   -1    0    0  501    0 -0.00000000000E+00 -0.00000000000E+00 -0.15593889990E+04  0.15593889990E+04  0.00000000000E+00 0. -1.
          2    1    1    2  501    0  0.25513266846E+02  0.10179030294E+02  0.12247252827E+02  0.30075482452E+02  0.00000000000E+00 0. -1.
          1    1    1    2  502    0 -0.87169525798E+02  0.38722406454E+02 -0.14567581608E+04  0.14598774915E+04  0.00000000000E+00 0. -1.
         22    1    1    2    0    0  0.85068517724E+02 -0.27951948437E+02  0.13152140574E+02  0.90503828267E+02  0.00000000000E+00 0. -1.
         22    1    1    2    0    0 -0.23412258773E+02 -0.20949488311E+02 -0.48867374819E+02  0.58095053517E+02  0.00000000000E+00 0.  1.
</event>
<event>
 6    1  0.3624778E-005  0.1129885E+03  0.7818608E-02  0.1258154E+00
          2   -1    0    0  502    0  0.00000000000E+00  0.00000000000E+00  0.39244888084E+03  0.39244888084E+03  0.00000000000E+00 0.  1.
          1   -1    0    0  501    0 -0.00000000000E+00 -0.00000000000E+00 -0.82034008941E+02  0.82034008941E+02  0.00000000000E+00 0.  1.
          2    1    1    2  501    0  0.74315071268E+02  0.66901257825E+02  0.11362133890E+03  0.15135493639E+03  0.00000000000E+00 0.  1.
          1    1    1    2  502    0 -0.91178690756E+02 -0.13651816130E+00  0.14228768775E+03  0.16899514303E+03  0.00000000000E+00 0.  1.
         22    1    1    2    0    0  0.81101873365E+01  0.25209932356E+02  0.55765267071E+02  0.61733952081E+02  0.00000000000E+00 0.  1.
         22    1    1    2    0    0  0.87534321511E+01 -0.91974672020E+02 -0.12594218165E+01  0.92398858277E+02  0.00000000000E+00 0.  1.
</event>
<event>
 6    1  0.3624778E-005  0.1317169E+03  0.7818608E-02  0.1228074E+00
          2   -1    0    0  502    0  0.00000000000E+00  0.00000000000E+00  0.74641975937E+02  0.74641975937E+02  0.00000000000E+00 0.  1.
          1   -1    0    0  501    0 -0.00000000000E+00 -0.00000000000E+00 -0.43771509386E+03  0.43771509386E+03  0.00000000000E+00 0. -1.
          2    1    1    2  501    0 -0.12545041617E+02 -0.13210593976E+03 -0.12196434203E+03  0.18023500801E+03  0.00000000000E+00 0.  1.
          1    1    1    2  502    0 -0.23668445880E+02  0.87528218183E+02 -0.91036605728E+02  0.12848753983E+03  0.00000000000E+00 0. -1.
         22    1    1    2    0    0  0.52486449440E+02  0.75128112132E+02 -0.14045354952E+03  0.16770885540E+03  0.00000000000E+00 0. -1.
         22    1    1    2    0    0 -0.16272961943E+02 -0.30550390560E+02 -0.96186206424E+01  0.35925666547E+02  0.00000000000E+00 0.  1.
</event>
<event>
 6    1  0.3624778E-005  0.7573454E+02  0.7818608E-02  0.1355079E+00
          2   -1    0    0  502    0  0.00000000000E+00  0.00000000000E+00  0.15399638866E+02  0.15399638866E+02  0.00000000000E+00 0.  1.
          1   -1    0    0  501    0 -0.00000000000E+00 -0.00000000000E+00 -0.99193298132E+03  0.99193298132E+03  0.00000000000E+00 0. -1.
          2    1    1    2  501    0 -0.33632182437E+02 -0.15906064731E+02 -0.10057523191E+03  0.10723573967E+03  0.00000000000E+00 0.  1.
          1    1    1    2  502    0  0.63095563662E+02  0.12770661158E+02 -0.48063880209E+03  0.48493071466E+03  0.00000000000E+00 0. -1.
         22    1    1    2    0    0 -0.33209148798E+02 -0.56898652035E+02 -0.22974800311E+03  0.23900721558E+03  0.00000000000E+00 0.  1.
         22    1    1    2    0    0  0.37457675727E+01  0.60034055608E+02 -0.16557130535E+03  0.17615895027E+03  0.00000000000E+00 0.  1.
</event>
<event>
 6    1  0.3624778E-005  0.5102760E+03  0.7818608E-02  0.1100129E+00
          2   -1    0    0  502    0  0.00000000000E+00  0.00000000000E+00  0.18766997125E+03  0.18766997125E+03  0.00000000000E+00 0. -1.
          1   -1    0    0  501    0 -0.00000000000E+00 -0.00000000000E+00 -0.14709939629E+04  0.14709939629E+04  0.00000000000E+00 0. -1.
          2    1    1    2  501    0  0.26928918782E+02 -0.18816847894E+02 -0.41355664181E+03  0.41485941765E+03  0.00000000000E+00 0. -1.
          1    1    1    2  502    0  0.27135969152E+02  0.71717923559E+01 -0.10309292961E+04  0.10313113055E+04  0.00000000000E+00 0. -1.
         22    1    1    2    0    0 -0.79448548687E+02  0.43703811864E+02  0.13905912036E+03  0.16601064428E+03  0.00000000000E+00 0. -1.
         22    1    1    2    0    0  0.25383660754E+02 -0.32058756326E+02  0.22102825896E+02  0.46482566656E+02  0.00000000000E+00 0. -1.
</event>
<event>
 6    1  0.3624778E-005  0.2024261E+03  0.7818608E-02  0.1241308E+00
          2   -1    0    0  502    0  0.00000000000E+00  0.00000000000E+00  0.22877758147E+03  0.22877758147E+03  0.00000000000E+00 0.  1.
          1   -1    0    0  501    0 -0.00000000000E+00 -0.00000000000E+00 -0.94978653350E+03  0.94978653350E+03  0.00000000000E+00 0. -1.
          2    1    1    2  501    0 -0.63510294409E+02  0.45281629995E+01 -0.39034190630E+02  0.74684200432E+02  0.00000000000E+00 0.  1.
          1    1    1    2  502    0  0.88403269695E+02 -0.87394374468E+02 -0.86138255450E+03  0.87030616450E+03  0.00000000000E+00 0. -1.
         22    1    1    2    0    0 -0.78589716047E+01 -0.24700484545E+02  0.86890948252E+02  0.90674771903E+02  0.00000000000E+00 0.  1.
         22    1    1    2    0    0 -0.17034003682E+02  0.10756669601E+03  0.92516844844E+02  0.14289897814E+03  0.00000000000E+00 0.  1.
</event>
<event>
 6    1  0.3624778E-005  0.8671273E+02  0.7818608E-02  0.1432927E+00
          2   -1    0    0  502    0  0.00000000000E+00  0.00000000000E+00  0.52485475533E+02  0.52485475533E+02  0.00000000000E+00 0.  1.
          1   -1    0    0  501    0 -0.00000000000E+00 -0.00000000000E+00 -0.28477187295E+03  0.28477187295E+03  0.00000000000E+00 0.  1.
          2    1    1    2  501    0 -0.59026008595E+01 -0.19715565684E+02 -0.16047600811E+02  0.26097312485E+02  0.00000000000E+00 0.  1.
          1    1    1    2  502    0 -0.55902077318E+01 -0.39909760396E+02 -0.15010790575E+03  0.15542336622E+03  0.00000000000E+00 0.  1.
         22    1    1    2    0    0  0.33869525071E+01  0.67843157265E+02 -0.99472751178E+02  0.12045328415E+03  0.00000000000E+00 0.  1.
         22    1    1    2    0    0  0.81058560842E+01 -0.82178311843E+01  0.33341860321E+02  0.35283385635E+02  0.00000000000E+00 0.  1.
</event>
<event>
 6    1  0.3624778E-005  0.1194292E+03  0.7818608E-02  0.1251413E+00
          2   -1    0    0  502    0  0.00000000000E+00  0.00000000000E+00  0.19044842179E+04  0.19044842179E+04  0.00000000000E+00 0. -1.
          1   -1    0    0  501    0 -0.00000000000E+00 -0.00000000000E+00 -0.46335885756E+02  0.46335885756E+02  0.00000000000E+00 0. -1.
          2    1    1    2  501    0  0.49615910809E+02  0.78953353853E+02  0.31431520294E+02  0.98403816786E+02  0.00000000000E+00 0. -1.
          1    1    1    2  502    0  0.13931872021E+02 -0.54588150531E+02  0.14113595903E+04  0.14124835773E+04  0.00000000000E+00 0. -1.
         22    1    1    2    0    0 -0.79352546308E+02 -0.59907175468E+02  0.35026936507E+03  0.36410757255E+03  0.00000000000E+00 0. -1.
         22    1    1    2    0    0  0.15804763478E+02  0.35541972147E+02  0.65087856527E+02  0.75825136993E+02  0.00000000000E+00 0.  1.
</event>
<event>
 6    1  0.3624778E-005  0.1309020E+03  0.7818608E-02  0.1311860E+00
          2   -1    0    0  502    0  0.00000000000E+00  0.00000000000E+00  0.12902958294E+03  0.12902958294E+03  0.00000000000E+00 0. -1.
          1   -1    0    0  501    0 -0.00000000000E+00 -0.00000000000E+00 -0.24954149914E+03  0.24954149914E+03  0.00000000000E+00 0.  1.
          2    1    1    2  501    0 -0.34460672315E+02  0.21196465496E+02 -0.19107213359E+02  0.44742750120E+02  0.00000000000E+00 0. -1.
          1    1    1    2  502    0 -0.29289841073E+02 -0.53152812944E+02 -0.16623376348E+03  0.17696547809E+03  0.00000000000E+00 0.  1.
         22    1    1    2    0    0 -0.23172752247E+02 -0.88970812226E+01  0.54968287760E+02  0.60312910395E+02  0.00000000000E+00 0. -1.
         22    1    1    2    0    0  0.86923265635E+02  0.40853428671E+02  0.98607728790E+01  0.96549943473E+02  0.00000000000E+00 0. -1.
</event>
<event>
 6    1  0.3624778E-005  0.2533732E+03  0.7818608E-02  0.1158907E+00
          2   -1    0    0  502    0  0.00000000000E+00  0.00000000000E+00  0.30905897662E+03  0.30905897662E+03  0.00000000000E+00 0.  1.
          1   -1    0    0  501    0 -0.00000000000E+00 -0.00000000000E+00 -0.44254846920E+03  0.44254846920E+03  0.00000000000E+00 0. -1.
          2    1    1    2  501    0  0.92228875642E+02 -0.16203213518E+02 -0.76474372756E+02  0.12090094838E+03  0.00000000000E+00 0.  1.
          1    1    1    2  502    0  0.57835932202E+01  0.55664275643E+02 -0.31844411787E+03  0.32332432284E+03  0.00000000000E+00 0. -1.
         22    1    1    2    0    0 -0.32598992331E+02 -0.77089866729E+02  0.16421736776E+03  0.18431735059E+03  0.00000000000E+00 0. -1.
         22    1    1    2    0    0 -0.65413476530E+02  0.37628804603E+02  0.97211630278E+02  0.12306482401E+03  0.00000000000E+00 0.  1.
</event>
<event>
 6    1  0.3624778E-005  0.9940919E+02  0.7818608E-02  0.1330973E+00
          2   -1    0    0  502    0  0.00000000000E+00  0.00000000000E+00  0.36342123298E+02  0.36342123298E+02  0.00000000000E+00 0. -1.
          1   -1    0    0  501    0 -0.00000000000E+00 -0.00000000000E+00 -0.10170212044E+04  0.10170212044E+04  0.00000000000E+00 0.  1.
          2    1    1    2  501    0 -0.31660249827E+02  0.53907251512E+01 -0.84193134316E+02  0.90110572092E+02  0.00000000000E+00 0. -1.
          1    1    1    2  502    0 -0.32027414349E+02 -0.49222725997E+02 -0.75602827418E+03  0.75830560026E+03  0.00000000000E+00 0.  1.
         22    1    1    2    0    0  0.54921982541E+02  0.44879808663E+01 -0.15308984444E+03  0.16270545967E+03  0.00000000000E+00 0. -1.
         22    1    1    2    0    0  0.87656816356E+01  0.39344019979E+02  0.12632171881E+02  0.42241695623E+02  0.00000000000E+00 0. -1.
</event>
<event>
 6    1  0.3624778E-005  0.1039690E+03  0.7818608E-02  0.1390002E+00
          2   -1    0    0  502    0  0.00000000000E+00  0.00000000000E+00  0.94322144007E+02  0.94322144007E+02  0.00000000000E+00 0. -1.
          1   -1    0    0  501    0 -0.00000000000E+00 -0.00000000000E+00 -0.50555396520E+03  0.50555396520E+03  0.00000000000E+00 0. -1.
          2    1    1    2  501    0  0.55223109614E+02 -0.60224826468E+02 -0.23078934534E+03  0.24482717063E+03  0.00000000000E+00 0. -1.
          1    1    1    2  502    0 -0.72823124735E+02  0.47987986440E+02 -0.20718630839E+03  0.22479372928E+03  0.00000000000E+00 0. -1.
         22    1    1    2    0    0  0.53139988002E+01  0.16691258398E+02 -0.49703000173E+02  0.52699382505E+02  0.00000000000E+00 0.  1.
         22    1    1    2    0    0  0.12286016320E+02 -0.44544183702E+01  0.76446832701E+02  0.77555826797E+02  0.00000000000E+00 0. -1.
</event>
<event>
 6    1  0.3624778E-005  0.1182630E+03  0.7818608E-02  0.1322915E+00
          2   -1    0    0  502    0  0.00000000000E+00  0.00000000000E+00  0.34985831828E+02  0.34985831828E+02  0.00000000000E+00 0. -1.
          1   -1    0    0  501    0 -0.00000000000E+00 -0.00000000000E+00 -0.44807570000E+03  0.44807570000E+03  0.00000000000E+00 0. -1.
          2    1    1    2  501    0 -0.58524059263E+02  0.26938827381E+02 -0.99411644610E+02  0.11846282547E+03  0.00000000000E+00 0. -1.
          1    1    1    2  502    0 -0.45162994576E+01 -0.31362075064E+02 -0.14035611899E+03  0.14388820956E+03  0.00000000000E+00 0. -1.
         22    1    1    2    0    0  0.24219328072E+02  0.13246218783E+02  0.12764255894E+02  0.30413227267E+02  0.00000000000E+00 0. -1.
         22    1    1    2    0    0  0.38821030649E+02 -0.88229711006E+01 -0.18608636047E+03  0.19029726954E+03  0.00000000000E+00 0. -1.
</event>
<event>
 6    1  0.3624778E-005  0.1961887E+03  0.7818608E-02  0.1192934E+00
          2   -1    0    0  502    0  0.00000000000E+00  0.00000000000E+00  0.19111074688E+03  0.19111074688E+03  0.00000000000E+00 0.  1.
          1   -1    0    0  501    0 -0.00000000000E+00 -0.00000000000E+00 -0.38516325410E+03  0.38516325410E+03  0.00000000000E+00 0. -1.
          2    1    1    2  501    0  0.14606976412E+03 -0.85750926639E+02 -0.23864717957E+03  0.29264667045E+03  0.00000000000E+00 0.  1.
          1    1    1    2  502    0 -0.10702881001E+03  0.10329009660E+03  0.32919779691E+02  0.15234080911E+03  0.00000000000E+00 0. -1.
         22    1    1    2    0    0 -0.77599644393E+02 -0.15027687263E+02  0.34681750473E+02  0.86315467966E+02  0.00000000000E+00 0. -1.
         22    1    1    2    0    0  0.38558690281E+02 -0.25114826978E+01 -0.23006857815E+02  0.44971053446E+02  0.00000000000E+00 0.  1.
</event>
<event>
 6    1  0.3624778E-005  0.4700630E+03  0.7818608E-02  0.1110318E+00
          2   -1    0    0  502    0  0.00000000000E+00  0.00000000000E+00  0.11604898630E+03  0.11604898630E+03  0.00000000000E+00 0.  1.
          1   -1    0    0  501    0 -0.00000000000E+00 -0.00000000000E+00 -0.27359476367E+04  0.27359476367E+04  0.00000000000E+00 0.  1.
          2    1    1    2  501    0 -0.84596863372E+02 -0.20430077674E+03 -0.89898900475E+03  0.92578435250E+03  0.00000000000E+00 0.  1.
          1    1    1    2  502    0  0.22926159479E+02  0.27882465377E+03 -0.17474337397E+04  0.17696873936E+04  0.00000000000E+00 0.  1.
         22    1    1    2    0    0  0.32722548408E+02  0.23985819708E+02  0.34888495414E+02  0.53509735877E+02  0.00000000000E+00 0.  1.
         22    1    1    2    0    0  0.28948155485E+02 -0.98509696746E+02 -0.83644012746E+01  0.10301514096E+03  0.00000000000E+00 0.  1.
</event>
<event>
 6    1  0.3624778E-005  0.5280350E+02  0.7818608E-02  0.1439139E+00
          2   -1    0    0  502    0  0.00000000000E+00  0.00000000000E+00  0.75061142814E+02  0.75061142814E+02  0.00000000000E+00 0.  1.
          1   -1    0    0  501    0 -0.00000000000E+00 -0.00000000000E+00 -0.24921678942E+03  0.24921678942E+03  0.00000000000E+00 0. -1.
          2    1    1    2  501    0  0.22038625335E+02  0.10538457514E+02 -0.25564830653E+02  0.35359873583E+02  0.00000000000E+00 0.  1.
          1    1    1    2  502    0 -0.50399597146E+02 -0.88085445920E+00 -0.15328204846E+03  0.16135762045E+03  0.00000000000E+00 0. -1.
         22    1    1    2    0    0  0.77203696178E+01  0.32078149130E+02 -0.47362145043E+02  0.57721612432E+02  0.00000000000E+00 0. -1.
         22    1    1    2    0    0  0.20640602192E+02 -0.41735752185E+02  0.52053377556E+02  0.69838825765E+02  0.00000000000E+00 0.  1.
</event>
<event>
 6    1  0.3624778E-005  0.9312768E+02  0.7818608E-02  0.1351650E+00
          2   -1    0    0  502    0  0.00000000000E+00  0.00000000000E+00  0.27866671415E+02  0.27866671415E+02  0.00000000000E+00 0.  1.
          1   -1    0    0  501    0 -0.00000000000E+00 -0.00000000000E+00 -0.11423630769E+04  0.11423630769E+04  0.00000000000E+00 0.  1.
          2    1    1    2  501    0 -0.14985920689E+02  0.13278522338E+02 -0.22237783166E+03  0.22327739919E+03  0.00000000000E+00 0.  1.
          1    1    1    2  502    0  0.59126838243E+02  0.13229958188E+01 -0.75157625015E+03  0.75389959086E+03  0.00000000000E+00 0.  1.
         22    1    1    2    0    0 -0.32967733089E+02 -0.47019975291E+02 -0.14730456239E+03  0.15810244654E+03  0.00000000000E+00 0.  1.
         22    1    1    2    0    0 -0.11173184465E+02  0.32418457134E+02  0.67622387481E+01  0.34950311686E+02  0.00000000000E+00 0.  1.
</event>
<event>
 6    1  0.3624778E-005  0.7902836E+02  0.7818608E-02  0.1337758E+00
          2   -1    0    0  502    0  0.00000000000E+00  0.00000000000E+00  0.31455556979E+03  0.31455556979E+03  0.00000000000E+00 0. -1.
          1   -1    0    0  501    0 -0.00000000000E+00 -0.00000000000E+00 -0.16039251876E+03  0.16039251876E+03  0.00000000000E+00 0.  1.
          2    1    1    2  501    0  0.26094914037E+02 -0.93170512730E+01  0.35991843450E+02  0.45422073686E+02  0.00000000000E+00 0. -1.
          1    1    1    2  502    0 -0.27975201186E+02 -0.10593599354E+02 -0.13952116663E+03  0.14269194850E+03  0.00000000000E+00 0.  1.
         22    1    1    2    0    0 -0.47160705584E+02  0.39588610431E+02  0.77102839020E+02  0.98672377148E+02  0.00000000000E+00 0. -1.
         22    1    1    2    0    0  0.49040992733E+02 -0.19677959804E+02  0.18058953519E+03  0.18816168922E+03  0.00000000000E+00 0. -1.
</event>
<event>
 6    1  0.3624778E-005  0.1899241E+03  0.7818608E-02  0.1293502E+00
          2   -1    0    0  502    0  0.00000000000E+00  0.00000000000E+00  0.17134290978E+03  0.17134290978E+03  0.00000000000E+00 0. -1.
          1   -1    0    0  501    0 -0.00000000000E+00 -0.00000000000E+00 -0.40823319739E+03  0.40823319739E+03  0.00000000000E+00 0. -1.
          2    1    1    2  501    0  0.24222522630E+02 -0.68017312375E+02  0.14949563855E+02  0.73733132612E+02  0.00000000000E+00 0. -1.
          1    1    1    2  502    0 -0.55346450040E+02  0.17700810751E+03 -0.28106500328E+03  0.33673823027E+03  0.00000000000E+00 0. -1.
         22    1    1    2    0    0  0.93814887902E+01  0.64488230237E+01  0.48716833110E+02  0.50029286209E+02  0.00000000000E+00 0. -1.
         22    1    1    2    0    0  0.21742438619E+02 -0.11543961816E+03 -0.19491681287E+02  0.11907545808E+03  0.00000000000E+00 0. -1.
</event>
<event>
 6    1  0.3624778E-005  0.1665471E+03  0.7818608E-02  0.1243605E+00
          2   -1    0    0  502    0  0.00000000000E+00  0.00000000000E+00  0.75168180531E+03  0.75168180531E+03  0.00000000000E+00 0.  1.
          1   -1    0    0  501    0 -0.00000000000E+00 -0.00000000000E+00 -0.19061692732E+03  0.19061692732E+03  0.00000000000E+00 0.  1.
          2    1    1    2  501    0  0.44517045188E+02 -0.30681280983E+02  0.12157888407E+03  0.13305838330E+03  0.00000000000E+00 0.  1.
          1    1    1    2  502    0  0.24571080982E+02 -0.35715661149E+02 -0.17205345675E+03  0.17743093995E+03  0.00000000000E+00 0.  1.
         22    1    1    2    0    0  0.36950623798E+02  0.23270368756E+02  0.19473356537E+03  0.19956958721E+03  0.00000000000E+00 0.  1.
         22    1    1    2    0    0 -0.10603874997E+03  0.43126573375E+02  0.41680588532E+03  0.43223982216E+03  0.00000000000E+00 0.  1.
</event>
<event>
 6    1  0.3624778E-005  0.7070761E+02  0.7818608E-02  0.1361886E+00
          2   -1    0    0  502    0  0.00000000000E+00  0.00000000000E+00  0.41600712558E+03  0.41600712558E+03  0.00000000000E+00 0.  1.
          1   -1    0    0  501    0 -0.00000000000E+00 -0.00000000000E+00 -0.38242001684E+02  0.38242001684E+02  0.00000000000E+00 0.  1.
          2    1    1    2  501    0  0.24839126040E+02 -0.16899030351E+01 -0.16101545819E+02  0.29649582332E+02  0.00000000000E+00 0.  1.
          1    1    1    2  502    0 -0.17744330112E+02 -0.10541215293E+02  0.16389861210E+02  0.26355379365E+02  0.00000000000E+00 0.  1.
         22    1    1    2    0    0 -0.21510736622E+02 -0.46296421619E+02  0.81321199833E+02  0.96016706812E+02  0.00000000000E+00 0. -1.
         22    1    1    2    0    0  0.14415940694E+02  0.58527539948E+02  0.29615560867E+03  0.30222745876E+03  0.00000000000E+00 0.  1.
</event>
<event>
 6    1  0.3624778E-005  0.1281280E+03  0.7818608E-02  0.1272446E+00
          2   -1    0    0  502    0  0.00000000000E+00  0.00000000000E+00  0.56993103985E+03  0.56993103985E+03  0.00000000000E+00 0.  1.
          1   -1    0    0  501    0 -0.00000000000E+00 -0.00000000000E+00 -0.72100131924E+02  0.72100131924E+02  0.00000000000E+00 0. -1.
          2    1    1    2  501    0 -0.89717558111E+01 -0.37523182816E+02  0.49262840115E+02  0.62572430568E+02  0.00000000000E+00 0.  1.
          1    1    1    2  502    0 -0.32749495860E+02  0.38898229067E+01 -0.51351669641E+02  0.61029944914E+02  0.00000000000E+00 0. -1.
         22    1    1    2    0    0  0.44955005760E+02 -0.41244655625E+02  0.26068738493E+03  0.26773118388E+03  0.00000000000E+00 0.  1.
         22    1    1    2    0    0 -0.32337540881E+01  0.74878015535E+02  0.23923235252E+03  0.25069761241E+03  0.00000000000E+00 0.  1.
</event>
<event>
 6    1  0.3624778E-005  0.2134410E+03  0.7818608E-02  0.1185252E+00
          2   -1    0    0  502    0  0.00000000000E+00  0.00000000000E+00  0.49131468758E+03  0.49131468758E+03  0.00000000000E+00 0. -1.
          1   -1    0    0  501    0 -0.00000000000E+00 -0.00000000000E+00 -0.19231138539E+03  0.19231138539E+03  0.00000000000E+00 0. -1.
          2    1    1    2  501    0 -0.54895339172E+02  0.14908382302E+03 -0.10199796509E+03  0.18879372191E+03  0.00000000000E+00 0. -1.
          1    1    1    2  502    0  0.82613753057E+02 -0.13477694993E+03  0.24541445421E+03  0.29192141539E+03  0.00000000000E+00 0. -1.
         22    1    1    2    0    0  0.24800853573E+02  0.36044461633E+02  0.18077788720E+02  0.47340173187E+02  0.00000000000E+00 0. -1.
         22    1    1    2    0    0 -0.52519267459E+02 -0.50351334722E+02  0.13750902434E+03  0.15557076248E+03  0.00000000000E+00 0.  1.
</event>
<event>
 6    1  0.3624778E-005  0.9719900E+02  0.7818608E-02  0.1319676E+00
          2   -1    0    0  502    0  0.00000000000E+00  0.00000000000E+00  0.42329395206E+02  0.42329395206E+02  0.00000000000E+00 0.  1.
          1   -1    0    0  501    0 -0.00000000000E+00 -0.00000000000E+00 -0.81880378854E+03  0.81880378854E+03  0.00000000000E+00 0. -1.
          2    1    1    2  501    0 -0.28650573428E+02  0.12816108327E+02 -0.26950528650E+02  0.41369541754E+02  0.00000000000E+00 0.  1.
          1    1    1    2  502    0  0.81203019967E+02 -0.19337538320E+02 -0.64892495917E+03  0.65427171227E+03  0.00000000000E+00 0. -1.
         22    1    1    2    0    0 -0.55962488226E+02 -0.46046579499E+02 -0.82454287312E+02  0.10977612249E+03  0.00000000000E+00 0.  1.
         22    1    1    2    0    0  0.34100416877E+01  0.52568009491E+02 -0.18144618198E+02  0.55715807234E+02  0.00000000000E+00 0.  1.
</event>
<event>
 6    1  0.3624778E-005  0.1497877E+03  0.7818608E-02  0.1202761E+00
          2   -1    0    0  502    0  0.00000000000E+00  0.00000000000E+00  0.51940653030E+03  0.51940653030E+03  0.00000000000E+00 0.  1.
          1   -1    0    0  501    0 -0.00000000000E+00 -0.00000000000E+00 -0.64870102668E+02  0.64870102668E+02  0.00000000000E+00 0.  1.
          2    1    1    2  501    0 -0.78859241183E+02 -0.10838656385E+03  0.15096323862E+03  0.20188196194E+03  0.00000000000E+00 0.  1.
          1    1    1    2  502    0  0.17903308243E+02  0.19561530315E+02  0.16931533490E+03  0.17137930023E+03  0.00000000000E+00 0.  1.
         22    1    1    2    0    0  0.75098548392E+02  0.10395493582E+03  0.75737223931E+02  0.14893806680E+03  0.00000000000E+00 0.  1.
         22    1    1    2    0    0 -0.14142615452E+02 -0.15129902285E+02  0.58520630186E+02  0.62077304003E+02  0.00000000000E+00 0.  1.
</event>
<event>
 6    1  0.3624778E-005  0.9280347E+02  0.7818608E-02  0.1298379E+00
          2   -1    0    0  502    0  0.00000000000E+00  0.00000000000E+00  0.93122232755E+02  0.93122232755E+02  0.00000000000E+00 0.  1.
          1   -1    0    0  501    0 -0.00000000000E+00 -0.00000000000E+00 -0.80251340813E+03  0.80251340813E+03  0.00000000000E+00 0.  1.
          2    1    1    2  501    0  0.12650268427E+03  0.21826025161E+02 -0.36387405625E+03  0.38585441985E+03  0.00000000000E+00 0.  1.
          1    1    1    2  502    0 -0.62315620264E+02 -0.45085784905E+02 -0.35651906720E+03  0.36472155106E+03  0.00000000000E+00 0.  1.
         22    1    1    2    0    0  0.20613827352E+02  0.84224343243E+01 -0.39432084103E+02  0.45285279449E+02  0.00000000000E+00 0.  1.
         22    1    1    2    0    0 -0.84800891360E+02  0.14837325420E+02  0.50434032189E+02  0.99774390521E+02  0.00000000000E+00 0.  1.
</event>
<event>
 6    1  0.3624778E-005  0.1458772E+03  0.7818608E-02  0.1207356E+00
          2   -1    0    0  502    0  0.00000000000E+00  0.00000000000E+00  0.38817967840E+03  0.38817967840E+03  0.00000000000E+00 0.  1.
          1   -1    0    0  501    0 -0.00000000000E+00 -0.00000000000E+00 -0.18381293149E+03  0.18381293149E+03  0.00000000000E+00 0.  1.
          2    1    1    2  501    0 -0.90254089861E+02  0.10864525957E+03  0.11255812150E+03  0.18060709809E+03  0.00000000000E+00 0.  1.
          1    1    1    2  502    0  0.69265343408E+02 -0.17586647484E+02 -0.11220080224E+03  0.13302630563E+03  0.00000000000E+00 0.  1.
         22    1    1    2    0    0 -0.14587575558E+02  0.29088427566E+02  0.52251789430E+02  0.61556343926E+02  0.00000000000E+00 0. -1.
         22    1    1    2    0    0  0.35576322012E+02 -0.12014703966E+03  0.15175763823E+03  0.19680286224E+03  0.00000000000E+00 0.  1.
</event>
<event>
 6    1  0.3624778E-005  0.6524703E+02  0.7818608E-02  0.1402691E+00
          2   -1    0    0  502    0  0.00000000000E+00  0.00000000000E+00  0.49732170531E+03  0.49732170531E+03  0.00000000000E+00 0.  1.
          1   -1    0    0  501    0 -0.00000000000E+00 -0.00000000000E+00 -0.19278502735E+03  0.19278502735E+03  0.00000000000E+00 0.  1.
          2    1    1    2  501    0 -0.62263639359E+02 -0.38810496697E+02  0.33115105723E+03  0.33918142364E+03  0.00000000000E+00 0.  1.
          1    1    1    2  502    0  0.60487449170E+02  0.16599733958E+02 -0.15704556911E+03  0.16910823000E+03  0.00000000000E+00 0.  1.
         22    1    1    2    0    0 -0.14922571791E+02 -0.17634911677E+02  0.13627600352E+03  0.13822019532E+03  0.00000000000E+00 0.  1.
         22    1    1    2    0    0  0.16698761980E+02  0.39845674416E+02 -0.58448136740E+01  0.43596883699E+02  0.00000000000E+00 0. -1.
</event>
<event>
 6    1  0.3624778E-005  0.6104670E+03  0.7818608E-02  0.1050215E+00
          2   -1    0    0  502    0  0.00000000000E+00  0.00000000000E+00  0.53297863424E+03  0.53297863424E+03  0.00000000000E+00 0. -1.
          1   -1    0    0  501    0 -0.00000000000E+00 -0.00000000000E+00 -0.51987944439E+03  0.51987944439E+03  0.00000000000E+00 0.  1.
          2    1    1    2  501    0 -0.13717498537E+03 -0.29042158329E+02 -0.23373136848E+03  0.27256334343E+03  0.00000000000E+00 0. -1.
          1    1    1    2  502    0 -0.42289057111E+02  0.42994864768E+02 -0.23927200313E+03  0.24675496799E+03  0.00000000000E+00 0.  1.
         22    1    1    2    0    0  0.77602824714E+02  0.53038459030E+02  0.16241470265E+03  0.18765343636E+03  0.00000000000E+00 0. -1.
         22    1    1    2    0    0  0.10186121777E+03 -0.66991165469E+02  0.32368785880E+03  0.34588633085E+03  0.00000000000E+00 0. -1.
</event>
<event>
 6    1  0.3624778E-005  0.7955754E+02  0.7818608E-02  0.1331859E+00
          2   -1    0    0  502    0  0.00000000000E+00  0.00000000000E+00  0.30133739595E+03  0.30133739595E+03  0.00000000000E+00 0.  1.
          1   -1    0    0  501    0 -0.00000000000E+00 -0.00000000000E+00 -0.15855506344E+03  0.15855506344E+03  0.00000000000E+00 0.  1.
          2    1    1    2  501    0 -0.23839262634E+02  0.35582265365E+02  0.43951227748E+02  0.61368709226E+02  0.00000000000E+00 0.  1.
          1    1    1    2  502    0  0.31608765160E+02  0.19891447854E+00 -0.12952004662E+03  0.13332140143E+03  0.00000000000E+00 0.  1.
         22    1    1    2    0    0 -0.10871125947E+02  0.40857056213E+02  0.28101277359E+02  0.50765758253E+02  0.00000000000E+00 0.  1.
         22    1    1    2    0    0  0.31016234213E+01 -0.76638236057E+02  0.20024987402E+03  0.21443659049E+03  0.00000000000E+00 0.  1.
</event>
<event>
 6    1  0.3624778E-005  0.1869418E+03  0.7818608E-02  0.1227099E+00
          2   -1    0    0  502    0  0.00000000000E+00  0.00000000000E+00  0.17916719718E+03  0.17916719718E+03  0.00000000000E+00 0. -1.
          1   -1    0    0  501    0 -0.00000000000E+00 -0.00000000000E+00 -0.29468493067E+03  0.29468493067E+03  0.00000000000E+00 0. -1.
          2    1    1    2  501    0 -0.11754400102E+03  0.14791235113E+02 -0.14442458984E+03  0.18679891585E+03  0.00000000000E+00 0. -1.
          1    1    1    2  502    0  0.13138340736E+03 -0.28667263629E+02 -0.47447806217E+02  0.14259981083E+03  0.00000000000E+00 0. -1.
         22    1    1    2    0    0  0.42873567106E+02 -0.10077702077E+02  0.69810857130E+02  0.82542465487E+02  0.00000000000E+00 0. -1.
         22    1    1    2    0    0 -0.56712973453E+02  0.23953730593E+02  0.65438054340E+01  0.61910935680E+02  0.00000000000E+00 0. -1.
</event>
<event>
 6    1  0.3624778E-005  0.8387137E+02  0.7818608E-02  0.1382564E+00
          2   -1    0    0  502    0  0.00000000000E+00  0.00000000000E+00  0.49267574908E+02  0.49267574908E+02  0.00000000000E+00 0.  1.
          1   -1    0    0  501    0 -0.00000000000E+00 -0.00000000000E+00 -0.55925216548E+03  0.55925216548E+03  0.00000000000E+00 0.  1.
          2    1    1    2  501    0  0.28286410958E+02  0.39399243937E+02 -0.98846693403E+02  0.11010490572E+03  0.00000000000E+00 0.  1.
          1    1    1    2  502    0 -0.55343633209E+02 -0.68688004573E+02 -0.34274582647E+03  0.35391476554E+03  0.00000000000E+00 0.  1.
         22    1    1    2    0    0  0.25783818184E+02  0.11103877479E+02  0.31940972490E+02  0.42524429435E+02  0.00000000000E+00 0.  1.
         22    1    1    2    0    0  0.12734040674E+01  0.18184883157E+02 -0.10033304319E+03  0.10197563968E+03  0.00000000000E+00 0.  1.
</event>
<event>
 6    1  0.3624778E-005  0.9894047E+02  0.7818608E-02  0.1294728E+00
          2   -1    0    0  502    0  0.00000000000E+00  0.00000000000E+00  0.52764450774E+03  0.52764450774E+03  0.00000000000E+00 0. -1.
          1   -1    0    0  501    0 -0.00000000000E+00 -0.00000000000E+00 -0.31729469125E+02  0.31729469125E+02  0.00000000000E+00 0. -1.
          2    1    1    2  501    0 -0.38068630412E+02 -0.13165810134E+02  0.45985248282E+02  0.61132660972E+02  0.00000000000E+00 0. -1.
          1    1    1    2  502    0  0.48833002046E+02 -0.35562417249E+02  0.62306979988E+02  0.86784257585E+02  0.00000000000E+00 0. -1.
         22    1    1    2    0    0 -0.44382590511E+02 -0.22657634610E+02  0.22817905722E+03  0.23355698426E+03  0.00000000000E+00 0.  1.
         22    1    1    2    0    0  0.33618218878E+02  0.71385861993E+02  0.15944375313E+03  0.17790007404E+03  0.00000000000E+00 0. -1.
</event>
<event>
 6    1  0.3624778E-005  0.1320927E+03  0.7818608E-02  0.1286492E+00
          2   -1    0    0  502    0  0.00000000000E+00  0.00000000000E+00  0.53491683470E+02  0.53491683470E+02  0.00000000000E+00 0. -1.
          1   -1    0    0  501    0 -0.00000000000E+00 -0.00000000000E+00 -0.10882367231E+04  0.10882367231E+04  0.00000000000E+00 0. -1.
          2    1    1    2  501    0 -0.15117589852E+02  0.13551204599E+02 -0.55984817395E+02  0.59552300105E+02  0.00000000000E+00 0. -1.
          1    1    1    2  502    0  0.60711800172E+02 -0.77370547566E+02 -0.91271425192E+03  0.91799751088E+03  0.00000000000E+00 0. -1.
         22    1    1    2    0    0 -0.60452194447E+02  0.28208385741E+02  0.20194544610E+02  0.69699357756E+02  0.00000000000E+00 0. -1.
         22    1    1    2    0    0  0.14857984127E+02  0.35610957226E+02 -0.86240514891E+02  0.94479237802E+02  0.00000000000E+00 0. -1.
</event>
<event>
 6    1  0.3624778E-005  0.7696289E+02  0.7818608E-02  0.1340716E+00
          2   -1    0    0  502    0  0.00000000000E+00  0.00000000000E+00  0.30624069130E+03  0.30624069130E+03  0.00000000000E+00 0.  1.
          1   -1    0    0  501    0 -0.00000000000E+00 -0.00000000000E+00 -0.21848169264E+03  0.21848169264E+03  0.00000000000E+00 0.  1.
          2    1    1    2  501    0  0.23955480343E+02 -0.10795572927E+02  0.25580787557E+02  0.36671325655E+02  0.00000000000E+00 0.  1.
          1    1    1    2  502    0  0.27002152788E+01  0.22851574371E+02 -0.19681118603E+03  0.19815178163E+03  0.00000000000E+00 0.  1.
         22    1    1    2    0    0  0.45839258672E+02  0.11106751462E+02  0.56613891708E+02  0.73686703672E+02  0.00000000000E+00 0.  1.
         22    1    1    2    0    0 -0.72494954294E+02 -0.23162752906E+02  0.20237550543E+03  0.21621257299E+03  0.00000000000E+00 0.  1.
</event>
<event>
 6    1  0.3624778E-005  0.1468380E+03  0.7818608E-02  0.1208261E+00
          2   -1    0    0  502    0  0.00000000000E+00  0.00000000000E+00  0.25372596450E+03  0.25372596450E+03  0.00000000000E+00 0.  1.
          1   -1    0    0  501    0 -0.00000000000E+00 -0.00000000000E+00 -0.11039011988E+04  0.11039011988E+04  0.00000000000E+00 0.  1.
          2    1    1    2  501    0  0.65265944148E+02  0.65134493513E+02  0.38184745648E+02  0.99800904359E+02  0.00000000000E+00 0.  1.
          1    1    1    2  502    0  0.17679217339E+02  0.73068285118E+02 -0.10166220635E+04  0.10193978365E+04  0.00000000000E+00 0.  1.
         22    1    1    2    0    0 -0.71163190942E+02 -0.16042580542E+03  0.11659437327E+03  0.21070094131E+03  0.00000000000E+00 0.  1.
         22    1    1    2    0    0 -0.11781970545E+02  0.22223026791E+02  0.11667710265E+02  0.27727481178E+02  0.00000000000E+00 0. -1.
</event>
<event>
 6    1  0.3624778E-005  0.1049879E+03  0.7818608E-02  0.1327119E+00
          2   -1    0    0  502    0  0.00000000000E+00  0.00000000000E+00  0.83998634659E+02  0.83998634659E+02  0.00000000000E+00 0. -1.
          1   -1    0    0  501    0 -0.00000000000E+00 -0.00000000000E+00 -0.70952487829E+03  0.70952487829E+03  0.00000000000E+00 0. -1.
          2    1    1    2  501    0 -0.38466015421E+02  0.57458806881E+02 -0.11374277886E+03  0.13311111363E+03  0.00000000000E+00 0. -1.
          1    1    1    2  502    0 -0.80763555586E+01 -0.93834070867E+02 -0.50987266984E+03  0.51849802297E+03  0.00000000000E+00 0. -1.
         22    1    1    2    0    0  0.10323856945E+02  0.41803275918E+02 -0.59633195886E+02  0.73554156587E+02  0.00000000000E+00 0.  1.
         22    1    1    2    0    0  0.36218514035E+02 -0.54280119320E+01  0.57722400957E+02  0.68360219753E+02  0.00000000000E+00 0. -1.
</event>
<event>
 6    1  0.3624778E-005  0.2406976E+03  0.7818608E-02  0.1214905E+00
          2   -1    0    0  502    0  0.00000000000E+00  0.00000000000E+00  0.36708963326E+03  0.36708963326E+03  0.00000000000E+00 0. -1.
          1   -1    0    0  501    0 -0.00000000000E+00 -0.00000000000E+00 -0.13618588782E+03  0.13618588782E+03  0.00000000000E+00 0.  1.
          2    1    1    2  501    0  0.10102744771E+03 -0.37886853279E+02  0.28832329016E+02  0.11168375907E+03  0.00000000000E+00 0. -1.
          1    1    1    2  502    0 -0.26145924459E+02 -0.30763865625E+01 -0.73440951114E+02  0.78016964954E+02  0.00000000000E+00 0.  1.
         22    1    1    2    0    0  0.16973939514E+02 -0.20987453699E+02  0.11768745611E+03  0.12074321993E+03  0.00000000000E+00 0. -1.
         22    1    1    2    0    0 -0.91855462767E+02  0.61950693540E+02  0.15782491143E+03  0.19283157713E+03  0.00000000000E+00 0.  1.
</event>
<event>
 6    1  0.3624778E-005  0.1003884E+03  0.7818608E-02  0.1281634E+00
          2   -1    0    0  502    0  0.00000000000E+00  0.00000000000E+00  0.51291902315E+02  0.51291902315E+02  0.00000000000E+00 0.  1.
          1   -1    0    0  501    0 -0.00000000000E+00 -0.00000000000E+00 -0.46280504867E+03  0.46280504867E+03  0.00000000000E+00 0.  1.
          2    1    1    2  501    0 -0.46160508392E+02 -0.16016373090E+02 -0.57763639326E+02  0.75656822363E+02  0.00000000000E+00 0.  1.
          1    1    1    2  502    0 -0.33570477387E+02 -0.94239131731E+01 -0.25900789097E+03  0.26134436033E+03  0.00000000000E+00 0.  1.
         22    1    1    2    0    0  0.11215970542E+03  0.28651830350E+02 -0.83063782375E+02  0.14247918741E+03  0.00000000000E+00 0.  1.
         22    1    1    2    0    0 -0.32428719636E+02 -0.32115440869E+01 -0.11677833683E+02  0.34616580885E+02  0.00000000000E+00 0.  1.
</event>
<event>
 6    1  0.3624778E-005  0.8663588E+02  0.7818608E-02  0.1381736E+00
          2   -1    0    0  502    0  0.00000000000E+00  0.00000000000E+00  0.12367717094E+03  0.12367717094E+03  0.00000000000E+00 0.  1.
          1   -1    0    0  501    0 -0.00000000000E+00 -0.00000000000E+00 -0.43248998248E+03  0.43248998248E+03  0.00000000000E+00 0.  1.
          2    1    1    2  501    0  0.29611922361E+02 -0.42577328116E+02 -0.91337370840E+02  0.10503432833E+03  0.00000000000E+00 0.  1.
          1    1    1    2  502    0 -0.38702172912E+02  0.41816406017E+02 -0.29615428138E+03  0.30158552416E+03  0.00000000000E+00 0.  1.
         22    1    1    2    0    0  0.25518941299E+02  0.20674654723E+02 -0.25901601166E+02  0.41827630293E+02  0.00000000000E+00 0. -1.
         22    1    1    2    0    0 -0.16428690748E+02 -0.19913732623E+02  0.10458044184E+03  0.10771967064E+03  0.00000000000E+00 0.  1.
</event>
<event>
 6    1  0.3624778E-005  0.2719123E+03  0.7818608E-02  0.1178928E+00
          2   -1    0    0  502    0  0.00000000000E+00  0.00000000000E+00  0.69518719925E+03  0.69518719925E+03  0.00000000000E+00 0.  1.
          1   -1    0    0  501    0 -0.00000000000E+00 -0.00000000000E+00 -0.44847089890E+03  0.44847089890E+03  0.00000000000E+00 0. -1.
          2    1    1    2  501    0 -0.65038512750E+02  0.12957207385E+02  0.34920610126E+02  0.74948958468E+02  0.00000000000E+00 0.  1.
          1    1    1    2  502    0  0.19766537844E+03 -0.11744531005E+03 -0.37754577421E+03  0.44204729873E+03  0.00000000000E+00 0. -1.
         22    1    1    2    0    0 -0.29261234514E+02 -0.28065209402E+02  0.17258647470E+03  0.17728498830E+03  0.00000000000E+00 0.  1.
         22    1    1    2    0    0 -0.10336563117E+03  0.13255331206E+03  0.41675498973E+03  0.44937685266E+03  0.00000000000E+00 0.  1.
</event>
<event>
 6    1  0.3624778E-005  0.1832980E+03  0.7818608E-02  0.1240934E+00
          2   -1    0    0  502    0  0.00000000000E+00  0.00000000000E+00  0.59466650866E+02  0.59466650866E+02  0.00000000000E+00 0.  1.
          1   -1    0    0  501    0 -0.00000000000E+00 -0.00000000000E+00 -0.17717179025E+04  0.17717179025E+04  0.00000000000E+00 0. -1.
          2    1    1    2  501    0  0.11640186609E+03  0.71980920194E+02 -0.24866222828E+03  0.28383719114E+03  0.00000000000E+00 0.  1.
          1    1    1    2  502    0 -0.14374413373E+03 -0.95793102291E+02 -0.13784430265E+04  0.13892241978E+04  0.00000000000E+00 0. -1.
         22    1    1    2    0    0  0.36094605160E+02  0.57883665942E+02 -0.99075173394E+02  0.12028810950E+03  0.00000000000E+00 0. -1.
         22    1    1    2    0    0 -0.87523375201E+01 -0.34071483845E+02  0.13929176531E+02  0.37835054939E+02  0.00000000000E+00 0.  1.
</event>
<event>
 6    1  0.3624778E-005  0.9164987E+02  0.7818608E-02  0.1300101E+00
          2   -1    0    0  502    0  0.00000000000E+00  0.00000000000E+00  0.46965130577E+03  0.46965130577E+03  0.00000000000E+00 0. -1.
          1   -1    0    0  501    0 -0.00000000000E+00 -0.00000000000E+00 -0.88312299805E+02  0.88312299805E+02  0.00000000000E+00 0. -1.
          2    1    1    2  501    0  0.23100005590E+02 -0.49012579206E+02  0.15850242041E+03  0.16750779222E+03  0.00000000000E+00 0. -1.
          1    1    1    2  502    0  0.13999508298E+02 -0.16004045658E+02 -0.63897476627E+02  0.67342432606E+02  0.00000000000E+00 0. -1.
         22    1    1    2    0    0  0.75816412515E+01 -0.29406434571E+02  0.13837233817E+03  0.14166553444E+03  0.00000000000E+00 0. -1.
         22    1    1    2    0    0 -0.44681155140E+02  0.94423059435E+02  0.14836172401E+03  0.18144784631E+03  0.00000000000E+00 0. -1.
</event>
<event>
 6    1  0.3624778E-005  0.1675267E+03  0.7818608E-02  0.1257987E+00
          2   -1    0    0  502    0  0.00000000000E+00  0.00000000000E+00  0.20148007636E+02  0.20148007636E+02  0.00000000000E+00 0. -1.
          1   -1    0    0  501    0 -0.00000000000E+00 -0.00000000000E+00 -0.17921890996E+04  0.17921890996E+04  0.00000000000E+00 0. -1.
          2    1    1    2  501    0 -0.36816802105E+02  0.74603342907E+02 -0.22345334844E+03  0.23843769547E+03  0.00000000000E+00 0. -1.
          1    1    1    2  502    0  0.26628272510E+02 -0.16467195906E+01 -0.11158623891E+04  0.11161812791E+04  0.00000000000E+00 0. -1.
         22    1    1    2    0    0 -0.30555552851E+02 -0.14460784598E+02 -0.20846387402E+02  0.39715588488E+02  0.00000000000E+00 0. -1.
         22    1    1    2    0    0  0.40744082445E+02 -0.58495838718E+02 -0.41187896702E+03  0.41800254410E+03  0.00000000000E+00 0.  1.
</event>
<event>
 6    1  0.3624778E-005  0.6430708E+02  0.7818608E-02  0.1383823E+00
          2   -1    0    0  502    0  0.00000000000E+00  0.00000000000E+00  0.21111248764E+02  0.21111248764E+02  0.00000000000E+00 0. -1.
          1   -1    0    0  501    0 -0.00000000000E+00 -0.00000000000E+00 -0.97616255397E+03  0.97616255397E+03  0.00000000000E+00 0. -1.
          2    1    1    2  501    0 -0.16532836647E+02 -0.20922717219E+02 -0.68739738958E+03  0.68791443217E+03  0.00000000000E+00 0. -1.
          1    1    1    2  502    0  0.51830418693E+01  0.25181783754E+02 -0.26602984045E+02  0.36996012166E+02  0.00000000000E+00 0. -1.
         22    1    1    2    0    0  0.39182026136E+02  0.43877032111E+02 -0.64653619012E+02  0.87410042731E+02  0.00000000000E+00 0. -1.
         22    1    1    2    0    0 -0.27832231358E+02 -0.48136098646E+02 -0.17639731257E+03  0.18495331567E+03  0.00000000000E+00 0. -1.
</event>
<event>
 6    1  0.3624778E-005  0.2234213E+03  0.7818608E-02  0.1240364E+00
          2   -1    0    0  502    0  0.00000000000E+00  0.00000000000E+00  0.46086830201E+02  0.46086830201E+02  0.00000000000E+00 0. -1.
          1   -1    0    0  501    0 -0.00000000000E+00 -0.00000000000E+00 -0.16938864629E+04  0.16938864629E+04  0.00000000000E+00 0. -1.
          2    1    1    2  501    0 -0.18087353700E+02 -0.14653135569E+02 -0.79334523179E+02  0.82679098410E+02  0.00000000000E+00 0. -1.
          1    1    1    2  502    0  0.31428516153E+02  0.20941511712E+03 -0.12296218076E+04  0.12477228188E+04  0.00000000000E+00 0. -1.
         22    1    1    2    0    0 -0.19648591263E+02 -0.32361247778E+00 -0.94709035265E+00  0.19674065258E+02  0.00000000000E+00 0. -1.
         22    1    1    2    0    0  0.63074288098E+01 -0.19443836907E+03 -0.33789621158E+03  0.38989731062E+03  0.00000000000E+00 0. -1.
</event>
<event>
 6    1  0.3624778E-005  0.4120653E+03  0.7818608E-02  0.1082292E+00
          2   -1    0    0  502    0  0.00000000000E+00  0.00000000000E+00  0.16447180856E+03  0.16447180856E+03  0.00000000000E+00 0.  1.
          1   -1    0    0  501    0 -0.00000000000E+00 -0.00000000000E+00 -0.14099970343E+04  0.14099970343E+04  0.00000000000E+00 0.  1.
          2    1    1    2  501    0 -0.19323507193E+03 -0.29375264405E+03 -0.41083537023E+03  0.54075512975E+03  0.00000000000E+00 0.  1.
          1    1    1    2  502    0  0.11578189036E+03  0.40673212289E+03 -0.57137032863E+03  0.71084493271E+03  0.00000000000E+00 0.  1.
         22    1    1    2    0    0 -0.25649375763E+02 -0.41832345239E+02 -0.28553540627E+02  0.56772707066E+02  0.00000000000E+00 0.  1.
         22    1    1    2    0    0  0.10310255733E+03 -0.71147133596E+02 -0.23476598620E+03  0.26609607329E+03  0.00000000000E+00 0. -1.
</event>
<event>
 6    1  0.3624778E-005  0.1293414E+03  0.7818608E-02  0.1324535E+00
          2   -1    0    0  502    0  0.00000000000E+00  0.00000000000E+00  0.18140062649E+03  0.18140062649E+03  0.00000000000E+00 0. -1.
          1   -1    0    0  501    0 -0.00000000000E+00 -0.00000000000E+00 -0.20533847237E+03  0.20533847237E+03  0.00000000000E+00 0. -1.
          2    1    1    2  501    0 -0.30550198416E+02  0.66850040660E+02 -0.48986215113E+02  0.88328318395E+02  0.00000000000E+00 0. -1.
          1    1    1    2  502    0  0.31882681930E+02 -0.13599708022E+03 -0.31837101634E+02  0.14326657767E+03  0.00000000000E+00 0. -1.
         22    1    1    2    0    0 -0.56242085433E+00  0.20495649933E+02  0.92563983137E+02  0.94807589135E+02  0.00000000000E+00 0. -1.
         22    1    1    2    0    0 -0.77006266018E+00  0.48651389631E+02 -0.35678512269E+02  0.60336613654E+02  0.00000000000E+00 0.  1.
</event>
<event>
 6    1  0.3624778E-005  0.1923429E+03  0.7818608E-02  0.1205286E+00
          2   -1    0    0  502    0  0.00000000000E+00  0.00000000000E+00  0.18301754399E+03  0.18301754399E+03  0.00000000000E+00 0. -1.
          1   -1    0    0  501    0 -0.00000000000E+00 -0.00000000000E+00 -0.54737530671E+03  0.54737530671E+03  0.00000000000E+00 0. -1.
          2    1    1    2  501    0 -0.35380181967E+02 -0.21251307368E+02 -0.32986571444E+03  0.33243761055E+03  0.00000000000E+00 0. -1.
          1    1    1    2  502    0  0.78032426734E+02  0.15134535450E+03  0.73334158041E+02  0.18539788210E+03  0.00000000000E+00 0. -1.
         22    1    1    2    0    0  0.24469216093E+02 -0.59261594600E+02  0.38785335190E+01  0.64231784601E+02  0.00000000000E+00 0. -1.
         22    1    1    2    0    0 -0.67121460859E+02 -0.70832452530E+02 -0.11170473984E+03  0.14832557346E+03  0.00000000000E+00 0. -1.
</event>
<event>
 6    1  0.3624778E-005  0.1195661E+03  0.7818608E-02  0.1247185E+00
          2   -1    0    0  502    0  0.00000000000E+00  0.00000000000E+00  0.53402743255E+03  0.53402743255E+03  0.00000000000E+00 0. -1.
          1   -1    0    0  501    0 -0.00000000000E+00 -0.00000000000E+00 -0.37575880927E+02  0.37575880927E+02  0.00000000000E+00 0. -1.
          2    1    1    2  501    0 -0.60258948857E+02 -0.65630491755E+02  0.16736521831E+03  0.18960384665E+03  0.00000000000E+00 0. -1.
          1    1    1    2  502    0 -0.16616779669E+02  0.30988307072E+02  0.98240505137E+02  0.10434361213E+03  0.00000000000E+00 0. -1.
         22    1    1    2    0    0 -0.25037600281E+02 -0.10018316070E+02  0.11054342649E+03  0.11378531200E+03  0.00000000000E+00 0.  1.
         22    1    1    2    0    0  0.10191332881E+03  0.44660500752E+02  0.12030240168E+03  0.16387054271E+03  0.00000000000E+00 0. -1.
</event>
<event>
 6    1  0.3624778E-005  0.9424258E+02  0.7818608E-02  0.1351445E+00
          2   -1    0    0  502    0  0.00000000000E+00  0.00000000000E+00  0.13492697165E+03  0.13492697165E+03  0.00000000000E+00 0.  1.
          1   -1    0    0  501    0 -0.00000000000E+00 -0.00000000000E+00 -0.21007830854E+03  0.21007830854E+03  0.00000000000E+00 0. -1.
          2    1    1    2  501    0  0.21391876525E+01  0.57072232487E+02 -0.24882054482E+02  0.62297130593E+02  0.00000000000E+00 0.  1.
          1    1    1    2  502    0  0.80996000169E+01 -0.67820193053E+02 -0.12076614298E+03  0.13874308414E+03  0.00000000000E+00 0. -1.
         22    1    1    2    0    0 -0.43440234574E+02  0.11046942030E+02 -0.18867416443E+02  0.48631967997E+02  0.00000000000E+00 0.  1.
         22    1    1    2    0    0  0.33201446904E+02 -0.29898146353E+00  0.89364277015E+02  0.95333097468E+02  0.00000000000E+00 0.  1.
</event>
<event>
 6    1  0.3624778E-005  0.3326191E+02  0.7818608E-02  0.1579429E+00
          2   -1    0    0  502    0  0.00000000000E+00  0.00000000000E+00  0.46677274929E+02  0.46677274929E+02  0.00000000000E+00 0. -1.
          1   -1    0    0  501    0 -0.00000000000E+00 -0.00000000000E+00 -0.46397837607E+03  0.46397837607E+03  0.00000000000E+00 0. -1.
          2    1    1    2  501    0  0.11490860372E+02 -0.19075453216E+02 -0.55666536864E+02  0.59955617868E+02  0.00000000000E+00 0. -1.
          1    1    1    2  502    0 -0.22575479443E+02  0.54169556702E+01 -0.31374131046E+03  0.31459911883E+03  0.00000000000E+00 0. -1.
         22    1    1    2    0    0 -0.15959011060E+02  0.21928423769E+02  0.37424501765E+02  0.46218385253E+02  0.00000000000E+00 0. -1.
         22    1    1    2    0    0  0.27043630131E+02 -0.82699262236E+01 -0.85317755588E+02  0.89882529053E+02  0.00000000000E+00 0. -1.
</event>
<event>
 6    1  0.4060280E-005  0.1509626E+03  0.7818608E-02  0.1202272E+00
          2   -1    0    0  502    0  0.00000000000E+00  0.00000000000E+00  0.62623571028E+03  0.62623571028E+03  0.00000000000E+00 0. -1.
          1   -1    0    0  501    0 -0.00000000000E+00 -0.00000000000E+00 -0.14637642507E+04  0.14637642507E+04  0.00000000000E+00 0.  1.
          2    1    1    2  501    0 -0.14208245852E+03  0.72720545263E+01  0.17189827799E+03  0.22313521858E+03  0.00000000000E+00 0. -1.
          1    1    1    2  502    0  0.54434904948E+02 -0.71713337789E+02 -0.14208716864E+04  0.14237212897E+04  0.00000000000E+00 0.  1.
         22    1    1    2    0    0  0.11648491200E+03  0.68404055539E+02  0.32612656691E+03  0.35299629910E+03  0.00000000000E+00 0. -1.
         22    1    1    2    0    0 -0.28837358436E+02 -0.39627722763E+01  0.85318301040E+02  0.90147153577E+02  0.00000000000E+00 0.  1.
</event>
<event>
 6    1  0.3624778E-005  0.6970296E+02  0.7818608E-02  0.1481437E+00
          2   -1    0    0  502    0  0.00000000000E+00  0.00000000000E+00  0.43701633498E+02  0.43701633498E+02  0.00000000000E+00 0.  1.
          1   -1    0    0  501    0 -0.00000000000E+00 -0.00000000000E+00 -0.10233134058E+04  0.10233134058E+04  0.00000000000E+00 0.  1.
          2    1    1    2  501    0  0.57797747743E+01 -0.26545004068E+02 -0.19166503387E+02  0.33247524561E+02  0.00000000000E+00 0.  1.
          1    1    1    2  502    0  0.92892669648E+01  0.23500692151E+02 -0.88021763757E+03  0.88058029873E+03  0.00000000000E+00 0.  1.
         22    1    1    2    0    0  0.82289851627E+01 -0.72249251622E+01  0.34226350652E+02  0.35935481343E+02  0.00000000000E+00 0.  1.
         22    1    1    2    0    0 -0.23298026902E+02  0.10269237079E+02 -0.11445398199E+03  0.11725173466E+03  0.00000000000E+00 0.  1.
</event>
<event>
 6    1  0.3624778E-005  0.1084269E+03  0.7818608E-02  0.1320625E+00
          2   -1    0    0  502    0  0.00000000000E+00  0.00000000000E+00  0.21901770659E+02  0.21901770659E+02  0.00000000000E+00 0. -1.
          1   -1    0    0  501    0 -0.00000000000E+00 -0.00000000000E+00 -0.12709487089E+04  0.12709487089E+04  0.00000000000E+00 0.  1.
          2    1    1    2  501    0  0.45437476456E+01 -0.60451627043E+02 -0.40094074794E+03  0.40549787695E+03  0.00000000000E+00 0. -1.
          1    1    1    2  502    0  0.48065994910E+02  0.51352333622E+02 -0.61618715858E+03  0.62018869422E+03  0.00000000000E+00 0.  1.
         22    1    1    2    0    0 -0.53906367472E+02 -0.28189804012E+02 -0.21960190470E+03  0.22787180179E+03  0.00000000000E+00 0. -1.
         22    1    1    2    0    0  0.12966249164E+01  0.37289097433E+02 -0.12317127037E+02  0.39292106612E+02  0.00000000000E+00 0.  1.
</event>
<event>
 6    1  0.3624778E-005  0.1573497E+03  0.7818608E-02  0.1262760E+00
          2   -1    0    0  502    0  0.00000000000E+00  0.00000000000E+00  0.20638907649E+03  0.20638907649E+03  0.00000000000E+00 0.  1.
          1   -1    0    0  501    0 -0.00000000000E+00 -0.00000000000E+00 -0.20214244242E+03  0.20214244242E+03  0.00000000000E+00 0.  1.
          2    1    1    2  501    0 -0.79321015467E+02  0.17442284781E+00  0.41067936576E+02  0.89322054011E+02  0.00000000000E+00 0.  1.
          1    1    1    2  502    0  0.22002258814E+02 -0.14605269513E+02 -0.14169429058E+03  0.14413426128E+03  0.00000000000E+00 0.  1.
         22    1    1    2    0    0  0.53083337507E+02  0.40964821843E+02  0.12476643940E+03  0.14164258453E+03  0.00000000000E+00 0.  1.
         22    1    1    2    0    0  0.42354191467E+01 -0.26533975178E+02 -0.19893451328E+02  0.33432619099E+02  0.00000000000E+00 0. -1.
</event>
<event>
 6    1  0.3624778E-005  0.1073537E+03  0.7818608E-02  0.1395319E+00
          2   -1    0    0  502    0  0.00000000000E+00  0.00000000000E+00  0.58272403160E+02  0.58272403160E+02  0.00000000000E+00 0.  1.
          1   -1    0    0  501    0 -0.00000000000E+00 -0.00000000000E+00 -0.62519148655E+03  0.62519148655E+03  0.00000000000E+00 0.  1.
          2    1    1    2  501    0  0.34737094375E+02 -0.22707120013E+01 -0.92159310434E+02  0.98514772285E+02  0.00000000000E+00 0.  1.
          1    1    1    2  502    0 -0.86592194093E+00 -0.49461162907E+02 -0.43639076579E+03  0.43918567477E+03  0.00000000000E+00 0.  1.
         22    1    1    2    0    0  0.10655309209E+02  0.23076360468E+01  0.40871890550E+02  0.42300972041E+02  0.00000000000E+00 0.  1.
         22    1    1    2    0    0 -0.44526481643E+02  0.49424238862E+02 -0.79240897717E+02  0.10346247061E+03  0.00000000000E+00 0.  1.
</event>
<event>
 6    1  0.3624778E-005  0.1710590E+03  0.7818608E-02  0.1243093E+00
          2   -1    0    0  502    0  0.00000000000E+00  0.00000000000E+00  0.33745371623E+03  0.33745371623E+03  0.00000000000E+00 0.  1.
          1   -1    0    0  501    0 -0.00000000000E+00 -0.00000000000E+00 -0.25084666262E+03  0.25084666262E+03  0.00000000000E+00 0.  1.
          2    1    1    2  501    0 -0.55947123118E+02  0.57042849914E+02  0.11793716806E+00  0.79899819904E+02  0.00000000000E+00 0.  1.
          1    1    1    2  502    0  0.12016350290E+03 -0.88129904922E+02 -0.16252588559E+03  0.22050127224E+03  0.00000000000E+00 0.  1.
         22    1    1    2    0    0 -0.72057009802E+02 -0.95951056511E+01  0.59588932298E+02  0.93995316726E+02  0.00000000000E+00 0. -1.
         22    1    1    2    0    0  0.78406300155E+01  0.40682160659E+02  0.18942606975E+03  0.19390396998E+03  0.00000000000E+00 0.  1.
</event>
<event>
 6    1  0.3624778E-005  0.1419800E+03  0.7818608E-02  0.1267826E+00
          2   -1    0    0  502    0  0.00000000000E+00  0.00000000000E+00  0.35271564266E+03  0.35271564266E+03  0.00000000000E+00 0. -1.
          1   -1    0    0  501    0 -0.00000000000E+00 -0.00000000000E+00 -0.64182461397E+02  0.64182461397E+02  0.00000000000E+00 0. -1.
          2    1    1    2  501    0 -0.10212002960E+01 -0.76560711179E+02  0.20065730980E+02  0.79153135794E+02  0.00000000000E+00 0. -1.
          1    1    1    2  502    0  0.51363408647E+02  0.96645237989E+01  0.73144053909E+02  0.89898027733E+02  0.00000000000E+00 0. -1.
         22    1    1    2    0    0 -0.70329820069E+02  0.27251056912E+02  0.38152231882E+02  0.84525123433E+02  0.00000000000E+00 0. -1.
         22    1    1    2    0    0  0.19987611718E+02  0.39645130468E+02  0.15717116449E+03  0.16332181710E+03  0.00000000000E+00 0.  1.
</event>
<event>
 6    1  0.3624778E-005  0.1070795E+03  0.7818608E-02  0.1307366E+00
          2   -1    0    0  502    0  0.00000000000E+00  0.00000000000E+00  0.36045225542E+03  0.36045225542E+03  0.00000000000E+00 0.  1.
          1   -1    0    0  501    0 -0.00000000000E+00 -0.00000000000E+00 -0.19248867296E+03  0.19248867296E+03  0.00000000000E+00 0.  1.
          2    1    1    2  501    0 -0.15597932677E+02 -0.31993537477E+02  0.30419046829E+02  0.46820939270E+02  0.00000000000E+00 0.  1.
          1    1    1    2  502    0  0.12590864946E+02  0.75642422166E+02 -0.16199780832E+03  0.17923056607E+03  0.00000000000E+00 0.  1.
         22    1    1    2    0    0  0.47157410204E+02 -0.14041535337E+02  0.44421546668E+02  0.66289213754E+02  0.00000000000E+00 0.  1.
         22    1    1    2    0    0 -0.44150342473E+02 -0.29607349352E+02  0.25512079729E+03  0.26060020929E+03  0.00000000000E+00 0.  1.
</event>
<event>
 6    1  0.3624778E-005  0.6673158E+02  0.7818608E-02  0.1405068E+00
          2   -1    0    0  502    0  0.00000000000E+00  0.00000000000E+00  0.17458562564E+03  0.17458562564E+03  0.00000000000E+00 0. -1.
          1   -1    0    0  501    0 -0.00000000000E+00 -0.00000000000E+00 -0.13015928678E+03  0.13015928678E+03  0.00000000000E+00 0. -1.
          2    1    1    2  501    0 -0.17328975997E+02  0.14935500507E+02 -0.64395428633E+01  0.23766158646E+02  0.00000000000E+00 0. -1.
          1    1    1    2  502    0  0.82490720769E+02 -0.74516952295E+01 -0.61819753470E+02  0.10335341646E+03  0.00000000000E+00 0. -1.
         22    1    1    2    0    0 -0.35389330847E+02 -0.16149182284E+02  0.13430484726E+03  0.13982486483E+03  0.00000000000E+00 0. -1.
         22    1    1    2    0    0 -0.29772413925E+02  0.86653770058E+01 -0.21619212071E+02  0.37800472486E+02  0.00000000000E+00 0. -1.
</event>
<event>
 6    1  0.3624778E-005  0.8979050E+02  0.7818608E-02  0.1395063E+00
          2   -1    0    0  502    0  0.00000000000E+00  0.00000000000E+00  0.98283125356E+02  0.98283125356E+02  0.00000000000E+00 0. -1.
          1   -1    0    0  501    0 -0.00000000000E+00 -0.00000000000E+00 -0.23056177662E+03  0.23056177662E+03  0.00000000000E+00 0. -1.
          2    1    1    2  501    0 -0.28512652454E+02 -0.66943159295E+01 -0.28181421591E+02  0.40644529012E+02  0.00000000000E+00 0. -1.
          1    1    1    2  502    0  0.71937713769E+02 -0.21120723411E+02 -0.12974043944E+03  0.14984559135E+03  0.00000000000E+00 0. -1.
         22    1    1    2    0    0  0.49977161486E+01 -0.18029417147E+02  0.60348473906E+02  0.63182080942E+02  0.00000000000E+00 0. -1.
         22    1    1    2    0    0 -0.48422777464E+02  0.45844456488E+02 -0.34705264137E+02  0.75172700675E+02  0.00000000000E+00 0.  1.
</event>
<event>
 6    1  0.3624778E-005  0.2519102E+03  0.7818608E-02  0.1252316E+00
          2   -1    0    0  502    0  0.00000000000E+00  0.00000000000E+00  0.89469192400E+02  0.89469192400E+02  0.00000000000E+00 0.  1.
          1   -1    0    0  501    0 -0.00000000000E+00 -0.00000000000E+00 -0.40497141486E+03  0.40497141486E+03  0.00000000000E+00 0. -1.
          2    1    1    2  501    0  0.91213101472E+02  0.13789607990E+02  0.19970955199E+02  0.94386557413E+02  0.00000000000E+00 0.  1.
          1    1    1    2  502    0 -0.97728447445E+00 -0.36633931487E+02 -0.16901089623E+03  0.17293837938E+03  0.00000000000E+00 0. -1.
         22    1    1    2    0    0 -0.89108789049E+02  0.12121496732E+02 -0.18498351432E+03  0.20568472850E+03  0.00000000000E+00 0. -1.
         22    1    1    2    0    0 -0.11270279483E+01  0.10722826766E+02  0.18521232884E+02  0.21430941962E+02  0.00000000000E+00 0.  1.
</event>
<event>
 6    1  0.3624778E-005  0.6558983E+02  0.7818608E-02  0.1378309E+00
          2   -1    0    0  502    0  0.00000000000E+00  0.00000000000E+00  0.23565578522E+03  0.23565578522E+03  0.00000000000E+00 0.  1.
          1   -1    0    0  501    0 -0.00000000000E+00 -0.00000000000E+00 -0.17796942425E+03  0.17796942425E+03  0.00000000000E+00 0. -1.
          2    1    1    2  501    0  0.24452149105E+02  0.13729298594E+01 -0.19093927927E+02  0.31054317186E+02  0.00000000000E+00 0.  1.
          1    1    1    2  502    0 -0.78857046715E+02  0.50912958040E+02 -0.11180812185E+03  0.14598499658E+03  0.00000000000E+00 0. -1.
         22    1    1    2    0    0 -0.15726874770E+00 -0.20962684062E+02 -0.13497770423E+02  0.24932883166E+02  0.00000000000E+00 0.  1.
         22    1    1    2    0    0  0.54562166358E+02 -0.31323203837E+02  0.20208618117E+03  0.21165301254E+03  0.00000000000E+00 0.  1.
</event>
<event>
 6    1  0.3624778E-005  0.1930489E+03  0.7818608E-02  0.1255010E+00
          2   -1    0    0  502    0  0.00000000000E+00  0.00000000000E+00  0.52505204565E+02  0.52505204565E+02  0.00000000000E+00 0. -1.
          1   -1    0    0  501    0 -0.00000000000E+00 -0.00000000000E+00 -0.19219063195E+04  0.19219063195E+04  0.00000000000E+00 0.  1.
          2    1    1    2  501    0  0.82401086619E+02 -0.81003859648E+02 -0.21633044570E+03  0.24525583803E+03  0.00000000000E+00 0. -1.
          1    1    1    2  502    0 -0.14065334954E+03  0.13488409230E+03 -0.15040581025E+04  0.15166304293E+04  0.00000000000E+00 0.  1.
         22    1    1    2    0    0  0.10741241857E+02 -0.20008207790E+02  0.22130420156E+02  0.31708960120E+02  0.00000000000E+00 0. -1.
         22    1    1    2    0    0  0.47511021067E+02 -0.33872024867E+02 -0.17114298686E+03  0.18081629667E+03  0.00000000000E+00 0.  1.
</event>
<event>
 6    1  0.3624778E-005  0.1194290E+03  0.7818608E-02  0.1298503E+00
          2   -1    0    0  502    0  0.00000000000E+00  0.00000000000E+00  0.14342251410E+03  0.14342251410E+03  0.00000000000E+00 0.  1.
          1   -1    0    0  501    0 -0.00000000000E+00 -0.00000000000E+00 -0.10860000988E+04  0.10860000988E+04  0.00000000000E+00 0. -1.
          2    1    1    2  501    0 -0.21258022552E+02  0.34668070232E+02  0.32936697696E+02  0.52331679426E+02  0.00000000000E+00 0.  1.
          1    1    1    2  502    0  0.63086756408E+02 -0.74500325350E+02 -0.10229046611E+04  0.10275525208E+04  0.00000000000E+00 0. -1.
         22    1    1    2    0    0 -0.12093158029E+01  0.49383010181E+02 -0.32692666417E+02  0.59236429473E+02  0.00000000000E+00 0. -1.
         22    1    1    2    0    0 -0.40619418054E+02 -0.95507550631E+01  0.80083045147E+02  0.90301983175E+02  0.00000000000E+00 0. -1.
</event>
<event>
 6    1  0.3624778E-005  0.5758484E+03  0.7818608E-02  0.1085786E+00
          2   -1    0    0  502    0  0.00000000000E+00  0.00000000000E+00  0.90395225301E+03  0.90395225301E+03  0.00000000000E+00 0.  1.
          1   -1    0    0  501    0 -0.00000000000E+00 -0.00000000000E+00 -0.14214467050E+03  0.14214467050E+03  0.00000000000E+00 0.  1.
          2    1    1    2  501    0  0.24228830398E+03 -0.11747983263E+03  0.13706534961E+03  0.30214573203E+03  0.00000000000E+00 0.  1.
          1    1    1    2  502    0  0.19251032572E+02  0.11643021745E+02 -0.19828905395E+02  0.29989126356E+02  0.00000000000E+00 0.  1.
         22    1    1    2    0    0 -0.24595874083E+03  0.67127781607E+02  0.47242264523E+03  0.53682864769E+03  0.00000000000E+00 0.  1.
         22    1    1    2    0    0 -0.15580595719E+02  0.38709029277E+02  0.17214849307E+03  0.17713341745E+03  0.00000000000E+00 0. -1.
</event>
<event>
 6    1  0.3624778E-005  0.1057281E+03  0.7818608E-02  0.1340643E+00
          2   -1    0    0  502    0  0.00000000000E+00  0.00000000000E+00  0.14369464721E+03  0.14369464721E+03  0.00000000000E+00 0.  1.
          1   -1    0    0  501    0 -0.00000000000E+00 -0.00000000000E+00 -0.38692977497E+03  0.38692977497E+03  0.00000000000E+00 0.  1.
          2    1    1    2  501    0 -0.49617633216E+02 -0.84860318750E+01 -0.73106837279E+02  0.88761094630E+02  0.00000000000E+00 0.  1.
          1    1    1    2  502    0 -0.19203425870E+02  0.17868411508E+02 -0.26662723337E+03  0.26791441407E+03  0.00000000000E+00 0.  1.
         22    1    1    2    0    0  0.25195528952E+02  0.13166151598E+02  0.11724209481E+03  0.12063942565E+03  0.00000000000E+00 0.  1.
         22    1    1    2    0    0  0.43625530134E+02 -0.22548531231E+02 -0.20743151926E+02  0.53309487823E+02  0.00000000000E+00 0.  1.
</event>
<event>
 6    1  0.3624778E-005  0.3329016E+03  0.7818608E-02  0.1186498E+00
          2   -1    0    0  502    0  0.00000000000E+00  0.00000000000E+00  0.28780470744E+03  0.28780470744E+03  0.00000000000E+00 0. -1.
          1   -1    0    0  501    0 -0.00000000000E+00 -0.00000000000E+00 -0.47806011191E+03  0.47806011191E+03  0.00000000000E+00 0. -1.
          2    1    1    2  501    0 -0.16971988449E+03 -0.52659321341E+02 -0.32831094734E+02  0.18070894858E+03  0.00000000000E+00 0. -1.
          1    1    1    2  502    0  0.30255456676E+03  0.10472731356E+03 -0.21888486255E+03  0.38783715543E+03  0.00000000000E+00 0. -1.
         22    1    1    2    0    0 -0.14594502688E+03 -0.65334451271E+02  0.32969015283E+02  0.16326511374E+03  0.00000000000E+00 0. -1.
         22    1    1    2    0    0  0.13110344613E+02  0.13266459051E+02  0.28491537533E+02  0.34053601610E+02  0.00000000000E+00 0. -1.
</event>
<event>
 6    1  0.3624778E-005  0.1761111E+03  0.7818608E-02  0.1222474E+00
          2   -1    0    0  502    0  0.00000000000E+00  0.00000000000E+00  0.19264612426E+02  0.19264612426E+02  0.00000000000E+00 0. -1.
          1   -1    0    0  501    0 -0.00000000000E+00 -0.00000000000E+00 -0.17713481799E+04  0.17713481799E+04  0.00000000000E+00 0.  1.
          2    1    1    2  501    0 -0.33112928405E+02 -0.98010824878E+01 -0.48003965387E+03  0.48128016428E+03  0.00000000000E+00 0. -1.
          1    1    1    2  502    0 -0.24118181009E+02 -0.78226352576E+01 -0.10323179270E+04  0.10326292571E+04  0.00000000000E+00 0.  1.
         22    1    1    2    0    0  0.60006881194E+02 -0.22218124539E+02 -0.22534644630E+03  0.23425518502E+03  0.00000000000E+00 0. -1.
         22    1    1    2    0    0 -0.27757717797E+01  0.39841842284E+02 -0.14379540296E+02  0.42448185882E+02  0.00000000000E+00 0. -1.
</event>
<event>
 6    1  0.3624778E-005  0.8810370E+02  0.7818608E-02  0.1312067E+00
          2   -1    0    0  502    0  0.00000000000E+00  0.00000000000E+00  0.24363884388E+03  0.24363884388E+03  0.00000000000E+00 0.  1.
          1   -1    0    0  501    0 -0.00000000000E+00 -0.00000000000E+00 -0.10710615312E+03  0.10710615312E+03  0.00000000000E+00 0. -1.
          2    1    1    2  501    0  0.12481821354E+02 -0.32237083154E+02 -0.33597278524E+01  0.34732019317E+02  0.00000000000E+00 0.  1.
          1    1    1    2  502    0  0.35770081651E+02  0.29890767924E+02 -0.58267806312E+02  0.74619662293E+02  0.00000000000E+00 0. -1.
         22    1    1    2    0    0  0.29291775837E+02 -0.33613437240E+02  0.33150724410E+02  0.55559354061E+02  0.00000000000E+00 0. -1.
         22    1    1    2    0    0 -0.77543678842E+02  0.35959752471E+02  0.16500950051E+03  0.18583396133E+03  0.00000000000E+00 0.  1.
</event>
<event>
 6    1  0.3624778E-005  0.3958119E+03  0.7818608E-02  0.1158056E+00
          2   -1    0    0  502    0  0.00000000000E+00  0.00000000000E+00  0.20206633880E+03  0.20206633880E+03  0.00000000000E+00 0. -1.
          1   -1    0    0  501    0 -0.00000000000E+00 -0.00000000000E+00 -0.10981383013E+04  0.10981383013E+04  0.00000000000E+00 0. -1.
          2    1    1    2  501    0  0.33152416605E+03 -0.73063338567E+01 -0.13989968717E+03  0.35990773492E+03  0.00000000000E+00 0. -1.
          1    1    1    2  502    0 -0.32334332266E+03  0.71884349739E+02 -0.72044835461E+03  0.79294646459E+03  0.00000000000E+00 0. -1.
         22    1    1    2    0    0  0.12500262502E+02 -0.69311796343E+02 -0.74891302285E+02  0.10280607391E+03  0.00000000000E+00 0.  1.
         22    1    1    2    0    0 -0.20681105892E+02  0.47337804603E+01  0.39167381597E+02  0.44544366642E+02  0.00000000000E+00 0. -1.
</event>
<event>
 6    1  0.3624778E-005  0.1975984E+03  0.7818608E-02  0.1189105E+00
          2   -1    0    0  502    0  0.00000000000E+00  0.00000000000E+00  0.38262427683E+02  0.38262427683E+02  0.00000000000E+00 0. -1.
          1   -1    0    0  501    0 -0.00000000000E+00 -0.00000000000E+00 -0.17321809669E+04  0.17321809669E+04  0.00000000000E+00 0. -1.
          2    1    1    2  501    0  0.57859816811E+02 -0.37527704579E+02 -0.56386800043E+03  0.56806972188E+03  0.00000000000E+00 0. -1.
          1    1    1    2  502    0  0.99743600582E+02  0.10107038061E+03 -0.79459009067E+03  0.80717867903E+03  0.00000000000E+00 0. -1.
         22    1    1    2    0    0 -0.69237388073E+02 -0.47878155013E+02 -0.54577751572E+02  0.10032379878E+03  0.00000000000E+00 0. -1.
         22    1    1    2    0    0 -0.88366029319E+02 -0.15664521022E+02 -0.28088269657E+03  0.29487119491E+03  0.00000000000E+00 0. -1.
</event>
<event>
 6    1  0.3624778E-005  0.1348184E+03  0.7818608E-02  0.1289150E+00
          2   -1    0    0  502    0  0.00000000000E+00  0.00000000000E+00  0.16252399950E+03  0.16252399950E+03  0.00000000000E+00 0.  1.
          1   -1    0    0  501    0 -0.00000000000E+00 -0.00000000000E+00 -0.16178663386E+04  0.16178663386E+04  0.00000000000E+00 0.  1.
          2    1    1    2  501    0 -0.47800155762E+02 -0.77068155123E+02 -0.60574555421E+02  0.10905793043E+03  0.00000000000E+00 0.  1.
          1    1    1    2  502    0  0.10892905227E+03  0.74268198023E+02 -0.14953236626E+04  0.15011242985E+04  0.00000000000E+00 0.  1.
         22    1    1    2    0    0 -0.26446772062E+02  0.22192430124E+02  0.12078312148E+03  0.12562045272E+03  0.00000000000E+00 0.  1.
         22    1    1    2    0    0 -0.34682124443E+02 -0.19392473023E+02 -0.20227242552E+02  0.44587656443E+02  0.00000000000E+00 0. -1.
</event>
<event>
 6    1  0.3624778E-005  0.1356981E+03  0.7818608E-02  0.1325127E+00
          2   -1    0    0  502    0  0.00000000000E+00  0.00000000000E+00  0.16489722896E+03  0.16489722896E+03  0.00000000000E+00 0. -1.
          1   -1    0    0  501    0 -0.00000000000E+00 -0.00000000000E+00 -0.62833586168E+03  0.62833586168E+03  0.00000000000E+00 0.  1.
          2    1    1    2  501    0 -0.44267378650E+02  0.10021594988E+02  0.89059943992E+01  0.46253107084E+02  0.00000000000E+00 0. -1.
          1    1    1    2  502    0  0.89693561611E+02 -0.86890017915E+02 -0.55763308494E+03  0.57144506965E+03  0.00000000000E+00 0.  1.
         22    1    1    2    0    0 -0.60073939351E+02  0.86570747798E+02  0.19144887328E+02  0.10709761563E+03  0.00000000000E+00 0. -1.
         22    1    1    2    0    0  0.14647756390E+02 -0.97023248720E+01  0.66143570503E+02  0.68437298267E+02  0.00000000000E+00 0.  1.
</event>
<event>
 6    1  0.3624778E-005  0.6905372E+02  0.7818608E-02  0.1412719E+00
          2   -1    0    0  502    0  0.00000000000E+00  0.00000000000E+00  0.14739639038E+03  0.14739639038E+03  0.00000000000E+00 0.  1.
          1   -1    0    0  501    0 -0.00000000000E+00 -0.00000000000E+00 -0.19925569362E+03  0.19925569362E+03  0.00000000000E+00 0.  1.
          2    1    1    2  501    0  0.48219784131E+02 -0.13073224790E+02 -0.49641511835E+02  0.70429656291E+02  0.00000000000E+00 0.  1.
          1    1    1    2  502    0 -0.20146070726E+02  0.24823941296E+02 -0.10749452191E+03  0.11214795793E+03  0.00000000000E+00 0.  1.
         22    1    1    2    0    0 -0.65639044535E+01 -0.34280624162E+02 -0.16335133637E+02  0.38536769786E+02  0.00000000000E+00 0.  1.
         22    1    1    2    0    0 -0.21509808951E+02  0.22529907655E+02  0.12161186414E+03  0.12553770000E+03  0.00000000000E+00 0.  1.
</event>
<event>
 6    1  0.3624778E-005  0.9435750E+02  0.7818608E-02  0.1349435E+00
          2   -1    0    0  502    0  0.00000000000E+00  0.00000000000E+00  0.60187211598E+02  0.60187211598E+02  0.00000000000E+00 0.  1.
          1   -1    0    0  501    0 -0.00000000000E+00 -0.00000000000E+00 -0.19102684696E+04  0.19102684696E+04  0.00000000000E+00 0.  1.
          2    1    1    2  501    0 -0.16568791221E+01 -0.60500750548E+02 -0.23841905469E+03  0.24598116128E+03  0.00000000000E+00 0.  1.
          1    1    1    2  502    0 -0.26860752682E+01  0.65658093667E+02 -0.15955308344E+04  0.15968834784E+04  0.00000000000E+00 0.  1.
         22    1    1    2    0    0  0.33668016756E+02 -0.22824122353E+02 -0.59663480058E+02  0.72209464519E+02  0.00000000000E+00 0.  1.
         22    1    1    2    0    0 -0.29325062365E+02  0.17666779234E+02  0.43532111106E+02  0.55381576978E+02  0.00000000000E+00 0.  1.
</event>
<event>
 6    1  0.3624778E-005  0.1101059E+03  0.7818608E-02  0.1285888E+00
          2   -1    0    0  502    0  0.00000000000E+00  0.00000000000E+00  0.41552005105E+03  0.41552005105E+03  0.00000000000E+00 0.  1.
          1   -1    0    0  501    0 -0.00000000000E+00 -0.00000000000E+00 -0.28229986102E+03  0.28229986102E+03  0.00000000000E+00 0.  1.
          2    1    1    2  501    0  0.93180087285E+02 -0.38313319130E+02  0.11979403326E+02  0.10145908137E+03  0.00000000000E+00 0.  1.
          1    1    1    2  502    0 -0.37759342516E+02  0.47542063047E+02 -0.21966307120E+03  0.22789883842E+03  0.00000000000E+00 0.  1.
         22    1    1    2    0    0 -0.53869033847E+02  0.34748899148E+02  0.30501271426E+03  0.31167629788E+03  0.00000000000E+00 0.  1.
         22    1    1    2    0    0 -0.15517109223E+01 -0.43977643065E+02  0.35891143638E+02  0.56785694395E+02  0.00000000000E+00 0.  1.
</event>
<event>
 6    1  0.3624778E-005  0.6538163E+02  0.7818608E-02  0.1380921E+00
          2   -1    0    0  502    0  0.00000000000E+00  0.00000000000E+00  0.14356470911E+03  0.14356470911E+03  0.00000000000E+00 0.  1.
          1   -1    0    0  501    0 -0.00000000000E+00 -0.00000000000E+00 -0.17120809876E+03  0.17120809876E+03  0.00000000000E+00 0.  1.
          2    1    1    2  501    0  0.80122004817E+01  0.19807186976E+02  0.21704610053E+02  0.30456692369E+02  0.00000000000E+00 0.  1.
          1    1    1    2  502    0  0.20639667776E+02 -0.78123520645E+01 -0.12798626632E+03  0.12987499027E+03  0.00000000000E+00 0.  1.
         22    1    1    2    0    0  0.35281919828E+02  0.19420099775E+02  0.72509126202E+02  0.82942917266E+02  0.00000000000E+00 0.  1.
         22    1    1    2    0    0 -0.63933788086E+02 -0.31414934687E+02  0.61291404093E+01  0.71498207967E+02  0.00000000000E+00 0.  1.
</event>
<event>
 6    1  0.3624778E-005  0.2076993E+03  0.7818608E-02  0.1199645E+00
          2   -1    0    0  502    0  0.00000000000E+00  0.00000000000E+00  0.86856824696E+02  0.86856824696E+02  0.00000000000E+00 0. -1.
          1   -1    0    0  501    0 -0.00000000000E+00 -0.00000000000E+00 -0.64525150902E+03  0.64525150902E+03  0.00000000000E+00 0. -1.
          2    1    1    2  501    0  0.10152682639E+03  0.12866090224E+03 -0.18303282819E+03  0.24568748531E+03  0.00000000000E+00 0. -1.
          1    1    1    2  502    0 -0.10535370439E+03 -0.15174449607E+03 -0.22083150482E+03  0.28791031353E+03  0.00000000000E+00 0. -1.
         22    1    1    2    0    0  0.61304634316E+02  0.20727724807E+02 -0.62417010095E+02  0.89909843252E+02  0.00000000000E+00 0.  1.
         22    1    1    2    0    0 -0.57477756315E+02  0.23558690196E+01 -0.92113341221E+02  0.10860069162E+03  0.00000000000E+00 0. -1.
</event>
<event>
 6    1  0.3624778E-005  0.1715514E+03  0.7818608E-02  0.1242099E+00
          2   -1    0    0  502    0  0.00000000000E+00  0.00000000000E+00  0.11165634938E+03  0.11165634938E+03  0.00000000000E+00 0.  1.
          1   -1    0    0  501    0 -0.00000000000E+00 -0.00000000000E+00 -0.81118722910E+03  0.81118722910E+03  0.00000000000E+00 0. -1.
          2    1    1    2  501    0 -0.40720604892E+02  0.65935437673E+02 -0.62579144651E+02  0.99608227316E+02  0.00000000000E+00 0.  1.
          1    1    1    2  502    0  0.23382612587E+02  0.54586149233E+01 -0.67650626144E+03  0.67693224537E+03  0.00000000000E+00 0. -1.
         22    1    1    2    0    0  0.58358202714E+02 -0.57193630795E+02 -0.77761539745E+01  0.82080812607E+02  0.00000000000E+00 0.  1.
         22    1    1    2    0    0 -0.41020210409E+02 -0.14200421801E+02  0.47330680348E+02  0.64222293197E+02  0.00000000000E+00 0.  1.
</event>
<event>
 6    1  0.3624778E-005  0.4982603E+03  0.7818608E-02  0.1104395E+00
          2   -1    0    0  502    0  0.00000000000E+00  0.00000000000E+00  0.95007575916E+03  0.95007575916E+03  0.00000000000E+00 0.  1.
          1   -1    0    0  501    0 -0.00000000000E+00 -0.00000000000E+00 -0.45825561416E+03  0.45825561416E+03  0.00000000000E+00 0.  1.
          2    1    1    2  501    0  0.25013320441E+03 -0.33717516392E+02  0.30699034549E+03  0.39742491503E+03  0.00000000000E+00 0.  1.
          1    1    1    2  502    0 -0.57747885535E+01  0.23825068088E+02 -0.38151486738E+03  0.38230168203E+03  0.00000000000E+00 0.  1.
         22    1    1    2    0    0 -0.22664679249E+03  0.46809967908E+02  0.49256503464E+03  0.54422445277E+03  0.00000000000E+00 0.  1.
         22    1    1    2    0    0 -0.17711623370E+02 -0.36917519604E+02  0.73779632248E+02  0.84380323482E+02  0.00000000000E+00 0. -1.
</event>
<event>
 6    1  0.3624778E-005  0.1981205E+03  0.7818608E-02  0.1271614E+00
          2   -1    0    0  502    0  0.00000000000E+00  0.00000000000E+00  0.94979952702E+02  0.94979952702E+02  0.00000000000E+00 0.  1.
          1   -1    0    0  501    0 -0.00000000000E+00 -0.00000000000E+00 -0.28051485676E+03  0.28051485676E+03  0.00000000000E+00 0.  1.
          2    1    1    2  501    0 -0.40920672353E+02 -0.74587505956E+02 -0.73600973225E+02  0.11249400309E+03  0.00000000000E+00 0.  1.
          1    1    1    2  502    0  0.29818023367E+02 -0.50776566141E+02 -0.39691069968E+02  0.71012359641E+02  0.00000000000E+00 0.  1.
         22    1    1    2    0    0  0.81756472821E+00  0.15163733988E+02  0.34828018018E+02  0.37994711206E+02  0.00000000000E+00 0.  1.
         22    1    1    2    0    0  0.10285084258E+02  0.11020033811E+03 -0.10707087888E+03  0.15399373553E+03  0.00000000000E+00 0.  1.
</event>
<event>
 6    1  0.3624778E-005  0.1504299E+03  0.7818608E-02  0.1239636E+00
          2   -1    0    0  502    0  0.00000000000E+00  0.00000000000E+00  0.76070902030E+03  0.76070902030E+03  0.00000000000E+00 0. -1.
          1   -1    0    0  501    0 -0.00000000000E+00 -0.00000000000E+00 -0.81710347831E+02  0.81710347831E+02  0.00000000000E+00 0. -1.
          2    1    1    2  501    0 -0.84995913652E+02  0.61657476786E+02  0.47021056164E+02  0.11505185572E+03  0.00000000000E+00 0. -1.
          1    1    1    2  502    0  0.14012703266E+03 -0.37172521576E+02  0.53976091595E+03  0.55889106991E+03  0.00000000000E+00 0. -1.
         22    1    1    2    0    0 -0.39288672491E+02 -0.52208752155E+02  0.11289103429E+03  0.13043672493E+03  0.00000000000E+00 0.  1.
         22    1    1    2    0    0 -0.15842446519E+02  0.27723796945E+02 -0.20674333937E+02  0.38039717566E+02  0.00000000000E+00 0. -1.
</event>
<event>
 6    1  0.3624778E-005  0.6105874E+02  0.7818608E-02  0.1400434E+00
          2   -1    0    0  502    0  0.00000000000E+00  0.00000000000E+00  0.28300568265E+03  0.28300568265E+03  0.00000000000E+00 0. -1.
          1   -1    0    0  501    0 -0.00000000000E+00 -0.00000000000E+00 -0.18414816985E+03  0.18414816985E+03  0.00000000000E+00 0.  1.
          2    1    1    2  501    0 -0.31404098075E+02  0.47020790302E+02 -0.27345881281E+02  0.62808990755E+02  0.00000000000E+00 0. -1.
          1    1    1    2  502    0  0.13875091749E+02 -0.20823331384E+02 -0.12159480830E+03  0.12414276744E+03  0.00000000000E+00 0.  1.
         22    1    1    2    0    0  0.94168406879E+00  0.24683198555E+02 -0.19561506823E+01  0.24778490376E+02  0.00000000000E+00 0. -1.
         22    1    1    2    0    0  0.16587322257E+02 -0.50880657473E+02  0.24975435307E+03  0.25542360393E+03  0.00000000000E+00 0. -1.
</event>
<event>
 6    1  0.3624778E-005  0.1511404E+03  0.7818608E-02  0.1200009E+00
          2   -1    0    0  502    0  0.00000000000E+00  0.00000000000E+00  0.55501790955E+03  0.55501790955E+03  0.00000000000E+00 0.  1.
          1   -1    0    0  501    0 -0.00000000000E+00 -0.00000000000E+00 -0.21407146550E+03  0.21407146550E+03  0.00000000000E+00 0.  1.
          2    1    1    2  501    0 -0.11283331519E+03  0.74742077131E+02  0.31631530007E+03  0.34405392626E+03  0.00000000000E+00 0.  1.
          1    1    1    2  502    0  0.24068551709E+02  0.99830889880E+01 -0.16532359372E+03  0.16736441643E+03  0.00000000000E+00 0.  1.
         22    1    1    2    0    0 -0.16486566731E+02  0.64098406843E+01  0.75190158998E+02  0.77242818115E+02  0.00000000000E+00 0.  1.
         22    1    1    2    0    0  0.10525133021E+03 -0.91135006804E+02  0.11476457869E+03  0.18042821426E+03  0.00000000000E+00 0.  1.
</event>
<event>
 6    1  0.3624778E-005  0.5047542E+02  0.7818608E-02  0.1538338E+00
          2   -1    0    0  502    0  0.00000000000E+00  0.00000000000E+00  0.83798255977E+02  0.83798255977E+02  0.00000000000E+00 0. -1.
          1   -1    0    0  501    0 -0.00000000000E+00 -0.00000000000E+00 -0.25084689156E+03  0.25084689156E+03  0.00000000000E+00 0. -1.
          2    1    1    2  501    0 -0.24086225270E+02  0.21821566838E+02 -0.17418076147E+03  0.17718708952E+03  0.00000000000E+00 0. -1.
          1    1    1    2  502    0  0.28681004163E+02 -0.22246469456E+02 -0.27768655431E+01  0.36403521605E+02  0.00000000000E+00 0. -1.
         22    1    1    2    0    0  0.12851718930E+02 -0.35338663227E+01  0.63330068936E+02  0.64717482353E+02  0.00000000000E+00 0. -1.
         22    1    1    2    0    0 -0.17446497823E+02  0.39587689407E+01 -0.53421077508E+02  0.56337054058E+02  0.00000000000E+00 0. -1.
</event>
<event>
 6    1  0.3624778E-005  0.1614695E+03  0.7818608E-02  0.1209588E+00
          2   -1    0    0  502    0  0.00000000000E+00  0.00000000000E+00  0.48101898161E+03  0.48101898161E+03  0.00000000000E+00 0. -1.
          1   -1    0    0  501    0 -0.00000000000E+00 -0.00000000000E+00 -0.10117093032E+03  0.10117093032E+03  0.00000000000E+00 0.  1.
          2    1    1    2  501    0  0.16114561818E+02 -0.85612866890E+02  0.32818721031E+01  0.87178052079E+02  0.00000000000E+00 0. -1.
          1    1    1    2  502    0  0.31385220470E+01  0.35563211892E+02 -0.41795369627E+02  0.54967674892E+02  0.00000000000E+00 0.  1.
         22    1    1    2    0    0 -0.29336595202E+01 -0.42418230600E+02  0.13301721782E+03  0.13964774571E+03  0.00000000000E+00 0.  1.
         22    1    1    2    0    0 -0.16319424345E+02  0.92467885598E+02  0.28534433100E+03  0.30039643925E+03  0.00000000000E+00 0. -1.
</event>
<event>
 6    1  0.3624778E-005  0.1871643E+03  0.7818608E-02  0.1172760E+00
          2   -1    0    0  502    0  0.00000000000E+00  0.00000000000E+00  0.10291215525E+04  0.10291215525E+04  0.00000000000E+00 0. -1.
          1   -1    0    0  501    0 -0.00000000000E+00 -0.00000000000E+00 -0.20185985872E+03  0.20185985872E+03  0.00000000000E+00 0. -1.
          2    1    1    2  501    0 -0.15114614950E+03 -0.15521368663E+03  0.64250492289E+02  0.22597471714E+03  0.00000000000E+00 0. -1.
          1    1    1    2  502    0  0.53184799635E+02  0.85455636451E+02 -0.89357893477E+02  0.13459614348E+03  0.00000000000E+00 0. -1.
         22    1    1    2    0    0  0.12290319537E+03  0.61295594741E+02  0.80093564176E+03  0.81262552729E+03  0.00000000000E+00 0. -1.
         22    1    1    2    0    0 -0.24941845504E+02  0.84624554347E+01  0.51433453203E+02  0.57785023297E+02  0.00000000000E+00 0.  1.
</event>
<event>
 6    1  0.3624778E-005  0.9005563E+02  0.7818608E-02  0.1375985E+00
          2   -1    0    0  502    0  0.00000000000E+00  0.00000000000E+00  0.17798328656E+03  0.17798328656E+03  0.00000000000E+00 0. -1.
          1   -1    0    0  501    0 -0.00000000000E+00 -0.00000000000E+00 -0.40593757463E+03  0.40593757463E+03  0.00000000000E+00 0. -1.
          2    1    1    2  501    0  0.19067114850E+02  0.19629592402E+02 -0.26891475948E+02  0.38367007249E+02  0.00000000000E+00 0. -1.
          1    1    1    2  502    0 -0.63856920870E+02  0.34336117055E+01 -0.34274497686E+03  0.34865974129E+03  0.00000000000E+00 0. -1.
         22    1    1    2    0    0 -0.20801001947E+02 -0.14312922657E+02  0.12650998966E+03  0.12900511199E+03  0.00000000000E+00 0. -1.
         22    1    1    2    0    0  0.65590807968E+02 -0.87502814500E+01  0.15172175082E+02  0.67889000670E+02  0.00000000000E+00 0. -1.
</event>
<event>
 6    1  0.3624778E-005  0.1392777E+03  0.7818608E-02  0.1264018E+00
          2   -1    0    0  502    0  0.00000000000E+00  0.00000000000E+00  0.42268607252E+02  0.42268607252E+02  0.00000000000E+00 0. -1.
          1   -1    0    0  501    0 -0.00000000000E+00 -0.00000000000E+00 -0.42488507419E+03  0.42488507419E+03  0.00000000000E+00 0. -1.
          2    1    1    2  501    0  0.68204095961E+02 -0.55135284442E+02 -0.20627387942E+03  0.22414417598E+03  0.00000000000E+00 0. -1.
          1    1    1    2  502    0 -0.22527000927E+02  0.14202644979E+02 -0.20722080725E+02  0.33742932960E+02  0.00000000000E+00 0. -1.
         22    1    1    2    0    0 -0.56315657843E+02 -0.78806064691E+01 -0.14823099648E+03  0.15876393040E+03  0.00000000000E+00 0. -1.
         22    1    1    2    0    0  0.10638562809E+02  0.48813245932E+02 -0.73895103143E+01  0.50502642106E+02  0.00000000000E+00 0. -1.
</event>
<event>
 6    1  0.3624778E-005  0.7635012E+02  0.7818608E-02  0.1428264E+00
          2   -1    0    0  502    0  0.00000000000E+00  0.00000000000E+00  0.76639608658E+02  0.76639608658E+02  0.00000000000E+00 0. -1.
          1   -1    0    0  501    0 -0.00000000000E+00 -0.00000000000E+00 -0.62575351214E+03  0.62575351214E+03  0.00000000000E+00 0. -1.
          2    1    1    2  501    0 -0.82449030318E+01  0.47990091746E+02 -0.32773480716E+02  0.58695215904E+02  0.00000000000E+00 0. -1.
          1    1    1    2  502    0  0.10022322242E+02 -0.66961934997E+02 -0.51175673610E+03  0.51621633510E+03  0.00000000000E+00 0. -1.
         22    1    1    2    0    0  0.72595076565E+01  0.34708875994E+02 -0.59709732139E+02  0.69445364398E+02  0.00000000000E+00 0. -1.
         22    1    1    2    0    0 -0.90369268664E+01 -0.15737032743E+02  0.55126045475E+02  0.58036205393E+02  0.00000000000E+00 0. -1.
</event>
<event>
 6    1  0.3624778E-005  0.2123882E+03  0.7818608E-02  0.1234970E+00
          2   -1    0    0  502    0  0.00000000000E+00  0.00000000000E+00  0.76972717100E+03  0.76972717100E+03  0.00000000000E+00 0. -1.
          1   -1    0    0  501    0 -0.00000000000E+00 -0.00000000000E+00 -0.54691995061E+03  0.54691995061E+03  0.00000000000E+00 0.  1.
          2    1    1    2  501    0 -0.23094899163E+02  0.19442898169E+02  0.18257088040E+03  0.18505006627E+03  0.00000000000E+00 0. -1.
          1    1    1    2  502    0  0.14645860689E+03 -0.13771700364E+03 -0.50722700703E+03  0.54561463807E+03  0.00000000000E+00 0.  1.
         22    1    1    2    0    0 -0.11271660946E+03  0.14148349831E+03  0.44447396913E+03  0.47987469571E+03  0.00000000000E+00 0. -1.
         22    1    1    2    0    0 -0.10647098266E+02 -0.23209392838E+02  0.10298937788E+03  0.10610772156E+03  0.00000000000E+00 0.  1.
</event>
<event>
 6    1  0.3624778E-005  0.2266169E+03  0.7818608E-02  0.1168798E+00
          2   -1    0    0  502    0  0.00000000000E+00  0.00000000000E+00  0.99220934900E+02  0.99220934900E+02  0.00000000000E+00 0. -1.
          1   -1    0    0  501    0 -0.00000000000E+00 -0.00000000000E+00 -0.73300067006E+03  0.73300067006E+03  0.00000000000E+00 0. -1.
          2    1    1    2  501    0 -0.13848412982E+03 -0.13927284269E+03 -0.16361423269E+03  0.25562549963E+03  0.00000000000E+00 0. -1.
          1    1    1    2  502    0  0.15883652779E+03  0.38531451516E+02 -0.30039026965E+03  0.34197665040E+03  0.00000000000E+00 0. -1.
         22    1    1    2    0    0 -0.58735132068E+02  0.21368501217E+02 -0.11481817295E+03  0.13072735530E+03  0.00000000000E+00 0. -1.
         22    1    1    2    0    0  0.38382734095E+02  0.79372889962E+02 -0.54957059875E+02  0.10389209964E+03  0.00000000000E+00 0.  1.
</event>
<event>
 6    1  0.3624778E-005  0.1046667E+03  0.7818608E-02  0.1389850E+00
          2   -1    0    0  502    0  0.00000000000E+00  0.00000000000E+00  0.36599184886E+02  0.36599184886E+02  0.00000000000E+00 0. -1.
          1   -1    0    0  501    0 -0.00000000000E+00 -0.00000000000E+00 -0.61591838139E+03  0.61591838139E+03  0.00000000000E+00 0. -1.
          2    1    1    2  501    0  0.23262541415E+02  0.15486396610E+02 -0.22623033454E+03  0.22794985979E+03  0.00000000000E+00 0. -1.
          1    1    1    2  502    0 -0.30505881453E+02  0.56099398610E+02 -0.22784998215E+03  0.23662917337E+03  0.00000000000E+00 0. -1.
         22    1    1    2    0    0 -0.48650720308E+01 -0.11882837688E+02  0.23737723744E+02  0.26987965575E+02  0.00000000000E+00 0.  1.
         22    1    1    2    0    0  0.12108412069E+02 -0.59702957532E+02 -0.14897660356E+03  0.16095056753E+03  0.00000000000E+00 0. -1.
</event>
<event>
 6    1  0.3624778E-005  0.2042278E+03  0.7818608E-02  0.1175643E+00
          2   -1    0    0  502    0  0.00000000000E+00  0.00000000000E+00  0.22395877483E+03  0.22395877483E+03  0.00000000000E+00 0. -1.
          1   -1    0    0  501    0 -0.00000000000E+00 -0.00000000000E+00 -0.42487218713E+03  0.42487218713E+03  0.00000000000E+00 0. -1.
          2    1    1    2  501    0  0.18041418336E+02 -0.12594222385E+03 -0.88463540027E+02  0.15496042862E+03  0.00000000000E+00 0. -1.
          1    1    1    2  502    0 -0.14681625278E+02  0.15358223051E+02 -0.26701881011E+03  0.26786278220E+03  0.00000000000E+00 0. -1.
         22    1    1    2    0    0 -0.52245103326E+02  0.20722902778E+02  0.26615785785E+02  0.62188339534E+02  0.00000000000E+00 0. -1.
         22    1    1    2    0    0  0.48885310268E+02  0.89861098023E+02  0.12795315205E+03  0.16381941160E+03  0.00000000000E+00 0. -1.
</event>
<event>
 6    1  0.3624778E-005  0.6976927E+02  0.7818608E-02  0.1403239E+00
          2   -1    0    0  502    0  0.00000000000E+00  0.00000000000E+00  0.57635682557E+02  0.57635682557E+02  0.00000000000E+00 0. -1.
          1   -1    0    0  501    0 -0.00000000000E+00 -0.00000000000E+00 -0.22483157337E+04  0.22483157337E+04  0.00000000000E+00 0. -1.
          2    1    1    2  501    0  0.77280345492E+02  0.24379508605E+02 -0.63906895131E+03  0.64418610414E+03  0.00000000000E+00 0. -1.
          1    1    1    2  502    0 -0.62224212261E+02  0.20146186917E+01 -0.15299445487E+04  0.15312107083E+04  0.00000000000E+00 0. -1.
         22    1    1    2    0    0  0.11345935165E+02 -0.33699503160E+01 -0.69926268125E+02  0.70920869875E+02  0.00000000000E+00 0.  1.
         22    1    1    2    0    0 -0.26402068397E+02 -0.23024176981E+02  0.48259716955E+02  0.59633733926E+02  0.00000000000E+00 0. -1.
</event>
<event>
 6    1  0.3624778E-005  0.7284757E+02  0.7818608E-02  0.1379176E+00
          2   -1    0    0  502    0  0.00000000000E+00  0.00000000000E+00  0.94114834913E+02  0.94114834913E+02  0.00000000000E+00 0. -1.
          1   -1    0    0  501    0 -0.00000000000E+00 -0.00000000000E+00 -0.25831216328E+04  0.25831216328E+04  0.00000000000E+00 0.  1.
          2    1    1    2  501    0 -0.46319666098E+02 -0.51480363441E+02 -0.76864929789E+02  0.10345992808E+03  0.00000000000E+00 0. -1.
          1    1    1    2  502    0 -0.58303981386E+01  0.42460649889E+02 -0.24357677226E+04  0.24361447614E+04  0.00000000000E+00 0.  1.
         22    1    1    2    0    0  0.38091285090E+02  0.23038838907E+02  0.72388966558E+02  0.84981742612E+02  0.00000000000E+00 0. -1.
         22    1    1    2    0    0  0.14058779147E+02 -0.14019125355E+02 -0.48763112056E+02  0.52650035557E+02  0.00000000000E+00 0. -1.
</event>
<event>
 6    1  0.3624778E-005  0.1471288E+03  0.7818608E-02  0.1206736E+00
          2   -1    0    0  502    0  0.00000000000E+00  0.00000000000E+00  0.81378061027E+03  0.81378061027E+03  0.00000000000E+00 0. -1.
          1   -1    0    0  501    0 -0.00000000000E+00 -0.00000000000E+00 -0.12821372158E+04  0.12821372158E+04  0.00000000000E+00 0.  1.
          2    1    1    2  501    0  0.16200790325E+03  0.34564162460E+02  0.22191597346E+03  0.27692587694E+03  0.00000000000E+00 0. -1.
          1    1    1    2  502    0 -0.58416398811E+02 -0.94702514785E+01 -0.12417858758E+04  0.12431952070E+04  0.00000000000E+00 0.  1.
         22    1    1    2    0    0  0.23199902738E+02 -0.13736231942E+02  0.37072850598E+02  0.45840111327E+02  0.00000000000E+00 0.  1.
         22    1    1    2    0    0 -0.12679140717E+03 -0.11357679039E+02  0.51444044624E+03  0.52995663081E+03  0.00000000000E+00 0. -1.
</event>
<event>
 6    1  0.3624778E-005  0.6560153E+02  0.7818608E-02  0.1453984E+00
          2   -1    0    0  502    0  0.00000000000E+00  0.00000000000E+00  0.11180346318E+03  0.11180346318E+03  0.00000000000E+00 0.  1.
          1   -1    0    0  501    0 -0.00000000000E+00 -0.00000000000E+00 -0.30821071137E+03  0.30821071137E+03  0.00000000000E+00 0.  1.
          2    1    1    2  501    0  0.16084609767E+02 -0.25858601760E+02 -0.24126140023E+02  0.38851674208E+02  0.00000000000E+00 0.  1.
          1    1    1    2  502    0 -0.58997210242E+02  0.28571892941E+02 -0.22933166704E+03  0.23851632521E+03  0.00000000000E+00 0.  1.
         22    1    1    2    0    0  0.25514524305E+02 -0.11497334388E+02 -0.37115824296E+02  0.46484019423E+02  0.00000000000E+00 0. -1.
         22    1    1    2    0    0  0.17398076170E+02  0.87840432063E+01  0.94166383174E+02  0.96162155704E+02  0.00000000000E+00 0.  1.
</event>
<event>
 6    1  0.3757911E-005  0.6238658E+02  0.7818608E-02  0.1451462E+00
          2   -1    0    0  502    0  0.00000000000E+00  0.00000000000E+00  0.49784385101E+02  0.49784385101E+02  0.00000000000E+00 0.  1.
          1   -1    0    0  501    0 -0.00000000000E+00 -0.00000000000E+00 -0.18185574909E+04  0.18185574909E+04  0.00000000000E+00 0.  1.
          2    1    1    2  501    0 -0.22368229465E+02  0.49364929126E+02 -0.84708171202E+03  0.84881367847E+03  0.00000000000E+00 0.  1.
          1    1    1    2  502    0  0.20421358000E+02 -0.41297774447E+02 -0.88790211883E+03  0.88909656993E+03  0.00000000000E+00 0.  1.
         22    1    1    2    0    0 -0.25855638517E+01  0.15007435779E+02 -0.78473503695E+02  0.79937469632E+02  0.00000000000E+00 0. -1.
         22    1    1    2    0    0  0.45324353168E+01 -0.23074590458E+02  0.44684228724E+02  0.50494157993E+02  0.00000000000E+00 0.  1.
</event>
<event>
 6    1  0.3624778E-005  0.8779829E+02  0.7818608E-02  0.1341000E+00
          2   -1    0    0  502    0  0.00000000000E+00  0.00000000000E+00  0.90579185399E+02  0.90579185399E+02  0.00000000000E+00 0.  1.
          1   -1    0    0  501    0 -0.00000000000E+00 -0.00000000000E+00 -0.90389676186E+03  0.90389676186E+03  0.00000000000E+00 0. -1.
          2    1    1    2  501    0  0.12253817666E+02 -0.22862157652E+02 -0.14945786910E+02  0.29936780827E+02  0.00000000000E+00 0.  1.
          1    1    1    2  502    0 -0.12427239955E+02 -0.22168661076E+02 -0.82537259592E+03  0.82576377247E+03  0.00000000000E+00 0. -1.
         22    1    1    2    0    0 -0.45785664999E+02 -0.10145457625E+02  0.44731780957E+02  0.64808870206E+02  0.00000000000E+00 0. -1.
         22    1    1    2    0    0  0.45959087287E+02  0.55176276354E+02 -0.17730974585E+02  0.73966523754E+02  0.00000000000E+00 0.  1.
</event>
<event>
 6    1  0.3624778E-005  0.1271612E+03  0.7818608E-02  0.1344464E+00
          2   -1    0    0  502    0  0.00000000000E+00  0.00000000000E+00  0.15176830897E+03  0.15176830897E+03  0.00000000000E+00 0.  1.
          1   -1    0    0  501    0 -0.00000000000E+00 -0.00000000000E+00 -0.43910266593E+03  0.43910266593E+03  0.00000000000E+00 0.  1.
          2    1    1    2  501    0 -0.24407011039E+01 -0.10911104271E+03 -0.30465995694E+03  0.32361839569E+03  0.00000000000E+00 0.  1.
          1    1    1    2  502    0 -0.75745842588E+01  0.13737374843E+03  0.16764301529E+02  0.13860001043E+03  0.00000000000E+00 0.  1.
         22    1    1    2    0    0  0.80538447000E+01 -0.13157768699E+02 -0.62192188234E+02  0.64076981584E+02  0.00000000000E+00 0. -1.
         22    1    1    2    0    0  0.19614406628E+01 -0.15104937016E+02  0.62753486685E+02  0.64575587205E+02  0.00000000000E+00 0.  1.
</event>
<event>
 6    1  0.3624778E-005  0.1022269E+03  0.7818608E-02  0.1290769E+00
          2   -1    0    0  502    0  0.00000000000E+00  0.00000000000E+00  0.19437864330E+03  0.19437864330E+03  0.00000000000E+00 0. -1.
          1   -1    0    0  501    0 -0.00000000000E+00 -0.00000000000E+00 -0.51601175391E+03  0.51601175391E+03  0.00000000000E+00 0. -1.
          2    1    1    2  501    0  0.70486507808E+01  0.40239450444E+02  0.76881132840E+00  0.40859367601E+02  0.00000000000E+00 0. -1.
          1    1    1    2  502    0 -0.50622670128E+02 -0.24622900733E+02 -0.46855377021E+03  0.47192327507E+03  0.00000000000E+00 0. -1.
         22    1    1    2    0    0  0.26091314038E+02 -0.66560804082E+02  0.49481185845E+02  0.86945299246E+02  0.00000000000E+00 0.  1.
         22    1    1    2    0    0  0.17482705309E+02  0.50944254372E+02  0.96670662426E+02  0.11066245530E+03  0.00000000000E+00 0. -1.
</event>
<event>
 6    1  0.3624778E-005  0.8234459E+02  0.7818608E-02  0.1357294E+00
          2   -1    0    0  502    0  0.00000000000E+00  0.00000000000E+00  0.12306278148E+03  0.12306278148E+03  0.00000000000E+00 0. -1.
          1   -1    0    0  501    0 -0.00000000000E+00 -0.00000000000E+00 -0.49355434831E+03  0.49355434831E+03  0.00000000000E+00 0.  1.
          2    1    1    2  501    0 -0.10655307919E+02 -0.20752493634E+02 -0.11266206630E+03  0.11505191333E+03  0.00000000000E+00 0. -1.
          1    1    1    2  502    0 -0.33253559353E+02 -0.26317774460E+02 -0.33938849174E+03  0.34202773687E+03  0.00000000000E+00 0.  1.
         22    1    1    2    0    0  0.10255409987E+02  0.44937908881E+02  0.10751819417E+03  0.11698184118E+03  0.00000000000E+00 0. -1.
         22    1    1    2    0    0  0.33653457285E+02  0.21323592129E+01 -0.25959202953E+02  0.42555638416E+02  0.00000000000E+00 0. -1.
</event>
<event>
 6    1  0.3624778E-005  0.4887808E+03  0.7818608E-02  0.1090326E+00
          2   -1    0    0  502    0  0.00000000000E+00  0.00000000000E+00  0.61150123656E+03  0.61150123656E+03  0.00000000000E+00 0. -1.
          1   -1    0    0  501    0 -0.00000000000E+00 -0.00000000000E+00 -0.98649678173E+03  0.98649678173E+03  0.00000000000E+00 0. -1.
          2    1    1    2  501    0  0.25549927208E+03  0.14284578471E+03  0.19107233924E+03  0.34956177575E+03  0.00000000000E+00 0. -1.
          1    1    1    2  502    0 -0.36762681570E+03 -0.31982920651E+03 -0.78320546333E+03  0.92241584697E+03  0.00000000000E+00 0. -1.
         22    1    1    2    0    0  0.24048289079E+02  0.55630264094E+02  0.14989795762E+03  0.16168625232E+03  0.00000000000E+00 0.  1.
         22    1    1    2    0    0  0.88079254542E+02  0.12135315771E+03  0.67239621301E+02  0.16433414325E+03  0.00000000000E+00 0. -1.
</event>
<event>
 6    1  0.3624778E-005  0.1118516E+03  0.7818608E-02  0.1311404E+00
          2   -1    0    0  502    0  0.00000000000E+00  0.00000000000E+00  0.11705596213E+03  0.11705596213E+03  0.00000000000E+00 0. -1.
          1   -1    0    0  501    0 -0.00000000000E+00 -0.00000000000E+00 -0.54534839920E+03  0.54534839920E+03  0.00000000000E+00 0. -1.
          2    1    1    2  501    0 -0.75897869372E+01  0.37794124707E+02 -0.56831875812E+02  0.68672140177E+02  0.00000000000E+00 0. -1.
          1    1    1    2  502    0  0.61054552031E+02 -0.10506587831E+03 -0.41826235315E+03  0.43555699188E+03  0.00000000000E+00 0. -1.
         22    1    1    2    0    0 -0.20457864860E+02  0.44469661359E+02 -0.39568774895E+02  0.62942536990E+02  0.00000000000E+00 0. -1.
         22    1    1    2    0    0 -0.33006900233E+02  0.22802092244E+02  0.86370566784E+02  0.95232692287E+02  0.00000000000E+00 0. -1.
</event>
<event>
 6    1  0.3624778E-005  0.8732083E+02  0.7818608E-02  0.1345826E+00
          2   -1    0    0  502    0  0.00000000000E+00  0.00000000000E+00  0.36204172983E+02  0.36204172983E+02  0.00000000000E+00 0. -1.
          1   -1    0    0  501    0 -0.00000000000E+00 -0.00000000000E+00 -0.14784227375E+04  0.14784227375E+04  0.00000000000E+00 0.  1.
          2    1    1    2  501    0 -0.63704683279E+02 -0.54221327187E+02 -0.81911831967E+02  0.11708025969E+03  0.00000000000E+00 0. -1.
          1    1    1    2  502    0  0.37993892655E+02  0.55207051683E+02 -0.11332642533E+04  0.11352441245E+04  0.00000000000E+00 0.  1.
         22    1    1    2    0    0 -0.18926197524E+02 -0.11893461686E+02  0.72866176287E+01  0.23510639720E+02  0.00000000000E+00 0. -1.
         22    1    1    2    0    0  0.44636988148E+02  0.10907737190E+02 -0.23432909692E+03  0.23879188660E+03  0.00000000000E+00 0.  1.
</event>
<event>
 6    1  0.3624778E-005  0.1548944E+03  0.7818608E-02  0.1245739E+00
          2   -1    0    0  502    0  0.00000000000E+00  0.00000000000E+00  0.26363973506E+03  0.26363973506E+03  0.00000000000E+00 0. -1.
          1   -1    0    0  501    0 -0.00000000000E+00 -0.00000000000E+00 -0.23593411730E+03  0.23593411730E+03  0.00000000000E+00 0. -1.
          2    1    1    2  501    0  0.26219693380E+02 -0.22603934405E+02 -0.34158254965E+02  0.48633286479E+02  0.00000000000E+00 0. -1.
          1    1    1    2  502    0 -0.37433838636E+01 -0.70737575543E+02 -0.16245098269E+03  0.17722341632E+03  0.00000000000E+00 0. -1.
         22    1    1    2    0    0  0.29523588696E+02  0.83605505227E+02  0.77855200903E+02  0.11799557238E+03  0.00000000000E+00 0. -1.
         22    1    1    2    0    0 -0.51999898212E+02  0.97360047202E+01  0.14645965451E+03  0.15572157718E+03  0.00000000000E+00 0. -1.
</event>
<event>
 6    1  0.3624778E-005  0.2208386E+03  0.7818608E-02  0.1226251E+00
          2   -1    0    0  502    0  0.00000000000E+00  0.00000000000E+00  0.43197779103E+03  0.43197779103E+03  0.00000000000E+00 0.  1.
          1   -1    0    0  501    0 -0.00000000000E+00 -0.00000000000E+00 -0.17712055124E+03  0.17712055124E+03  0.00000000000E+00 0.  1.
          2    1    1    2  501    0 -0.70587074814E+01 -0.40611223066E+02  0.35356032595E+01  0.41371454901E+02  0.00000000000E+00 0.  1.
          1    1    1    2  502    0 -0.74179167163E+02  0.17610864429E+03 -0.57877007678E+02  0.19966609991E+03  0.00000000000E+00 0.  1.
         22    1    1    2    0    0  0.10609054414E+03 -0.12446805429E+03  0.21571751240E+03  0.27070564318E+03  0.00000000000E+00 0.  1.
         22    1    1    2    0    0 -0.24852669491E+02 -0.11029366930E+02  0.93481131803E+02  0.97355144286E+02  0.00000000000E+00 0.  1.
</event>
<event>
 6    1  0.3624778E-005  0.2280808E+03  0.7818608E-02  0.1188126E+00
          2   -1    0    0  502    0  0.00000000000E+00  0.00000000000E+00  0.12411323400E+03  0.12411323400E+03  0.00000000000E+00 0. -1.
          1   -1    0    0  501    0 -0.00000000000E+00 -0.00000000000E+00 -0.32369846706E+03  0.32369846706E+03  0.00000000000E+00 0. -1.
          2    1    1    2  501    0  0.76053655410E+02 -0.68786127862E+02 -0.49257961411E+02  0.11376307243E+03  0.00000000000E+00 0. -1.
          1    1    1    2  502    0 -0.20528683858E+01 -0.28896299201E+02 -0.15536298806E+03  0.15804071765E+03  0.00000000000E+00 0. -1.
         22    1    1    2    0    0  0.31851226200E+02  0.51056991748E+02  0.44343312402E+01  0.60340536212E+02  0.00000000000E+00 0. -1.
         22    1    1    2    0    0 -0.10585201322E+03  0.46625435315E+02  0.60138517376E+00  0.11566737477E+03  0.00000000000E+00 0. -1.
</event>
<event>
 6    1  0.3624778E-005  0.4835229E+02  0.7818608E-02  0.1457534E+00
          2   -1    0    0  502    0  0.00000000000E+00  0.00000000000E+00  0.15015123572E+03  0.15015123572E+03  0.00000000000E+00 0. -1.
          1   -1    0    0  501    0 -0.00000000000E+00 -0.00000000000E+00 -0.48075576078E+03  0.48075576078E+03  0.00000000000E+00 0.  1.
          2    1    1    2  501    0 -0.30850375980E+02 -0.15174151848E+02 -0.14633669807E+02  0.37365022072E+02  0.00000000000E+00 0. -1.
          1    1    1    2  502    0  0.20185986068E+02 -0.43913427939E+01 -0.42497982634E+03  0.42548162207E+03  0.00000000000E+00 0.  1.
         22    1    1    2    0    0 -0.29519609109E+02 -0.86224353258E+00 -0.17107717260E+02  0.34129529380E+02  0.00000000000E+00 0. -1.
         22    1    1    2    0    0  0.40183999021E+02  0.20427738174E+02  0.12611668834E+03  0.13393082297E+03  0.00000000000E+00 0. -1.
</event>
<event>
 6    1  0.3624778E-005  0.1123895E+03  0.7818608E-02  0.1293234E+00
          2   -1    0    0  502    0  0.00000000000E+00  0.00000000000E+00  0.50148593380E+02  0.50148593380E+02  0.00000000000E+00 0.  1.
          1   -1    0    0  501    0 -0.00000000000E+00 -0.00000000000E+00 -0.99116565387E+03  0.99116565387E+03  0.00000000000E+00 0. -1.
          2    1    1    2  501    0 -0.28761144315E+02  0.47308498277E+01 -0.22561130032E+03  0.22748635826E+03  0.00000000000E+00 0.  1.
          1    1    1    2  502    0  0.60370252541E+02 -0.35964565140E+02 -0.66618524896E+03  0.66988118594E+03  0.00000000000E+00 0. -1.
         22    1    1    2    0    0 -0.56180805907E+02 -0.18209469851E+02 -0.63702209324E+02  0.86866790071E+02  0.00000000000E+00 0.  1.
         22    1    1    2    0    0  0.24571697681E+02  0.49443185163E+02  0.14481698113E+02  0.57079912984E+02  0.00000000000E+00 0.  1.
</event>
<event>
 6    1  0.3624778E-005  0.9193522E+02  0.7818608E-02  0.1348394E+00
          2   -1    0    0  502    0  0.00000000000E+00  0.00000000000E+00  0.45381956687E+02  0.45381956687E+02  0.00000000000E+00 0.  1.
          1   -1    0    0  501    0 -0.00000000000E+00 -0.00000000000E+00 -0.26731806500E+04  0.26731806500E+04  0.00000000000E+00 0.  1.
          2    1    1    2  501    0 -0.10260953164E+02  0.71140535071E+02 -0.15466666993E+03  0.17055216703E+03  0.00000000000E+00 0.  1.
          1    1    1    2  502    0  0.15305996284E+02 -0.71060208292E+02 -0.24044228917E+04  0.24055214131E+04  0.00000000000E+00 0.  1.
         22    1    1    2    0    0 -0.39224842791E+02  0.15773557285E+02 -0.89839900086E+02  0.99290488209E+02  0.00000000000E+00 0.  1.
         22    1    1    2    0    0  0.34179799671E+02 -0.15853884064E+02  0.21130768384E+02  0.43198538377E+02  0.00000000000E+00 0.  1.
</event>
<event>
 6    1  0.3624778E-005  0.9406604E+02  0.7818608E-02  0.1336211E+00
          2   -1    0    0  502    0  0.00000000000E+00  0.00000000000E+00  0.33531394048E+03  0.33531394048E+03  0.00000000000E+00 0. -1.
          1   -1    0    0  501    0 -0.00000000000E+00 -0.00000000000E+00 -0.52984079927E+02  0.52984079927E+02  0.00000000000E+00 0. -1.
          2    1    1    2  501    0  0.11748327490E+02  0.20992886384E+02  0.55190103862E+02  0.60205249288E+02  0.00000000000E+00 0. -1.
          1    1    1    2  502    0 -0.77333729376E+02 -0.18210823471E+02  0.24391606780E+02  0.83108906093E+02  0.00000000000E+00 0. -1.
         22    1    1    2    0    0  0.81047845974E+02  0.37779777812E+02  0.10426444974E+03  0.13735770975E+03  0.00000000000E+00 0. -1.
         22    1    1    2    0    0 -0.15462444088E+02 -0.40561840726E+02  0.98483700171E+02  0.10762615528E+03  0.00000000000E+00 0. -1.
</event>
<event>
 6    1  0.3624778E-005  0.2193379E+03  0.7818608E-02  0.1204490E+00
          2   -1    0    0  502    0  0.00000000000E+00  0.00000000000E+00  0.22568849497E+03  0.22568849497E+03  0.00000000000E+00 0. -1.
          1   -1    0    0  501    0 -0.00000000000E+00 -0.00000000000E+00 -0.31876801389E+03  0.31876801389E+03  0.00000000000E+00 0. -1.
          2    1    1    2  501    0  0.53702985515E+01  0.27387528691E+02 -0.10378749405E+02  0.29776421436E+02  0.00000000000E+00 0. -1.
          1    1    1    2  502    0  0.17607160785E+03  0.43759318993E+02 -0.18721290760E+03  0.26070052140E+03  0.00000000000E+00 0. -1.
         22    1    1    2    0    0 -0.17967640599E+03 -0.27198443867E+02  0.59924640183E+02  0.19134870974E+03  0.00000000000E+00 0. -1.
         22    1    1    2    0    0 -0.17655004116E+01 -0.43948403817E+02  0.44587497900E+02  0.62630856283E+02  0.00000000000E+00 0. -1.
</event>
<event>
 6    1  0.3624778E-005  0.9564859E+02  0.7818608E-02  0.1309775E+00
          2   -1    0    0  502    0  0.00000000000E+00  0.00000000000E+00  0.24503941102E+03  0.24503941102E+03  0.00000000000E+00 0.  1.
          1   -1    0    0  501    0 -0.00000000000E+00 -0.00000000000E+00 -0.41846490554E+02  0.41846490554E+02  0.00000000000E+00 0. -1.
          2    1    1    2  501    0  0.32907243318E+02 -0.30637103502E+02  0.53704928983E+02  0.70040974942E+02  0.00000000000E+00 0.  1.
          1    1    1    2  502    0 -0.14789065454E+02  0.22235383926E+02  0.36877694504E+01  0.26957900490E+02  0.00000000000E+00 0. -1.
         22    1    1    2    0    0 -0.35245714884E+02 -0.49342834856E+02  0.62384188904E+02  0.86998636739E+02  0.00000000000E+00 0.  1.
         22    1    1    2    0    0  0.17127537019E+02  0.57744554433E+02  0.83416033129E+02  0.10288838940E+03  0.00000000000E+00 0.  1.
</event>
<event>
 6    1  0.3624778E-005  0.5826722E+02  0.7818608E-02  0.1450220E+00
          2   -1    0    0  502    0  0.00000000000E+00  0.00000000000E+00  0.10948187621E+04  0.10948187621E+04  0.00000000000E+00 0. -1.
          1   -1    0    0  501    0 -0.00000000000E+00 -0.00000000000E+00 -0.83731690029E+02  0.83731690029E+02  0.00000000000E+00 0. -1.
          2    1    1    2  501    0  0.49893054766E+01 -0.36208386676E+02 -0.36539116190E+02  0.51682177264E+02  0.00000000000E+00 0. -1.
          1    1    1    2  502    0  0.19505828155E+02  0.41106900432E+02  0.98366525889E+03  0.98471701323E+03  0.00000000000E+00 0. -1.
         22    1    1    2    0    0  0.13605961746E+00 -0.20943251084E+02 -0.33967876906E+02  0.39905575296E+02  0.00000000000E+00 0.  1.
         22    1    1    2    0    0 -0.24631193249E+02  0.16044737328E+02  0.97928806325E+02  0.10224568639E+03  0.00000000000E+00 0. -1.
</event>
<event>
 6    1  0.3624778E-005  0.1122933E+03  0.7818608E-02  0.1280855E+00
          2   -1    0    0  502    0  0.00000000000E+00  0.00000000000E+00  0.13463935062E+03  0.13463935062E+03  0.00000000000E+00 0.  1.
          1   -1    0    0  501    0 -0.00000000000E+00 -0.00000000000E+00 -0.22772255504E+03  0.22772255504E+03  0.00000000000E+00 0.  1.
          2    1    1    2  501    0 -0.10589479985E+02 -0.26171449572E+02 -0.33729506036E+02  0.43985923163E+02  0.00000000000E+00 0.  1.
          1    1    1    2  502    0  0.14914668446E+02 -0.17523596642E+02 -0.15562380736E+03  0.15731590254E+03  0.00000000000E+00 0.  1.
         22    1    1    2    0    0  0.55100635818E+02  0.42196013773E+02  0.57079822845E+02  0.89859277884E+02  0.00000000000E+00 0.  1.
         22    1    1    2    0    0 -0.59425824278E+02  0.14990324411E+01  0.39190286129E+02  0.71200802076E+02  0.00000000000E+00 0.  1.
</event>
<event>
 6    1  0.3624778E-005  0.1204407E+03  0.7818608E-02  0.1331499E+00
          2   -1    0    0  502    0  0.00000000000E+00  0.00000000000E+00  0.48927035129E+02  0.48927035129E+02  0.00000000000E+00 0.  1.
          1   -1    0    0  501    0 -0.00000000000E+00 -0.00000000000E+00 -0.34487019838E+03  0.34487019838E+03  0.00000000000E+00 0. -1.
          2    1    1    2  501    0 -0.28830075671E+02  0.46448723872E+02 -0.20505720326E+02  0.58387856432E+02  0.00000000000E+00 0.  1.
          1    1    1    2  502    0  0.80564004634E+01 -0.20065186328E+02 -0.15780406083E+03  0.15927849480E+03  0.00000000000E+00 0. -1.
         22    1    1    2    0    0 -0.86666575004E+00 -0.32112174710E+02 -0.14050308215E+03  0.14412861953E+03  0.00000000000E+00 0. -1.
         22    1    1    2    0    0  0.21640340958E+02  0.57286371656E+01  0.22869700053E+02  0.32002262749E+02  0.00000000000E+00 0.  1.
</event>
<event>
 6    1  0.3624778E-005  0.3786738E+02  0.7818608E-02  0.1559059E+00
          2   -1    0    0  502    0  0.00000000000E+00  0.00000000000E+00  0.80799229115E+02  0.80799229115E+02  0.00000000000E+00 0.  1.
          1   -1    0    0  501    0 -0.00000000000E+00 -0.00000000000E+00 -0.31464944045E+03  0.31464944045E+03  0.00000000000E+00 0. -1.
          2    1    1    2  501    0  0.34385298929E+02  0.11451368931E+02 -0.59117070041E+02  0.69341982976E+02  0.00000000000E+00 0.  1.
          1    1    1    2  502    0 -0.25970196685E+02 -0.15456544877E+02 -0.19307254177E+03  0.19542354587E+03  0.00000000000E+00 0. -1.
         22    1    1    2    0    0 -0.23849664222E+02  0.39719569818E+01  0.71421296083E+02  0.75402814668E+02  0.00000000000E+00 0.  1.
         22    1    1    2    0    0  0.15434561977E+02  0.33218963963E-01 -0.53081895604E+02  0.55280326047E+02  0.00000000000E+00 0. -1.
</event>
<event>
 6    1  0.3624778E-005  0.7921088E+02  0.7818608E-02  0.1332319E+00
          2   -1    0    0  502    0  0.00000000000E+00  0.00000000000E+00  0.30607534122E+03  0.30607534122E+03  0.00000000000E+00 0.  1.
          1   -1    0    0  501    0 -0.00000000000E+00 -0.00000000000E+00 -0.20939513125E+03  0.20939513125E+03  0.00000000000E+00 0.  1.
          2    1    1    2  501    0  0.29839680296E+02  0.46963272240E+01  0.62770528702E+02  0.69660615007E+02  0.00000000000E+00 0.  1.
          1    1    1    2  502    0 -0.28297565972E+01  0.27254193104E+02 -0.18662719309E+03  0.18862796125E+03  0.00000000000E+00 0.  1.
         22    1    1    2    0    0 -0.65322342784E+02 -0.55927938130E+02  0.12810169050E+03  0.15428864456E+03  0.00000000000E+00 0.  1.
         22    1    1    2    0    0  0.38312419085E+02  0.23977417802E+02  0.92435183858E+02  0.10289325165E+03  0.00000000000E+00 0.  1.
</event>
<event>
 6    1  0.3624778E-005  0.1698747E+03  0.7818608E-02  0.1265475E+00
          2   -1    0    0  502    0  0.00000000000E+00  0.00000000000E+00  0.13747593067E+03  0.13747593067E+03  0.00000000000E+00 0.  1.
          1   -1    0    0  501    0 -0.00000000000E+00 -0.00000000000E+00 -0.66373762714E+03  0.66373762714E+03  0.00000000000E+00 0.  1.
          2    1    1    2  501    0  0.20580733871E+02 -0.73217505917E+02 -0.34915803951E+03  0.35734536003E+03  0.00000000000E+00 0.  1.
          1    1    1    2  502    0 -0.14668755801E+02  0.90767679980E+02 -0.27089193217E+03  0.28607059101E+03  0.00000000000E+00 0.  1.
         22    1    1    2    0    0 -0.20521353011E+02 -0.40415604749E+02 -0.13369570818E+02  0.47257723818E+02  0.00000000000E+00 0.  1.
         22    1    1    2    0    0  0.14609374940E+02  0.22865430687E+02  0.10715784603E+03  0.11053988295E+03  0.00000000000E+00 0.  1.
</event>
<event>
 6    1  0.3624778E-005  0.8811799E+02  0.7818608E-02  0.1402412E+00
          2   -1    0    0  502    0  0.00000000000E+00  0.00000000000E+00  0.21783789253E+03  0.21783789253E+03  0.00000000000E+00 0. -1.
          1   -1    0    0  501    0 -0.00000000000E+00 -0.00000000000E+00 -0.10136598720E+03  0.10136598720E+03  0.00000000000E+00 0. -1.
          2    1    1    2  501    0  0.31414663280E+02  0.27771026151E+02 -0.34578816123E+02  0.54348923512E+02  0.00000000000E+00 0. -1.
          1    1    1    2  502    0 -0.87058524452E+01 -0.46744034761E+02  0.12842064705E+03  0.13694034920E+03  0.00000000000E+00 0. -1.
         22    1    1    2    0    0 -0.37994559544E+02  0.27730012980E+02 -0.40686696265E+02  0.62192824568E+02  0.00000000000E+00 0. -1.
         22    1    1    2    0    0  0.15285748708E+02 -0.87570043697E+01  0.63316770671E+02  0.65721782442E+02  0.00000000000E+00 0. -1.
</event>
<event>
 6    1  0.3624778E-005  0.7773640E+02  0.7818608E-02  0.1339201E+00
          2   -1    0    0  502    0  0.00000000000E+00  0.00000000000E+00  0.41240242031E+03  0.41240242031E+03  0.00000000000E+00 0. -1.
          1   -1    0    0  501    0 -0.00000000000E+00 -0.00000000000E+00 -0.81339130703E+03  0.81339130703E+03  0.00000000000E+00 0.  1.
          2    1    1    2  501    0 -0.20046551520E+02  0.28082934831E+00  0.22873104173E+02  0.30415818047E+02  0.00000000000E+00 0. -1.
          1    1    1    2  502    0  0.23215301808E+01 -0.48343593048E+02 -0.79740763045E+03  0.79887509761E+03  0.00000000000E+00 0.  1.
         22    1    1    2    0    0 -0.31224498107E+02 -0.27498849417E+02  0.93465194144E+02  0.10230786147E+03  0.00000000000E+00 0. -1.
         22    1    1    2    0    0  0.48949519446E+02  0.75561613117E+02  0.28008044541E+03  0.29419495021E+03  0.00000000000E+00 0. -1.
</event>
<event>
 6    1  0.3624778E-005  0.5122557E+02  0.7818608E-02  0.1533974E+00
          2   -1    0    0  502    0  0.00000000000E+00  0.00000000000E+00  0.61899325335E+02  0.61899325335E+02  0.00000000000E+00 0.  1.
          1   -1    0    0  501    0 -0.00000000000E+00 -0.00000000000E+00 -0.31977499882E+03  0.31977499882E+03  0.00000000000E+00 0.  1.
          2    1    1    2  501    0  0.27638264644E+02 -0.51184711605E+01 -0.77752624353E+02  0.82677342805E+02  0.00000000000E+00 0.  1.
          1    1    1    2  502    0 -0.44620785664E+02  0.12292137772E+01 -0.16837466970E+03  0.17419114466E+03  0.00000000000E+00 0.  1.
         22    1    1    2    0    0 -0.12650446354E+02 -0.47161716480E+01  0.52138032812E+02  0.53857687785E+02  0.00000000000E+00 0.  1.
         22    1    1    2    0    0  0.29632967374E+02  0.86054290312E+01 -0.63886412237E+02  0.70948148903E+02  0.00000000000E+00 0.  1.
</event>
<event>
 6    1  0.3624778E-005  0.2151177E+03  0.7818608E-02  0.1244007E+00
          2   -1    0    0  502    0  0.00000000000E+00  0.00000000000E+00  0.11953879690E+03  0.11953879690E+03  0.00000000000E+00 0.  1.
          1   -1    0    0  501    0 -0.00000000000E+00 -0.00000000000E+00 -0.28554229902E+03  0.28554229902E+03  0.00000000000E+00 0.  1.
          2    1    1    2  501    0 -0.83486727709E+01  0.54603509205E+02 -0.10295304111E+03  0.11683566334E+03  0.00000000000E+00 0.  1.
          1    1    1    2  502    0 -0.10613361094E+03 -0.76932758975E+01 -0.28635714713E+02  0.11019770425E+03  0.00000000000E+00 0.  1.
         22    1    1    2    0    0 -0.13970750433E+02  0.14935478245E+02  0.16897407614E+02  0.26528715803E+02  0.00000000000E+00 0. -1.
         22    1    1    2    0    0  0.12845303414E+03 -0.61845711553E+02 -0.51312153912E+02  0.15151901253E+03  0.00000000000E+00 0.  1.
</event>
<event>
 6    1  0.3624778E-005  0.2318700E+03  0.7818608E-02  0.1197661E+00
          2   -1    0    0  502    0  0.00000000000E+00  0.00000000000E+00  0.54286277964E+03  0.54286277964E+03  0.00000000000E+00 0.  1.
          1   -1    0    0  501    0 -0.00000000000E+00 -0.00000000000E+00 -0.19370616792E+03  0.19370616792E+03  0.00000000000E+00 0.  1.
          2    1    1    2  501    0 -0.63968936085E+02  0.42112577404E+02  0.90079852067E+01  0.77114445838E+02  0.00000000000E+00 0.  1.
          1    1    1    2  502    0  0.93899198232E+02  0.23094115797E+02 -0.13318633301E+03  0.16458735344E+03  0.00000000000E+00 0.  1.
         22    1    1    2    0    0 -0.72797863079E+02 -0.70320239980E+02  0.33141925819E+03  0.34653021473E+03  0.00000000000E+00 0.  1.
         22    1    1    2    0    0  0.42867600932E+02  0.51135467786E+01  0.14191570134E+03  0.14833693355E+03  0.00000000000E+00 0.  1.
</event>
<event>
 6    1  0.3624778E-005  0.8553089E+02  0.7818608E-02  0.1315682E+00
          2   -1    0    0  502    0  0.00000000000E+00  0.00000000000E+00  0.93251214621E+03  0.93251214621E+03  0.00000000000E+00 0. -1.
          1   -1    0    0  501    0 -0.00000000000E+00 -0.00000000000E+00 -0.22323586611E+02  0.22323586611E+02  0.00000000000E+00 0. -1.
          2    1    1    2  501    0 -0.57090576449E+01 -0.48012570141E+02  0.53629014764E+02  0.72207142689E+02  0.00000000000E+00 0. -1.
          1    1    1    2  502    0  0.39801213518E+02  0.17446152143E+02  0.50186845175E+03  0.50374641208E+03  0.00000000000E+00 0. -1.
         22    1    1    2    0    0  0.10149475029E+02 -0.40723138628E+02  0.65723439040E+02  0.77980486677E+02  0.00000000000E+00 0. -1.
         22    1    1    2    0    0 -0.44241630902E+02  0.71289556625E+02  0.28896765405E+03  0.30090169138E+03  0.00000000000E+00 0. -1.
</event>
<event>
 6    1  0.3624778E-005  0.2180361E+03  0.7818608E-02  0.1197779E+00
          2   -1    0    0  502    0  0.00000000000E+00  0.00000000000E+00  0.37948710594E+03  0.37948710594E+03  0.00000000000E+00 0. -1.
          1   -1    0    0  501    0 -0.00000000000E+00 -0.00000000000E+00 -0.21036134968E+03  0.21036134968E+03  0.00000000000E+00 0. -1.
          2    1    1    2  501    0  0.10249136181E+03  0.15183306612E+03 -0.72753620786E+02  0.19710618598E+03  0.00000000000E+00 0. -1.
          1    1    1    2  502    0 -0.11056553320E+03 -0.14606113474E+03  0.15537281265E+03  0.24020679242E+03  0.00000000000E+00 0. -1.
         22    1    1    2    0    0  0.11955823367E+02 -0.50389201655E+02  0.93812361786E+02  0.10715769958E+03  0.00000000000E+00 0. -1.
         22    1    1    2    0    0 -0.38816519759E+01  0.44617270268E+02 -0.73057973845E+01  0.45377777641E+02  0.00000000000E+00 0. -1.
</event>
<event>
 6    1  0.3624778E-005  0.1065196E+03  0.7818608E-02  0.1305826E+00
          2   -1    0    0  502    0  0.00000000000E+00  0.00000000000E+00  0.55661560489E+02  0.55661560489E+02  0.00000000000E+00 0. -1.
          1   -1    0    0  501    0 -0.00000000000E+00 -0.00000000000E+00 -0.16542998096E+04  0.16542998096E+04  0.00000000000E+00 0. -1.
          2    1    1    2  501    0 -0.71394868693E+02  0.47457245943E+02 -0.11849437926E+04  0.11880409122E+04  0.00000000000E+00 0. -1.
          1    1    1    2  502    0  0.35096606012E+02 -0.69893668027E+02 -0.37717564218E+03  0.38519911947E+03  0.00000000000E+00 0. -1.
         22    1    1    2    0    0 -0.14141419674E+02  0.12504762815E+02 -0.71885393579E+02  0.74322665812E+02  0.00000000000E+00 0. -1.
         22    1    1    2    0    0  0.50439682354E+02  0.99316592691E+01  0.35366579261E+02  0.62398672586E+02  0.00000000000E+00 0. -1.
</event>
<event>
 6    1  0.3624778E-005  0.1606747E+03  0.7818608E-02  0.1228969E+00
          2   -1    0    0  502    0  0.00000000000E+00  0.00000000000E+00  0.13243652770E+03  0.13243652770E+03  0.00000000000E+00 0. -1.
          1   -1    0    0  501    0 -0.00000000000E+00 -0.00000000000E+00 -0.74221253521E+03  0.74221253521E+03  0.00000000000E+00 0. -1.
          2    1    1    2  501    0  0.48779185447E+02  0.10232823076E+01 -0.48700926759E+03  0.48944711947E+03  0.00000000000E+00 0. -1.
          1    1    1    2  502    0  0.10375381749E+01  0.11764366673E+03  0.57881326783E+02  0.13111581445E+03  0.00000000000E+00 0. -1.
         22    1    1    2    0    0  0.61870027111E+01 -0.66442805469E+02 -0.10566982488E+02  0.67561723780E+02  0.00000000000E+00 0. -1.
         22    1    1    2    0    0 -0.56003726333E+02 -0.52224143572E+02 -0.17008108421E+03  0.18652440521E+03  0.00000000000E+00 0. -1.
</event>
<event>
 6    1  0.3624778E-005  0.1246587E+03  0.7818608E-02  0.1273021E+00
          2   -1    0    0  502    0  0.00000000000E+00  0.00000000000E+00  0.29420163198E+03  0.29420163198E+03  0.00000000000E+00 0.  1.
          1   -1    0    0  501    0 -0.00000000000E+00 -0.00000000000E+00 -0.90140507344E+02  0.90140507344E+02  0.00000000000E+00 0.  1.
          2    1    1    2  501    0 -0.43143444731E+02 -0.76289149503E+02  0.10368348035E+03  0.13576323233E+03  0.00000000000E+00 0.  1.
          1    1    1    2  502    0  0.37486417971E+02  0.81166530358E+02  0.65488290967E+01  0.89644432873E+02  0.00000000000E+00 0.  1.
         22    1    1    2    0    0  0.35339715038E+02 -0.56249811602E+02  0.65112670999E+02  0.93019335027E+02  0.00000000000E+00 0.  1.
         22    1    1    2    0    0 -0.29682688277E+02  0.51372430748E+02  0.28716144186E+02  0.65915139090E+02  0.00000000000E+00 0.  1.
</event>
<event>
 6    1  0.3624778E-005  0.2829340E+03  0.7818608E-02  0.1147804E+00
          2   -1    0    0  502    0  0.00000000000E+00  0.00000000000E+00  0.33926288313E+02  0.33926288313E+02  0.00000000000E+00 0.  1.
          1   -1    0    0  501    0 -0.00000000000E+00 -0.00000000000E+00 -0.25726252352E+04  0.25726252352E+04  0.00000000000E+00 0.  1.
          2    1    1    2  501    0  0.15275936249E+03 -0.23279485546E+02 -0.39436140883E+03  0.42355433896E+03  0.00000000000E+00 0.  1.
          1    1    1    2  502    0  0.20743668200E+02  0.25044863418E+02 -0.15515342199E+04  0.15518749886E+04  0.00000000000E+00 0.  1.
         22    1    1    2    0    0 -0.65441542480E+02 -0.41786616148E+02 -0.10926932973E+03  0.13404664558E+03  0.00000000000E+00 0.  1.
         22    1    1    2    0    0 -0.10806148821E+03  0.40021238276E+02 -0.48353398843E+03  0.49707555031E+03  0.00000000000E+00 0.  1.
</event>
<event>
 6    1  0.3624778E-005  0.2079132E+03  0.7818608E-02  0.1270838E+00
          2   -1    0    0  502    0  0.00000000000E+00  0.00000000000E+00  0.21631954736E+03  0.21631954736E+03  0.00000000000E+00 0.  1.
          1   -1    0    0  501    0 -0.00000000000E+00 -0.00000000000E+00 -0.29633088249E+03  0.29633088249E+03  0.00000000000E+00 0.  1.
          2    1    1    2  501    0  0.26402555302E+02  0.70130008280E+02  0.23390026314E+02  0.78500995654E+02  0.00000000000E+00 0.  1.
          1    1    1    2  502    0 -0.13870377701E+03 -0.13813864968E+03 -0.14837958022E+03  0.24563697628E+03  0.00000000000E+00 0.  1.
         22    1    1    2    0    0  0.69241826422E+01 -0.11399729410E+02  0.54609203537E+02  0.56214439843E+02  0.00000000000E+00 0.  1.
         22    1    1    2    0    0  0.10537703907E+03  0.79408370808E+02 -0.96309847657E+01  0.13229801807E+03  0.00000000000E+00 0.  1.
</event>
<event>
 6    1  0.3624778E-005  0.1191269E+03  0.7818608E-02  0.1335803E+00
          2   -1    0    0  502    0  0.00000000000E+00  0.00000000000E+00  0.14018701745E+03  0.14018701745E+03  0.00000000000E+00 0. -1.
          1   -1    0    0  501    0 -0.00000000000E+00 -0.00000000000E+00 -0.17282510757E+03  0.17282510757E+03  0.00000000000E+00 0. -1.
          2    1    1    2  501    0 -0.10736418097E+02  0.30647689141E+02 -0.25697479091E+02  0.41411495444E+02  0.00000000000E+00 0. -1.
          1    1    1    2  502    0 -0.57365986191E+02 -0.27853884557E+01 -0.88877599849E+02  0.10581985879E+03  0.00000000000E+00 0. -1.
         22    1    1    2    0    0  0.86506317987E+02 -0.16699255698E+02  0.76462267099E+01  0.88434568894E+02  0.00000000000E+00 0. -1.
         22    1    1    2    0    0 -0.18403913699E+02 -0.11163044988E+02  0.74290762110E+02  0.77346201896E+02  0.00000000000E+00 0. -1.
</event>
<event>
 6    1  0.3624778E-005  0.1152317E+03  0.7818608E-02  0.1297409E+00
          2   -1    0    0  502    0  0.00000000000E+00  0.00000000000E+00  0.19859526243E+03  0.19859526243E+03  0.00000000000E+00 0.  1.
          1   -1    0    0  501    0 -0.00000000000E+00 -0.00000000000E+00 -0.12309168186E+04  0.12309168186E+04  0.00000000000E+00 0. -1.
          2    1    1    2  501    0  0.18968685321E+02 -0.75667145219E+01 -0.10867158524E+02  0.23133554112E+02  0.00000000000E+00 0.  1.
          1    1    1    2  502    0 -0.20380600324E+02  0.33438773393E+02 -0.11939518129E+04  0.11945938439E+04  0.00000000000E+00 0. -1.
         22    1    1    2    0    0 -0.52963699959E+02 -0.32595177048E+01  0.12610973055E+03  0.13681901223E+03  0.00000000000E+00 0.  1.
         22    1    1    2    0    0  0.54375614962E+02 -0.22612541167E+02  0.46387684621E+02  0.74965670844E+02  0.00000000000E+00 0. -1.
</event>
<event>
 6    1  0.3624778E-005  0.2467045E+03  0.7818608E-02  0.1218114E+00
          2   -1    0    0  502    0  0.00000000000E+00  0.00000000000E+00  0.38608286024E+02  0.38608286024E+02  0.00000000000E+00 0. -1.
          1   -1    0    0  501    0 -0.00000000000E+00 -0.00000000000E+00 -0.13698308497E+04  0.13698308497E+04  0.00000000000E+00 0. -1.
          2    1    1    2  501    0  0.11058207841E+03  0.16368066953E+02 -0.34158371376E+03  0.35941027140E+03  0.00000000000E+00 0. -1.
          1    1    1    2  502    0  0.47203070434E+01  0.44735852211E+02 -0.73298354310E+03  0.73436261630E+03  0.00000000000E+00 0. -1.
         22    1    1    2    0    0 -0.10584673383E+03 -0.82204336946E+02 -0.25880268483E+03  0.29144452946E+03  0.00000000000E+00 0. -1.
         22    1    1    2    0    0 -0.94556516177E+01  0.21100417781E+02  0.21473780654E+01  0.23221718511E+02  0.00000000000E+00 0. -1.
</event>
<event>
 6    1  0.3624778E-005  0.1807133E+03  0.7818608E-02  0.1287084E+00
          2   -1    0    0  502    0  0.00000000000E+00  0.00000000000E+00  0.17369214304E+03  0.17369214304E+03  0.00000000000E+00 0. -1.
          1   -1    0    0  501    0 -0.00000000000E+00 -0.00000000000E+00 -0.22633085177E+03  0.22633085177E+03  0.00000000000E+00 0. -1.
          2    1    1    2  501    0 -0.12179070809E+03  0.32115462362E+02 -0.43139307845E+02  0.13313669434E+03  0.00000000000E+00 0. -1.
          1    1    1    2  502    0  0.12642141669E+03 -0.40775963611E+02  0.31955229534E+02  0.13662426761E+03  0.00000000000E+00 0. -1.
         22    1    1    2    0    0  0.10117850659E+02  0.10797206102E+02 -0.83942365491E+02  0.85236560734E+02  0.00000000000E+00 0. -1.
         22    1    1    2    0    0 -0.14748559257E+02 -0.21367048531E+01  0.42487735080E+02  0.45025472124E+02  0.00000000000E+00 0. -1.
</event>
<event>
 6    1  0.3624778E-005  0.7503813E+02  0.7818608E-02  0.1345985E+00
          2   -1    0    0  502    0  0.00000000000E+00  0.00000000000E+00  0.91200662156E+03  0.91200662156E+03  0.00000000000E+00 0. -1.
          1   -1    0    0  501    0 -0.00000000000E+00 -0.00000000000E+00 -0.10556411107E+02  0.10556411107E+02  0.00000000000E+00 0. -1.
          2    1    1    2  501    0  0.20304224529E-01 -0.26846748191E+02  0.18260499568E+03  0.18456796241E+03  0.00000000000E+00 0. -1.
          1    1    1    2  502    0 -0.28392554312E+02  0.23679745897E+02  0.94900641230E+02  0.10184792198E+03  0.00000000000E+00 0. -1.
         22    1    1    2    0    0 -0.22133010693E+02 -0.47510565427E+02  0.25574047459E+03  0.26105615168E+03  0.00000000000E+00 0. -1.
         22    1    1    2    0    0  0.50505260780E+02  0.50677567721E+02  0.36820409896E+03  0.37509099659E+03  0.00000000000E+00 0. -1.
</event>
<event>
 6    1  0.3624778E-005  0.1405501E+03  0.7818608E-02  0.1275482E+00
          2   -1    0    0  502    0  0.00000000000E+00  0.00000000000E+00  0.33834887621E+03  0.33834887621E+03  0.00000000000E+00 0. -1.
          1   -1    0    0  501    0 -0.00000000000E+00 -0.00000000000E+00 -0.17161569228E+03  0.17161569228E+03  0.00000000000E+00 0. -1.
          2    1    1    2  501    0  0.10606645084E+02 -0.25926137224E+02  0.11437117292E+02  0.30256787061E+02  0.00000000000E+00 0. -1.
          1    1    1    2  502    0 -0.11983484258E+03  0.12931861506E+02 -0.11255858705E+03  0.16491530571E+03  0.00000000000E+00 0. -1.
         22    1    1    2    0    0  0.84949463402E+02  0.44132092290E+02  0.85951894426E+02  0.12865372539E+03  0.00000000000E+00 0. -1.
         22    1    1    2    0    0  0.24278734099E+02 -0.31137816572E+02  0.18190275925E+03  0.18613875033E+03  0.00000000000E+00 0. -1.
</event>
<event>
 6    1  0.3624778E-005  0.1456114E+03  0.7818608E-02  0.1207130E+00
          2   -1    0    0  502    0  0.00000000000E+00  0.00000000000E+00  0.53716612679E+03  0.53716612679E+03  0.00000000000E+00 0. -1.
          1   -1    0    0  501    0 -0.00000000000E+00 -0.00000000000E+00 -0.48549532850E+03  0.48549532850E+03  0.00000000000E+00 0.  1.
          2    1    1    2  501    0 -0.39650459496E+02 -0.10043885599E+03  0.22257234056E+03  0.24738344632E+03  0.00000000000E+00 0. -1.
          1    1    1    2  502    0 -0.18632075880E+02 -0.16719899923E+02 -0.44568912496E+03  0.44639165025E+03  0.00000000000E+00 0.  1.
         22    1    1    2    0    0 -0.43873480060E+01 -0.24219757087E+02  0.24865730876E+02  0.34987855434E+02  0.00000000000E+00 0. -1.
         22    1    1    2    0    0  0.62669883382E+02  0.14137851300E+03  0.24992185181E+03  0.29389850328E+03  0.00000000000E+00 0. -1.
</event>
<event>
 6    1  0.3624778E-005  0.1022183E+03  0.7818608E-02  0.1337390E+00
          2   -1    0    0  502    0  0.00000000000E+00  0.00000000000E+00  0.10858290606E+03  0.10858290606E+03  0.00000000000E+00 0. -1.
          1   -1    0    0  501    0 -0.00000000000E+00 -0.00000000000E+00 -0.41353205711E+03  0.41353205711E+03  0.00000000000E+00 0.  1.
          2    1    1    2  501    0  0.28221088755E+02  0.31693396782E+02 -0.31035184042E+02  0.52574555620E+02  0.00000000000E+00 0. -1.
          1    1    1    2  502    0 -0.69426893088E+02 -0.58544373027E+02 -0.31578820947E+03  0.32858747745E+03  0.00000000000E+00 0.  1.
         22    1    1    2    0    0  0.68016336180E+02  0.73680459995E+01 -0.19554587770E+02  0.71154001940E+02  0.00000000000E+00 0. -1.
         22    1    1    2    0    0 -0.26810531847E+02  0.19482930246E+02  0.61428830230E+02  0.69798928160E+02  0.00000000000E+00 0.  1.
</event>
<event>
 6    1  0.3624778E-005  0.9198029E+02  0.7818608E-02  0.1303560E+00
          2   -1    0    0  502    0  0.00000000000E+00  0.00000000000E+00  0.40675588895E+03  0.40675588895E+03  0.00000000000E+00 0. -1.
          1   -1    0    0  501    0 -0.00000000000E+00 -0.00000000000E+00 -0.51648608107E+02  0.51648608107E+02  0.00000000000E+00 0. -1.
          2    1    1    2  501    0 -0.23947368453E+01 -0.65674653997E+02  0.16995522102E+03  0.18221874792E+03  0.00000000000E+00 0. -1.
          1    1    1    2  502    0  0.34123652889E+02  0.50665152305E+02  0.18605139037E+02  0.63855560002E+02  0.00000000000E+00 0. -1.
         22    1    1    2    0    0  0.23358451376E+02 -0.26404879487E+02  0.12924000781E+03  0.13396198912E+03  0.00000000000E+00 0. -1.
         22    1    1    2    0    0 -0.55087367420E+02  0.41414381179E+02  0.37306912986E+02  0.78368200019E+02  0.00000000000E+00 0.  1.
</event>
<event>
 6    1  0.3624778E-005  0.3340274E+03  0.7818608E-02  0.1159174E+00
          2   -1    0    0  502    0  0.00000000000E+00  0.00000000000E+00  0.74332732866E+03  0.74332732866E+03  0.00000000000E+00 0.  1.
          1   -1    0    0  501    0 -0.00000000000E+00 -0.00000000000E+00 -0.11245674804E+03  0.11245674804E+03  0.00000000000E+00 0.  1.
          2    1    1    2  501    0  0.93590534939E+02 -0.10435297319E+03  0.13609444700E+03  0.19537254093E+03  0.00000000000E+00 0.  1.
          1    1    1    2  502    0  0.12421221411E+03  0.13784703469E+03  0.22831164546E+03  0.29420517766E+03  0.00000000000E+00 0.  1.
         22    1    1    2    0    0 -0.33770825103E+02  0.65019150539E+01  0.12777239494E+03  0.13231979609E+03  0.00000000000E+00 0.  1.
         22    1    1    2    0    0 -0.18403192395E+03 -0.39995976560E+02  0.13869209322E+03  0.23388656202E+03  0.00000000000E+00 0.  1.
</event>
<event>
 6    1  0.3624778E-005  0.9776993E+02  0.7818608E-02  0.1290121E+00
          2   -1    0    0  502    0  0.00000000000E+00  0.00000000000E+00  0.37326417162E+03  0.37326417162E+03  0.00000000000E+00 0.  1.
          1   -1    0    0  501    0 -0.00000000000E+00 -0.00000000000E+00 -0.54232669983E+03  0.54232669983E+03  0.00000000000E+00 0. -1.
          2    1    1    2  501    0 -0.50996380966E+02  0.36945883034E+02  0.23193751293E+02  0.67108712131E+02  0.00000000000E+00 0.  1.
          1    1    1    2  502    0  0.21856808863E+02  0.11938847279E+02 -0.50649703343E+03  0.50710896367E+03  0.00000000000E+00 0. -1.
         22    1    1    2    0    0 -0.37429389818E+02  0.71472643558E+01  0.48070807929E+02  0.61342034404E+02  0.00000000000E+00 0.  1.
         22    1    1    2    0    0  0.66568961920E+02 -0.56031994670E+02  0.26616994599E+03  0.28003116125E+03  0.00000000000E+00 0.  1.
</event>
<event>
 6    1  0.3624778E-005  0.2198130E+03  0.7818608E-02  0.1231942E+00
          2   -1    0    0  502    0  0.00000000000E+00  0.00000000000E+00  0.10992449051E+03  0.10992449051E+03  0.00000000000E+00 0. -1.
          1   -1    0    0  501    0 -0.00000000000E+00 -0.00000000000E+00 -0.89363204653E+03  0.89363204653E+03  0.00000000000E+00 0.  1.
          2    1    1    2  501    0  0.73418783949E+02 -0.53009728993E+01 -0.69912837894E+01  0.73941167148E+02  0.00000000000E+00 0. -1.
          1    1    1    2  502    0 -0.21230866502E+03  0.76717328841E+01 -0.69710578096E+03  0.72875942160E+03  0.00000000000E+00 0.  1.
         22    1    1    2    0    0 -0.14791759709E+02  0.19544574609E+02  0.35196626458E+01  0.24762362107E+02  0.00000000000E+00 0. -1.
         22    1    1    2    0    0  0.15368164078E+03 -0.21915334594E+02 -0.83130153917E+02  0.17609358618E+03  0.00000000000E+00 0. -1.
</event>
<event>
 6    1  0.3624778E-005  0.1539544E+03  0.7818608E-02  0.1238316E+00
          2   -1    0    0  502    0  0.00000000000E+00  0.00000000000E+00  0.47250762214E+02  0.47250762214E+02  0.00000000000E+00 0. -1.
          1   -1    0    0  501    0 -0.00000000000E+00 -0.00000000000E+00 -0.83486906616E+03  0.83486906616E+03  0.00000000000E+00 0. -1.
          2    1    1    2  501    0  0.62410641016E+02  0.21534590404E+02 -0.55302245638E+03  0.55694942675E+03  0.00000000000E+00 0. -1.
          1    1    1    2  502    0 -0.78782460841E+02  0.33981992436E+02 -0.65230393754E+02  0.10777966513E+03  0.00000000000E+00 0. -1.
         22    1    1    2    0    0  0.63326182510E+02 -0.14094603489E+02 -0.12441119837E+03  0.14031040417E+03  0.00000000000E+00 0. -1.
         22    1    1    2    0    0 -0.46954362686E+02 -0.41421979351E+02 -0.44954255437E+02  0.77080332319E+02  0.00000000000E+00 0. -1.
</event>
<event>
 6    1  0.3624778E-005  0.2487073E+03  0.7818608E-02  0.1114419E+00
          2   -1    0    0  502    0  0.00000000000E+00  0.00000000000E+00  0.11061215960E+04  0.11061215960E+04  0.00000000000E+00 0. -1.
          1   -1    0    0  501    0 -0.00000000000E+00 -0.00000000000E+00 -0.12360670672E+03  0.12360670672E+03  0.00000000000E+00 0.  1.
          2    1    1    2  501    0 -0.77348842620E+02  0.26227616865E+03  0.65293825173E+03  0.70788416614E+03  0.00000000000E+00 0. -1.
          1    1    1    2  502    0  0.72982258127E+02 -0.76624845417E+02 -0.18792956464E+02  0.10747535601E+03  0.00000000000E+00 0.  1.
         22    1    1    2    0    0  0.33145499451E+01 -0.20487655508E+03  0.31316161266E+03  0.37424000949E+03  0.00000000000E+00 0. -1.
         22    1    1    2    0    0  0.10520345481E+01  0.19225231848E+02  0.35207981320E+02  0.40128771037E+02  0.00000000000E+00 0.  1.
</event>
<event>
 6    1  0.3624778E-005  0.1145145E+03  0.7818608E-02  0.1258252E+00
          2   -1    0    0  502    0  0.00000000000E+00  0.00000000000E+00  0.56289084428E+03  0.56289084428E+03  0.00000000000E+00 0.  1.
          1   -1    0    0  501    0 -0.00000000000E+00 -0.00000000000E+00 -0.51788072467E+02  0.51788072467E+02  0.00000000000E+00 0.  1.
          2    1    1    2  501    0  0.10353538278E+03 -0.15372886708E+02  0.63165231331E+02  0.12225280194E+03  0.00000000000E+00 0.  1.
          1    1    1    2  502    0 -0.27908917362E+02  0.31215652739E+02  0.37510782956E+02  0.56217288108E+02  0.00000000000E+00 0.  1.
         22    1    1    2    0    0 -0.92887622662E+02 -0.36267067509E+02  0.39003376683E+03  0.40257887413E+03  0.00000000000E+00 0.  1.
         22    1    1    2    0    0  0.17261157245E+02  0.20424301477E+02  0.20392990696E+02  0.33629952569E+02  0.00000000000E+00 0.  1.
</event>
<event>
 6    1  0.3624778E-005  0.1246652E+03  0.7818608E-02  0.1328500E+00
          2   -1    0    0  502    0  0.00000000000E+00  0.00000000000E+00  0.89848475680E+02  0.89848475680E+02  0.00000000000E+00 0.  1.
          1   -1    0    0  501    0 -0.00000000000E+00 -0.00000000000E+00 -0.53159210812E+03  0.53159210812E+03  0.00000000000E+00 0.  1.
          2    1    1    2  501    0  0.16194332510E+01  0.55983429537E+02 -0.56389474089E+02  0.79476661573E+02  0.00000000000E+00 0.  1.
          1    1    1    2  502    0  0.25698378121E+02 -0.11523211887E+03 -0.38363562505E+03  0.40139150547E+03  0.00000000000E+00 0.  1.
         22    1    1    2    0    0 -0.10086840792E+02 -0.18813929172E+02  0.43695705512E+02  0.48631501809E+02  0.00000000000E+00 0.  1.
         22    1    1    2    0    0 -0.17230970580E+02  0.78062618502E+02 -0.45414238817E+02  0.91940914950E+02  0.00000000000E+00 0.  1.
</event>
<event>
 6    1  0.3624778E-005  0.1046882E+03  0.7818608E-02  0.1369973E+00
          2   -1    0    0  502    0  0.00000000000E+00  0.00000000000E+00  0.14778676989E+03  0.14778676989E+03  0.00000000000E+00 0. -1.
          1   -1    0    0  501    0 -0.00000000000E+00 -0.00000000000E+00 -0.43037164641E+03  0.43037164641E+03  0.00000000000E+00 0. -1.
          2    1    1    2  501    0  0.54449495985E+02 -0.48412582294E+02 -0.30831412116E+03  0.31680612848E+03  0.00000000000E+00 0. -1.
          1    1    1    2  502    0 -0.84943410007E+02  0.33858844110E+02  0.80177819371E+02  0.12161532365E+03  0.00000000000E+00 0. -1.
         22    1    1    2    0    0  0.16343672224E+02  0.25264847239E+02 -0.92757970271E+02  0.97516507200E+02  0.00000000000E+00 0. -1.
         22    1    1    2    0    0  0.14150241797E+02 -0.10711109056E+02  0.38309395539E+02  0.42220456969E+02  0.00000000000E+00 0. -1.
</event>
<event>
 6    1  0.3624778E-005  0.9410666E+02  0.7818608E-02  0.1361862E+00
          2   -1    0    0  502    0  0.00000000000E+00  0.00000000000E+00  0.46517350795E+03  0.46517350795E+03  0.00000000000E+00 0. -1.
          1   -1    0    0  501    0 -0.00000000000E+00 -0.00000000000E+00 -0.62789038308E+02  0.62789038308E+02  0.00000000000E+00 0. -1.
          2    1    1    2  501    0  0.10251708228E+03  0.22853728507E+02  0.25111813707E+02  0.10799374173E+03  0.00000000000E+00 0. -1.
          1    1    1    2  502    0 -0.15336067794E+02 -0.19771111644E+02  0.12162400139E+03  0.12417121061E+03  0.00000000000E+00 0. -1.
         22    1    1    2    0    0 -0.64269454699E+02 -0.19120015664E+02  0.25908428007E+03  0.26762063072E+03  0.00000000000E+00 0. -1.
         22    1    1    2    0    0 -0.22911559788E+02  0.16037398801E+02 -0.34356255216E+01  0.28176963196E+02  0.00000000000E+00 0. -1.
</event>
<event>
 6    1  0.3624778E-005  0.1598743E+03  0.7818608E-02  0.1291655E+00
          2   -1    0    0  502    0  0.00000000000E+00  0.00000000000E+00  0.14457095137E+03  0.14457095137E+03  0.00000000000E+00 0. -1.
          1   -1    0    0  501    0 -0.00000000000E+00 -0.00000000000E+00 -0.12131404662E+04  0.12131404662E+04  0.00000000000E+00 0.  1.
          2    1    1    2  501    0 -0.50271914551E+02 -0.12242412704E+02 -0.84442998430E+02  0.99034145855E+02  0.00000000000E+00 0. -1.
          1    1    1    2  502    0 -0.42674160198E+02 -0.23416151092E+02 -0.10756618479E+04  0.10767626531E+04  0.00000000000E+00 0.  1.
         22    1    1    2    0    0  0.77373625777E+02  0.23503380390E+02 -0.72354509993E+01  0.81187675215E+02  0.00000000000E+00 0. -1.
         22    1    1    2    0    0  0.15572448971E+02  0.12155183406E+02  0.98770782499E+02  0.10072694340E+03  0.00000000000E+00 0. -1.
</event>
<event>
 6    1  0.3624778E-005  0.7556923E+02  0.7818608E-02  0.1405276E+00
          2   -1    0    0  502    0  0.00000000000E+00  0.00000000000E+00  0.78571394344E+02  0.78571394344E+02  0.00000000000E+00 0. -1.
          1   -1    0    0  501    0 -0.00000000000E+00 -0.00000000000E+00 -0.65111929017E+03  0.65111929017E+03  0.00000000000E+00 0. -1.
          2    1    1    2  501    0 -0.50894802826E+02 -0.20307743087E+02 -0.49660713339E+03  0.49962118682E+03  0.00000000000E+00 0. -1.
          1    1    1    2  502    0  0.71521370507E+02  0.39849122784E+01  0.10793767520E+02  0.72440951003E+02  0.00000000000E+00 0. -1.
         22    1    1    2    0    0 -0.36163952306E+01  0.26452414321E+02  0.29460830054E+02  0.39758634853E+02  0.00000000000E+00 0. -1.
         22    1    1    2    0    0 -0.17010172450E+02 -0.10129583512E+02 -0.11619536001E+03  0.11786991184E+03  0.00000000000E+00 0. -1.
</event>
<event>
 6    1  0.3624778E-005  0.1159995E+03  0.7818608E-02  0.1354755E+00
          2   -1    0    0  502    0  0.00000000000E+00  0.00000000000E+00  0.16335533698E+03  0.16335533698E+03  0.00000000000E+00 0. -1.
          1   -1    0    0  501    0 -0.00000000000E+00 -0.00000000000E+00 -0.15725953981E+03  0.15725953981E+03  0.00000000000E+00 0. -1.
          2    1    1    2  501    0 -0.22502300492E+02  0.22921874351E+02 -0.88771887434E+01  0.33325220647E+02  0.00000000000E+00 0. -1.
          1    1    1    2  502    0  0.55116738165E+02 -0.11032283852E+03 -0.31685793327E+02  0.12733017327E+03  0.00000000000E+00 0. -1.
         22    1    1    2    0    0 -0.39584597688E+01  0.16360108523E+02  0.76066029006E+02  0.77906118652E+02  0.00000000000E+00 0.  1.
         22    1    1    2    0    0 -0.28655977905E+02  0.71040855649E+02 -0.29407249767E+02  0.82053364221E+02  0.00000000000E+00 0. -1.
</event>
<event>
 6    1  0.3624778E-005  0.1082584E+03  0.7818608E-02  0.1344103E+00
          2   -1    0    0  502    0  0.00000000000E+00  0.00000000000E+00  0.11213141972E+03  0.11213141972E+03  0.00000000000E+00 0.  1.
          1   -1    0    0  501    0 -0.00000000000E+00 -0.00000000000E+00 -0.25756923578E+04  0.25756923578E+04  0.00000000000E+00 0.  1.
          2    1    1    2  501    0  0.18195434594E+02  0.10361484591E+02 -0.88134348854E+03  0.88159218406E+03  0.00000000000E+00 0.  1.
          1    1    1    2  502    0 -0.23926471518E+02 -0.13111304387E+02 -0.16610240057E+04  0.16612480639E+04  0.00000000000E+00 0.  1.
         22    1    1    2    0    0 -0.19107333748E+02  0.26854272917E+01 -0.28734254566E+02  0.34611545879E+02  0.00000000000E+00 0. -1.
         22    1    1    2    0    0  0.24838370671E+02  0.64392504416E-01  0.10754081073E+03  0.11037198366E+03  0.00000000000E+00 0.  1.
</event>
<event>
 6    1  0.3624778E-005  0.2633581E+03  0.7818608E-02  0.1248709E+00
          2   -1    0    0  502    0  0.00000000000E+00  0.00000000000E+00  0.50285473517E+02  0.50285473517E+02  0.00000000000E+00 0. -1.
          1   -1    0    0  501    0 -0.00000000000E+00 -0.00000000000E+00 -0.19313933424E+04  0.19313933424E+04  0.00000000000E+00 0. -1.
          2    1    1    2  501    0 -0.18564970138E+03 -0.26453943003E+02 -0.54632948651E+03  0.57761711415E+03  0.00000000000E+00 0. -1.
          1    1    1    2  502    0  0.25620779631E+03  0.61993942128E+01 -0.10784223201E+04  0.11084563897E+04  0.00000000000E+00 0. -1.
         22    1    1    2    0    0 -0.54773489375E+01 -0.85340750579E+01  0.13295535481E+02  0.16721335240E+02  0.00000000000E+00 0.  1.
         22    1    1    2    0    0 -0.65080746001E+02  0.28788623848E+02 -0.26965159775E+03  0.27888397683E+03  0.00000000000E+00 0.  1.
</event>
<event>
 6    1  0.3624778E-005  0.1554761E+03  0.7818608E-02  0.1291078E+00
          2   -1    0    0  502    0  0.00000000000E+00  0.00000000000E+00  0.23427359723E+03  0.23427359723E+03  0.00000000000E+00 0. -1.
          1   -1    0    0  501    0 -0.00000000000E+00 -0.00000000000E+00 -0.96790067915E+03  0.96790067915E+03  0.00000000000E+00 0.  1.
          2    1    1    2  501    0  0.18000922897E+02  0.54240566255E+02  0.10328136538E+03  0.11803860677E+03  0.00000000000E+00 0. -1.
          1    1    1    2  502    0  0.24509398796E+02 -0.69967512432E+02 -0.92039134168E+03  0.92337228963E+03  0.00000000000E+00 0.  1.
         22    1    1    2    0    0  0.20559690753E+02  0.69792306292E+01  0.93781586299E+02  0.96262123771E+02  0.00000000000E+00 0. -1.
         22    1    1    2    0    0 -0.63070012446E+02  0.87477155471E+01 -0.10298691919E+02  0.64501256208E+02  0.00000000000E+00 0.  1.
</event>
<event>
 6    1  0.3624778E-005  0.6134727E+02  0.7818608E-02  0.1399800E+00
          2   -1    0    0  502    0  0.00000000000E+00  0.00000000000E+00  0.21399817695E+03  0.21399817695E+03  0.00000000000E+00 0. -1.
          1   -1    0    0  501    0 -0.00000000000E+00 -0.00000000000E+00 -0.11448790505E+03  0.11448790505E+03  0.00000000000E+00 0.  1.
          2    1    1    2  501    0  0.72809883924E+01  0.36746820620E+02 -0.11072440528E+02  0.39063289120E+02  0.00000000000E+00 0. -1.
          1    1    1    2  502    0 -0.20319063197E+02 -0.34738165965E+02 -0.62106954736E+02  0.74005934426E+02  0.00000000000E+00 0.  1.
         22    1    1    2    0    0  0.13553755566E+01  0.48372336466E+02  0.16884516807E+02  0.51252384197E+02  0.00000000000E+00 0.  1.
         22    1    1    2    0    0  0.11682699248E+02 -0.50380991121E+02  0.15580515036E+03  0.16416447426E+03  0.00000000000E+00 0. -1.
</event>
<event>
 6    1  0.5276059E-005  0.9975074E+02  0.7818608E-02  0.1339243E+00
          2   -1    0    0  502    0  0.00000000000E+00  0.00000000000E+00  0.13673883217E+03  0.13673883217E+03  0.00000000000E+00 0. -1.
          1   -1    0    0  501    0 -0.00000000000E+00 -0.00000000000E+00 -0.81923123826E+03  0.81923123826E+03  0.00000000000E+00 0. -1.
          2    1    1    2  501    0 -0.26885255392E+02 -0.59330369634E+01 -0.71912549781E+01  0.28455790856E+02  0.00000000000E+00 0. -1.
          1    1    1    2  502    0  0.24633493483E+02  0.96304623072E+01 -0.77196195173E+03  0.77241492070E+03  0.00000000000E+00 0. -1.
         22    1    1    2    0    0  0.12958988391E+02 -0.32638721338E+02  0.11428773967E+03  0.11956131879E+03  0.00000000000E+00 0. -1.
         22    1    1    2    0    0 -0.10707226483E+02  0.28941295994E+02 -0.17626939052E+02  0.35538040085E+02  0.00000000000E+00 0.  1.
</event>
<event>
 6    1  0.3624778E-005  0.3743728E+02  0.7818608E-02  0.1534827E+00
          2   -1    0    0  502    0  0.00000000000E+00  0.00000000000E+00  0.19058010232E+03  0.19058010232E+03  0.00000000000E+00 0. -1.
          1   -1    0    0  501    0 -0.00000000000E+00 -0.00000000000E+00 -0.35959276955E+03  0.35959276955E+03  0.00000000000E+00 0. -1.
          2    1    1    2  501    0 -0.15625383417E+02  0.29967067320E+02 -0.41592958826E+02  0.53592461733E+02  0.00000000000E+00 0. -1.
          1    1    1    2  502    0  0.18336983963E+02 -0.19679709640E+02 -0.28910800326E+03  0.29035663158E+03  0.00000000000E+00 0. -1.
         22    1    1    2    0    0  0.59285828783E+01 -0.33155584918E+02  0.17512078984E+03  0.17833040106E+03  0.00000000000E+00 0. -1.
         22    1    1    2    0    0 -0.86401834246E+01  0.22868227238E+02 -0.13432494988E+02  0.27893377498E+02  0.00000000000E+00 0. -1.
</event>
<event>
 6    1  0.3624778E-005  0.2746972E+03  0.7818608E-02  0.1103476E+00
          2   -1    0    0  502    0  0.00000000000E+00  0.00000000000E+00  0.47911728765E+03  0.47911728765E+03  0.00000000000E+00 0. -1.
          1   -1    0    0  501    0 -0.00000000000E+00 -0.00000000000E+00 -0.29548661387E+04  0.29548661387E+04  0.00000000000E+00 0. -1.
          2    1    1    2  501    0  0.34745491681E+03 -0.34944641412E+03 -0.39971436873E+02  0.49440411742E+03  0.00000000000E+00 0. -1.
          1    1    1    2  502    0 -0.16482384318E+03  0.20767745486E+03 -0.26101034936E+04  0.26235352241E+04  0.00000000000E+00 0. -1.
         22    1    1    2    0    0  0.65243216697E+01 -0.95671968471E+01 -0.69294199821E+01  0.13494995000E+02  0.00000000000E+00 0.  1.
         22    1    1    2    0    0 -0.18915539530E+03  0.15133615611E+03  0.18125549941E+03  0.30254908987E+03  0.00000000000E+00 0. -1.
</event>
<event>
 6    1  0.3624778E-005  0.3344873E+03  0.7818608E-02  0.1176091E+00
          2   -1    0    0  502    0  0.00000000000E+00  0.00000000000E+00  0.14718281982E+04  0.14718281982E+04  0.00000000000E+00 0. -1.
          1   -1    0    0  501    0 -0.00000000000E+00 -0.00000000000E+00 -0.47545790782E+03  0.47545790782E+03  0.00000000000E+00 0.  1.
          2    1    1    2  501    0  0.13324547283E+03  0.24772407834E+02  0.40750731097E+03  0.42945341623E+03  0.00000000000E+00 0. -1.
          1    1    1    2  502    0  0.48288399296E+02 -0.34464847063E+02 -0.45103214466E+03  0.45491712509E+03  0.00000000000E+00 0.  1.
         22    1    1    2    0    0  0.12809174879E+02 -0.19369414475E+02  0.12784356330E+03  0.12993546805E+03  0.00000000000E+00 0. -1.
         22    1    1    2    0    0 -0.19434304700E+03  0.29061853704E+02  0.91205156077E+03  0.93298009666E+03  0.00000000000E+00 0. -1.
</event>
<event>
 6    1  0.3624778E-005  0.8777079E+02  0.7818608E-02  0.1394091E+00
          2   -1    0    0  502    0  0.00000000000E+00  0.00000000000E+00  0.75401610318E+02  0.75401610318E+02  0.00000000000E+00 0. -1.
          1   -1    0    0  501    0 -0.00000000000E+00 -0.00000000000E+00 -0.10233840226E+04  0.10233840226E+04  0.00000000000E+00 0. -1.
          2    1    1    2  501    0  0.57068535104E+02 -0.27098244999E+02 -0.78483029261E+03  0.78736885941E+03  0.00000000000E+00 0. -1.
          1    1    1    2  502    0 -0.71936140666E+02 -0.46407615844E+01 -0.16307472035E+03  0.17829668931E+03  0.00000000000E+00 0. -1.
         22    1    1    2    0    0  0.10919062471E+02  0.11781980526E+02 -0.64027610357E+02  0.66011937393E+02  0.00000000000E+00 0. -1.
         22    1    1    2    0    0  0.39485430907E+01  0.19957026058E+02  0.63950211011E+02  0.67108146822E+02  0.00000000000E+00 0. -1.
</event>
<event>
 6    1  0.3624778E-005  0.2808575E+03  0.7818608E-02  0.1181546E+00
          2   -1    0    0  502    0  0.00000000000E+00  0.00000000000E+00  0.68633172908E+03  0.68633172908E+03  0.00000000000E+00 0.  1.
          1   -1    0    0  501    0 -0.00000000000E+00 -0.00000000000E+00 -0.11123715108E+03  0.11123715108E+03  0.00000000000E+00 0.  1.
          2    1    1    2  501    0 -0.17908488372E+02  0.87553673428E+02  0.18819116297E+02  0.91326440995E+02  0.00000000000E+00 0.  1.
          1    1    1    2  502    0  0.90897689142E+02 -0.20769183938E+03  0.19549592479E+03  0.29936089699E+03  0.00000000000E+00 0.  1.
         22    1    1    2    0    0 -0.10634314805E+03  0.11060018969E+03  0.29491077645E+03  0.33243590835E+03  0.00000000000E+00 0.  1.
         22    1    1    2    0    0  0.33353947278E+02  0.95379762681E+01  0.65868760472E+02  0.74445633830E+02  0.00000000000E+00 0. -1.
</event>
<event>
 6    1  0.3624778E-005  0.3789394E+03  0.7818608E-02  0.1159819E+00
          2   -1    0    0  502    0  0.00000000000E+00  0.00000000000E+00  0.55392472835E+03  0.55392472835E+03  0.00000000000E+00 0.  1.
          1   -1    0    0  501    0 -0.00000000000E+00 -0.00000000000E+00 -0.20211767227E+03  0.20211767227E+03  0.00000000000E+00 0.  1.
          2    1    1    2  501    0  0.13136387032E+03  0.10678134054E+02 -0.10063344306E+02  0.13218078480E+03  0.00000000000E+00 0.  1.
          1    1    1    2  502    0 -0.13224487135E+03 -0.16387376869E+03 -0.85554064611E+00  0.21058026977E+03  0.00000000000E+00 0.  1.
         22    1    1    2    0    0  0.10612228537E+02 -0.20634807896E+02  0.55459009772E+02  0.60117522041E+02  0.00000000000E+00 0. -1.
         22    1    1    2    0    0 -0.97312275033E+01  0.17383044254E+03  0.30726693126E+03  0.35316382401E+03  0.00000000000E+00 0.  1.
</event>
<event>
 6    1  0.3624778E-005  0.8484915E+02  0.7818608E-02  0.1342267E+00
          2   -1    0    0  502    0  0.00000000000E+00  0.00000000000E+00  0.58678337025E+02  0.58678337025E+02  0.00000000000E+00 0. -1.
          1   -1    0    0  501    0 -0.00000000000E+00 -0.00000000000E+00 -0.26691246069E+03  0.26691246069E+03  0.00000000000E+00 0. -1.
          2    1    1    2  501    0 -0.19349696743E+02  0.16360359338E+02 -0.83749326965E+02  0.87498696498E+02  0.00000000000E+00 0. -1.
          1    1    1    2  502    0  0.18989310269E+02 -0.58637356672E+02 -0.76923801806E+02  0.98570811026E+02  0.00000000000E+00 0. -1.
         22    1    1    2    0    0  0.53085434092E+02  0.41727997584E+01  0.81550481887E+01  0.53870032314E+02  0.00000000000E+00 0. -1.
         22    1    1    2    0    0 -0.52725047618E+02  0.38104197576E+02 -0.55716043084E+02  0.85651257879E+02  0.00000000000E+00 0. -1.
</event>
<event>
 6    1  0.3624778E-005  0.7552881E+02  0.7818608E-02  0.1373861E+00
          2   -1    0    0  502    0  0.00000000000E+00  0.00000000000E+00  0.31839307706E+03  0.31839307706E+03  0.00000000000E+00 0.  1.
          1   -1    0    0  501    0 -0.00000000000E+00 -0.00000000000E+00 -0.59541053776E+02  0.59541053776E+02  0.00000000000E+00 0. -1.
          2    1    1    2  501    0  0.30048498914E+02  0.28941930550E+01  0.92191396156E+01  0.31563922058E+02  0.00000000000E+00 0.  1.
          1    1    1    2  502    0 -0.55294619580E+02  0.15520694121E+02 -0.61924526350E+01  0.57764464596E+02  0.00000000000E+00 0. -1.
         22    1    1    2    0    0  0.40288575275E+02  0.18470967615E+02  0.24262574967E+03  0.24664062996E+03  0.00000000000E+00 0.  1.
         22    1    1    2    0    0 -0.15042454609E+02 -0.36885854791E+02  0.13199586626E+02  0.41965114219E+02  0.00000000000E+00 0.  1.
</event>
<event>
 6    1  0.3624778E-005  0.6220484E+02  0.7818608E-02  0.1419593E+00
          2   -1    0    0  502    0  0.00000000000E+00  0.00000000000E+00  0.76171709338E+02  0.76171709338E+02  0.00000000000E+00 0. -1.
          1   -1    0    0  501    0 -0.00000000000E+00 -0.00000000000E+00 -0.49568576690E+03  0.49568576690E+03  0.00000000000E+00 0. -1.
          2    1    1    2  501    0 -0.25695267654E+01  0.37702328378E+02 -0.32765178404E+03  0.32982383119E+03  0.00000000000E+00 0. -1.
          1    1    1    2  502    0  0.35175801740E+02 -0.73912778282E+02 -0.67162699117E+02  0.10588325634E+03  0.00000000000E+00 0. -1.
         22    1    1    2    0    0 -0.17980110261E+02  0.79825624354E+00 -0.72608214216E+02  0.74805576996E+02  0.00000000000E+00 0. -1.
         22    1    1    2    0    0 -0.14626164713E+02  0.35412193660E+02  0.47908639818E+02  0.61344811706E+02  0.00000000000E+00 0. -1.
</event>
<event>
 6    1  0.3624778E-005  0.7688291E+02  0.7818608E-02  0.1426864E+00
          2   -1    0    0  502    0  0.00000000000E+00  0.00000000000E+00  0.49433883060E+02  0.49433883060E+02  0.00000000000E+00 0. -1.
          1   -1    0    0  501    0 -0.00000000000E+00 -0.00000000000E+00 -0.67772985143E+03  0.67772985143E+03  0.00000000000E+00 0.  1.
          2    1    1    2  501    0  0.13213352699E+02 -0.15921352840E+02 -0.62108901417E+01  0.21602252710E+02  0.00000000000E+00 0. -1.
          1    1    1    2  502    0  0.43819992269E+01 -0.23152137368E+02 -0.55960057937E+03  0.56009644867E+03  0.00000000000E+00 0.  1.
         22    1    1    2    0    0 -0.11864217965E+02 -0.13742300799E+02  0.32159387027E+02  0.36930159397E+02  0.00000000000E+00 0. -1.
         22    1    1    2    0    0 -0.57311339608E+01  0.52815791007E+02 -0.94643885885E+02  0.10853487371E+03  0.00000000000E+00 0. -1.
</event>
<event>
 6    1  0.3624778E-005  0.1569317E+03  0.7818608E-02  0.1285530E+00
          2   -1    0    0  502    0  0.00000000000E+00  0.00000000000E+00  0.13828883371E+03  0.13828883371E+03  0.00000000000E+00 0. -1.
          1   -1    0    0  501    0 -0.00000000000E+00 -0.00000000000E+00 -0.27940820619E+03  0.27940820619E+03  0.00000000000E+00 0. -1.
          2    1    1    2  501    0  0.27157095050E+02  0.98833806097E+02 -0.15093978685E+03  0.18245122168E+03  0.00000000000E+00 0. -1.
          1    1    1    2  502    0 -0.72514382455E+02 -0.55137427352E+02  0.19144856665E+02  0.93085966153E+02  0.00000000000E+00 0. -1.
         22    1    1    2    0    0  0.53662176564E+02 -0.21785397644E+02 -0.61796329210E+02  0.84693677733E+02  0.00000000000E+00 0. -1.
         22    1    1    2    0    0 -0.83048891585E+01 -0.21910981101E+02  0.52471886916E+02  0.57466174340E+02  0.00000000000E+00 0. -1.
</event>
<event>
 6    1  0.3624778E-005  0.5395292E+02  0.7818608E-02  0.1495348E+00
          2   -1    0    0  502    0  0.00000000000E+00  0.00000000000E+00  0.46210852401E+02  0.46210852401E+02  0.00000000000E+00 0. -1.
          1   -1    0    0  501    0 -0.00000000000E+00 -0.00000000000E+00 -0.36000759694E+03  0.36000759694E+03  0.00000000000E+00 0.  1.
          2    1    1    2  501    0  0.13222777860E+02 -0.17056866244E+02 -0.17471631041E+03  0.17604422076E+03  0.00000000000E+00 0. -1.
          1    1    1    2  502    0  0.21530943326E+02  0.40451906047E+02 -0.72857178196E+02  0.86070358650E+02  0.00000000000E+00 0.  1.
         22    1    1    2    0    0 -0.25569812336E+02 -0.62567287648E+01 -0.10093829026E+03  0.10431443045E+03  0.00000000000E+00 0. -1.
         22    1    1    2    0    0 -0.91839088502E+01 -0.17138311038E+02  0.34715034323E+02  0.39789439492E+02  0.00000000000E+00 0. -1.
</event>
<event>
 6    1  0.3624778E-005  0.9304876E+02  0.7818608E-02  0.1300358E+00
          2   -1    0    0  502    0  0.00000000000E+00  0.00000000000E+00  0.22803462900E+03  0.22803462900E+03  0.00000000000E+00 0. -1.
          1   -1    0    0  501    0 -0.00000000000E+00 -0.00000000000E+00 -0.60159680518E+03  0.60159680518E+03  0.00000000000E+00 0. -1.
          2    1    1    2  501    0 -0.16632070516E+02  0.41257614514E+02  0.41828179973E+02  0.61060733413E+02  0.00000000000E+00 0. -1.
          1    1    1    2  502    0  0.69923311141E+02  0.17938583842E+02 -0.55811759706E+03  0.56276666069E+03  0.00000000000E+00 0. -1.
         22    1    1    2    0    0 -0.70236882883E+02 -0.87208915778E+02  0.12751897246E+03  0.16970475257E+03  0.00000000000E+00 0. -1.
         22    1    1    2    0    0  0.16945642258E+02  0.28012717422E+02  0.15208268448E+02  0.36099287501E+02  0.00000000000E+00 0. -1.
</event>
<event>
 6    1  0.3624778E-005  0.6887354E+02  0.7818608E-02  0.1421490E+00
          2   -1    0    0  502    0  0.00000000000E+00  0.00000000000E+00  0.23500736828E+02  0.23500736828E+02  0.00000000000E+00 0.  1.
          1   -1    0    0  501    0 -0.00000000000E+00 -0.00000000000E+00 -0.48994952556E+03  0.48994952556E+03  0.00000000000E+00 0.  1.
          2    1    1    2  501    0 -0.52255441952E+01  0.20624493879E+02 -0.14698397145E+03  0.14851587095E+03  0.00000000000E+00 0.  1.
          1    1    1    2  502    0  0.33893698541E+02 -0.36134500074E+02 -0.10572234709E+03  0.11675486958E+03  0.00000000000E+00 0.  1.
         22    1    1    2    0    0  0.85050771482E+01 -0.26063729082E+02 -0.14000954856E+00  0.27416672184E+02  0.00000000000E+00 0.  1.
         22    1    1    2    0    0 -0.37173231494E+02  0.41573735277E+02 -0.21360246064E+03  0.22076284967E+03  0.00000000000E+00 0.  1.
</event>
<event>
 6    1  0.3624778E-005  0.9752376E+02  0.7818608E-02  0.1292463E+00
          2   -1    0    0  502    0  0.00000000000E+00  0.00000000000E+00  0.30057258017E+03  0.30057258017E+03  0.00000000000E+00 0. -1.
          1   -1    0    0  501    0 -0.00000000000E+00 -0.00000000000E+00 -0.38791451843E+03  0.38791451843E+03  0.00000000000E+00 0.  1.
          2    1    1    2  501    0  0.17842321004E+02 -0.21235077690E+02  0.18228064395E+01  0.27795675322E+02  0.00000000000E+00 0. -1.
          1    1    1    2  502    0 -0.27281434680E+02 -0.44034246372E+02 -0.35514242114E+03  0.35890030764E+03  0.00000000000E+00 0.  1.
         22    1    1    2    0    0  0.10956818297E+02  0.10333881182E+03  0.20617082432E+03  0.23087955885E+03  0.00000000000E+00 0. -1.
         22    1    1    2    0    0 -0.15177046206E+01 -0.38069487761E+02  0.59806852125E+02  0.70911556793E+02  0.00000000000E+00 0. -1.
</event>
<event>
 6    1  0.3624778E-005  0.1795489E+03  0.7818608E-02  0.1177823E+00
          2   -1    0    0  502    0  0.00000000000E+00  0.00000000000E+00  0.29312035190E+03  0.29312035190E+03  0.00000000000E+00 0. -1.
          1   -1    0    0  501    0 -0.00000000000E+00 -0.00000000000E+00 -0.24349594109E+03  0.24349594109E+03  0.00000000000E+00 0.  1.
          2    1    1    2  501    0  0.64699123236E+02  0.12618319268E+03  0.88545995958E+02  0.16717825236E+03  0.00000000000E+00 0. -1.
          1    1    1    2  502    0 -0.20761514070E+02  0.13452760269E+02 -0.14480189357E+03  0.14689998505E+03  0.00000000000E+00 0.  1.
         22    1    1    2    0    0 -0.15654712685E+02  0.68415099618E+01  0.65917119655E+02  0.68095102257E+02  0.00000000000E+00 0. -1.
         22    1    1    2    0    0 -0.28282896481E+02 -0.14647746291E+03  0.39963188765E+02  0.15444295332E+03  0.00000000000E+00 0. -1.
</event>
<event>
 6    1  0.3624778E-005  0.8151777E+02  0.7818608E-02  0.1336260E+00
          2   -1    0    0  502    0  0.00000000000E+00  0.00000000000E+00  0.34780644290E+03  0.34780644290E+03  0.00000000000E+00 0. -1.
          1   -1    0    0  501    0 -0.00000000000E+00 -0.00000000000E+00 -0.72878469107E+02  0.72878469107E+02  0.00000000000E+00 0.  1.
          2    1    1    2  501    0  0.10239892607E+02 -0.27821999490E+02  0.65694613533E+02  0.72074276295E+02  0.00000000000E+00 0. -1.
          1    1    1    2  502    0 -0.27188755573E+02  0.21581404152E+02 -0.50065728223E+02  0.60922594965E+02  0.00000000000E+00 0.  1.
         22    1    1    2    0    0 -0.39665606217E+02 -0.33443591981E+02  0.78255784483E+02  0.93892502183E+02  0.00000000000E+00 0.  1.
         22    1    1    2    0    0  0.56614469184E+02  0.39684187320E+02  0.18104330400E+03  0.19379553856E+03  0.00000000000E+00 0. -1.
</event>
<event>
 6    1  0.3624778E-005  0.2836419E+03  0.7818608E-02  0.1186477E+00
          2   -1    0    0  502    0  0.00000000000E+00  0.00000000000E+00  0.46531787904E+03  0.46531787904E+03  0.00000000000E+00 0.  1.
          1   -1    0    0  501    0 -0.00000000000E+00 -0.00000000000E+00 -0.35859936754E+03  0.35859936754E+03  0.00000000000E+00 0.  1.
          2    1    1    2  501    0  0.57617942418E+02 -0.75936861030E+02  0.38742642172E+02  0.10289424898E+03  0.00000000000E+00 0.  1.
          1    1    1    2  502    0 -0.14829239742E+01 -0.46138483920E+02 -0.30295414548E+03  0.30645093086E+03  0.00000000000E+00 0.  1.
         22    1    1    2    0    0  0.29972969204E+02  0.34314030999E+01  0.26167745451E+02  0.39936253106E+02  0.00000000000E+00 0.  1.
         22    1    1    2    0    0 -0.86107987647E+02  0.11864394185E+03  0.34476226937E+03  0.37463581363E+03  0.00000000000E+00 0.  1.
</event>
<event>
 6    1  0.3624778E-005  0.1511270E+03  0.7818608E-02  0.1264256E+00
          2   -1    0    0  502    0  0.00000000000E+00  0.00000000000E+00  0.12027685186E+04  0.12027685186E+04  0.00000000000E+00 0.  1.
          1   -1    0    0  501    0 -0.00000000000E+00 -0.00000000000E+00 -0.64743418057E+02  0.64743418057E+02  0.00000000000E+00 0. -1.
          2    1    1    2  501    0 -0.39208406773E+02 -0.37241772772E+02  0.55411198338E+03  0.55674441077E+03  0.00000000000E+00 0.  1.
          1    1    1    2  502    0  0.20944029509E+02 -0.12154557739E+02 -0.53405042936E+02  0.58638590168E+02  0.00000000000E+00 0. -1.
         22    1    1    2    0    0 -0.37396868095E+02 -0.21742798948E+02  0.13522753966E+03  0.14197803538E+03  0.00000000000E+00 0. -1.
         22    1    1    2    0    0  0.55661245359E+02  0.71139129460E+02  0.50209062046E+03  0.51015090035E+03  0.00000000000E+00 0.  1.
</event>
<event>
 6    1  0.3624778E-005  0.2149102E+03  0.7818608E-02  0.1192655E+00
          2   -1    0    0  502    0  0.00000000000E+00  0.00000000000E+00  0.65488412924E+03  0.65488412924E+03  0.00000000000E+00 0.  1.
          1   -1    0    0  501    0 -0.00000000000E+00 -0.00000000000E+00 -0.63301103170E+03  0.63301103170E+03  0.00000000000E+00 0.  1.
          2    1    1    2  501    0 -0.66426530592E+02  0.23579678312E+02  0.19227312844E+02  0.73062813763E+02  0.00000000000E+00 0.  1.
          1    1    1    2  502    0  0.16470439371E+02 -0.16389229870E+02 -0.59797298094E+03  0.59842423761E+03  0.00000000000E+00 0.  1.
         22    1    1    2    0    0  0.36462100473E+02 -0.67310281517E+02  0.30776269812E+03  0.31714040601E+03  0.00000000000E+00 0.  1.
         22    1    1    2    0    0  0.13493990749E+02  0.60119833075E+02  0.29285606751E+03  0.29926770356E+03  0.00000000000E+00 0.  1.
</event>
<event>
 6    1  0.3624778E-005  0.1152385E+03  0.7818608E-02  0.1273164E+00
          2   -1    0    0  502    0  0.00000000000E+00  0.00000000000E+00  0.58106858821E+03  0.58106858821E+03  0.00000000000E+00 0.  1.
          1   -1    0    0  501    0 -0.00000000000E+00 -0.00000000000E+00 -0.38192730727E+03  0.38192730727E+03  0.00000000000E+00 0. -1.
          2    1    1    2  501    0 -0.14084630125E+02 -0.14399610111E+02  0.26954716903E+01  0.20322183562E+02  0.00000000000E+00 0.  1.
          1    1    1    2  502    0  0.64610969217E+02 -0.11898086482E+02 -0.36130710077E+03  0.36723148404E+03  0.00000000000E+00 0. -1.
         22    1    1    2    0    0 -0.94497721107E+02  0.24260630281E+02  0.38327550587E+03  0.39549780136E+03  0.00000000000E+00 0.  1.
         22    1    1    2    0    0  0.43971382015E+02  0.20370663115E+01  0.17447740415E+03  0.17994442651E+03  0.00000000000E+00 0. -1.
</event>
<event>
 6    1  0.3624778E-005  0.1637437E+03  0.7818608E-02  0.1263199E+00
          2   -1    0    0  502    0  0.00000000000E+00  0.00000000000E+00  0.70052337869E+03  0.70052337869E+03  0.00000000000E+00 0. -1.
          1   -1    0    0  501    0 -0.00000000000E+00 -0.00000000000E+00 -0.17471019748E+03  0.17471019748E+03  0.00000000000E+00 0.  1.
          2    1    1    2  501    0 -0.19474133721E+02 -0.10428537141E+02  0.15764991177E+03  0.15919010947E+03  0.00000000000E+00 0. -1.
          1    1    1    2  502    0  0.95291625554E+02  0.12889975103E+03 -0.11584305057E+03  0.19777576211E+03  0.00000000000E+00 0.  1.
         22    1    1    2    0    0 -0.87986533879E+02 -0.89228367785E+02  0.46441508018E+03  0.48102463395E+03  0.00000000000E+00 0. -1.
         22    1    1    2    0    0  0.12169042046E+02 -0.29242846100E+02  0.19591239818E+02  0.37243070630E+02  0.00000000000E+00 0. -1.
</event>
<event>
 6    1  0.3624778E-005  0.2107152E+03  0.7818608E-02  0.1205730E+00
          2   -1    0    0  502    0  0.00000000000E+00  0.00000000000E+00  0.95005840651E+03  0.95005840651E+03  0.00000000000E+00 0. -1.
          1   -1    0    0  501    0 -0.00000000000E+00 -0.00000000000E+00 -0.16531125612E+04  0.16531125612E+04  0.00000000000E+00 0.  1.
          2    1    1    2  501    0 -0.14119591246E+03  0.34262753631E+02  0.36303614615E+03  0.39103128442E+03  0.00000000000E+00 0. -1.
          1    1    1    2  502    0  0.20492907313E+03 -0.30933658222E+01 -0.16232900712E+04  0.16361772976E+04  0.00000000000E+00 0.  1.
         22    1    1    2    0    0  0.33244249494E+02 -0.35039421384E+02  0.20720200672E+03  0.21275716854E+03  0.00000000000E+00 0.  1.
         22    1    1    2    0    0 -0.96977410164E+02  0.38700335751E+01  0.34999776362E+03  0.36320521718E+03  0.00000000000E+00 0. -1.
</event>
<event>
 6    1  0.3624778E-005  0.3533085E+03  0.7818608E-02  0.1163263E+00
          2   -1    0    0  502    0  0.00000000000E+00  0.00000000000E+00  0.65421366241E+03  0.65421366241E+03  0.00000000000E+00 0. -1.
          1   -1    0    0  501    0 -0.00000000000E+00 -0.00000000000E+00 -0.22746517862E+03  0.22746517862E+03  0.00000000000E+00 0. -1.
          2    1    1    2  501    0 -0.19240197299E+02 -0.34570289159E+02 -0.36721018703E+02  0.53978915321E+02  0.00000000000E+00 0. -1.
          1    1    1    2  502    0 -0.44641306314E+02 -0.86460081627E+02 -0.15396078501E+03  0.18213213683E+03  0.00000000000E+00 0. -1.
         22    1    1    2    0    0  0.85145559321E+02  0.13672525476E+03  0.55143412141E+03  0.57447641537E+03  0.00000000000E+00 0. -1.
         22    1    1    2    0    0 -0.21264055709E+02 -0.15694883970E+02  0.65996166089E+02  0.71091373503E+02  0.00000000000E+00 0. -1.
</event>
<event>
 6    1  0.3624778E-005  0.6878499E+02  0.7818608E-02  0.1400508E+00
          2   -1    0    0  502    0  0.00000000000E+00  0.00000000000E+00  0.31298247423E+03  0.31298247423E+03  0.00000000000E+00 0. -1.
          1   -1    0    0  501    0 -0.00000000000E+00 -0.00000000000E+00 -0.12082120402E+03  0.12082120402E+03  0.00000000000E+00 0. -1.
          2    1    1    2  501    0  0.26899353979E+02 -0.65560190733E+01 -0.36812752568E+02  0.46062298925E+02  0.00000000000E+00 0. -1.
          1    1    1    2  502    0 -0.11203884210E+03  0.74600536891E+02  0.46407464960E+02  0.14237835175E+03  0.00000000000E+00 0. -1.
         22    1    1    2    0    0  0.12585020397E+02 -0.10925648577E+02 -0.18018311231E+02  0.24544084314E+02  0.00000000000E+00 0. -1.
         22    1    1    2    0    0  0.72554467720E+02 -0.57118869241E+02  0.20058486905E+03  0.22081894326E+03  0.00000000000E+00 0. -1.
</event>
<event>
 6    1  0.3624778E-005  0.2895340E+03  0.7818608E-02  0.1148309E+00
          2   -1    0    0  502    0  0.00000000000E+00  0.00000000000E+00  0.39588388930E+03  0.39588388930E+03  0.00000000000E+00 0. -1.
          1   -1    0    0  501    0 -0.00000000000E+00 -0.00000000000E+00 -0.29722219530E+03  0.29722219530E+03  0.00000000000E+00 0.  1.
          2    1    1    2  501    0  0.19919000327E+03 -0.14180259421E+03  0.10124917310E+03  0.26464320921E+03  0.00000000000E+00 0. -1.
          1    1    1    2  502    0 -0.20368213680E+03  0.18386334463E+03 -0.61071409562E+02  0.28110826992E+03  0.00000000000E+00 0.  1.
         22    1    1    2    0    0 -0.59697664103E+02 -0.32970166338E+02  0.43260682689E+02  0.80760941267E+02  0.00000000000E+00 0. -1.
         22    1    1    2    0    0  0.64189797632E+02 -0.90905840824E+01  0.15223247772E+02  0.66593664201E+02  0.00000000000E+00 0. -1.
</event>
<event>
 6    1  0.3624778E-005  0.1188796E+03  0.7818608E-02  0.1264909E+00
          2   -1    0    0  502    0  0.00000000000E+00  0.00000000000E+00  0.76885665919E+03  0.76885665919E+03  0.00000000000E+00 0. -1.
          1   -1    0    0  501    0 -0.00000000000E+00 -0.00000000000E+00 -0.40704270073E+02  0.40704270073E+02  0.00000000000E+00 0.  1.
          2    1    1    2  501    0 -0.52797826877E+02  0.46848871068E+01  0.11075385417E+03  0.12278426162E+03  0.00000000000E+00 0. -1.
          1    1    1    2  502    0 -0.10699925605E+01  0.56973203468E+02  0.48195663728E+01  0.57186703153E+02  0.00000000000E+00 0.  1.
         22    1    1    2    0    0  0.28254766414E+02 -0.97150777268E+02  0.44881622431E+03  0.46007891557E+03  0.00000000000E+00 0. -1.
         22    1    1    2    0    0  0.25613053024E+02  0.35492686693E+02  0.16376274427E+03  0.16951104891E+03  0.00000000000E+00 0. -1.
</event>
<event>
 6    1  0.3624778E-005  0.1482714E+03  0.7818608E-02  0.1333625E+00
          2   -1    0    0  502    0  0.00000000000E+00  0.00000000000E+00  0.10961025858E+03  0.10961025858E+03  0.00000000000E+00 0. -1.
          1   -1    0    0  501    0 -0.00000000000E+00 -0.00000000000E+00 -0.10718517818E+04  0.10718517818E+04  0.00000000000E+00 0. -1.
          2    1    1    2  501    0 -0.23230776717E+02 -0.77164470246E+02 -0.87307895221E+02  0.11881369039E+03  0.00000000000E+00 0. -1.
          1    1    1    2  502    0  0.30013831525E+02  0.13855389088E+03 -0.90981571787E+03  0.92079457603E+03  0.00000000000E+00 0. -1.
         22    1    1    2    0    0  0.95995296359E+01  0.65054228576E+01  0.64831136663E+02  0.65860062077E+02  0.00000000000E+00 0.  1.
         22    1    1    2    0    0 -0.16382584444E+02 -0.67894843495E+02 -0.29949046833E+02  0.75993711927E+02  0.00000000000E+00 0. -1.
</event>
<event>
 6    1  0.3624778E-005  0.7650893E+02  0.7818608E-02  0.1340224E+00
          2   -1    0    0  502    0  0.00000000000E+00  0.00000000000E+00  0.18172949190E+03  0.18172949190E+03  0.00000000000E+00 0.  1.
          1   -1    0    0  501    0 -0.00000000000E+00 -0.00000000000E+00 -0.76199532168E+03  0.76199532168E+03  0.00000000000E+00 0. -1.
          2    1    1    2  501    0 -0.18195022021E+02 -0.16605236769E+02  0.18067916609E+02  0.30549015125E+02  0.00000000000E+00 0.  1.
          1    1    1    2  502    0  0.89495771616E+01 -0.30627609251E+02 -0.72676123508E+03  0.72746136543E+03  0.00000000000E+00 0. -1.
         22    1    1    2    0    0  0.38802152692E+02  0.79530070671E+02  0.70714417513E+02  0.11327474581E+03  0.00000000000E+00 0.  1.
         22    1    1    2    0    0 -0.29556707833E+02 -0.32297224650E+02  0.57713071179E+02  0.72439687209E+02  0.00000000000E+00 0.  1.
</event>
<event>
 6    1  0.3624778E-005  0.7135836E+02  0.7818608E-02  0.1359573E+00
          2   -1    0    0  502    0  0.00000000000E+00  0.00000000000E+00  0.11612989619E+03  0.11612989619E+03  0.00000000000E+00 0. -1.
          1   -1    0    0  501    0 -0.00000000000E+00 -0.00000000000E+00 -0.31957346525E+03  0.31957346525E+03  0.00000000000E+00 0. -1.
          2    1    1    2  501    0  0.21125007137E+02 -0.59241930003E+01  0.32352306148E+02  0.39090071659E+02  0.00000000000E+00 0. -1.
          1    1    1    2  502    0 -0.20427384321E+02  0.87411893184E+01 -0.27047833171E+03  0.27138941458E+03  0.00000000000E+00 0. -1.
         22    1    1    2    0    0 -0.35243450883E+02  0.39453193001E+02 -0.11007908464E+02  0.54035445005E+02  0.00000000000E+00 0. -1.
         22    1    1    2    0    0  0.34545828068E+02 -0.42270189319E+02  0.45690364969E+02  0.71188430190E+02  0.00000000000E+00 0. -1.
</event>
<event>
 6    1  0.3624778E-005  0.1814467E+03  0.7818608E-02  0.1203743E+00
          2   -1    0    0  502    0  0.00000000000E+00  0.00000000000E+00  0.36651047679E+03  0.36651047679E+03  0.00000000000E+00 0. -1.
          1   -1    0    0  501    0 -0.00000000000E+00 -0.00000000000E+00 -0.64195666022E+03  0.64195666022E+03  0.00000000000E+00 0. -1.
          2    1    1    2  501    0 -0.14487221176E+03  0.82881596750E+02 -0.54871212166E+03  0.57353492420E+03  0.00000000000E+00 0. -1.
          1    1    1    2  502    0  0.11055636460E+03 -0.15589825889E+03  0.13171818314E+03  0.23211345642E+03  0.00000000000E+00 0. -1.
         22    1    1    2    0    0  0.44056337897E+02  0.65522462275E+02  0.16128125606E+03  0.17957114893E+03  0.00000000000E+00 0. -1.
         22    1    1    2    0    0 -0.97404907414E+01  0.74941998705E+01 -0.19733500979E+02  0.23247607457E+02  0.00000000000E+00 0.  1.
</event>
<event>
 6    1  0.3624778E-005  0.9853759E+02  0.7818608E-02  0.1301834E+00
          2   -1    0    0  502    0  0.00000000000E+00  0.00000000000E+00  0.12165313953E+03  0.12165313953E+03  0.00000000000E+00 0.  1.
          1   -1    0    0  501    0 -0.00000000000E+00 -0.00000000000E+00 -0.29430261014E+03  0.29430261014E+03  0.00000000000E+00 0.  1.
          2    1    1    2  501    0  0.49263848573E+02  0.15616453436E+02  0.22067325723E+02  0.56194014438E+02  0.00000000000E+00 0.  1.
          1    1    1    2  502    0 -0.52181463006E+02 -0.39118899106E+02 -0.21883144320E+03  0.22834271147E+03  0.00000000000E+00 0.  1.
         22    1    1    2    0    0 -0.20200714731E+02  0.72024755477E+02  0.75905933656E+01  0.75188106671E+02  0.00000000000E+00 0.  1.
         22    1    1    2    0    0  0.23118329164E+02 -0.48522309806E+02  0.16524053499E+02  0.56230917085E+02  0.00000000000E+00 0.  1.
</event>
<event>
 6    1  0.3624778E-005  0.8820387E+02  0.7818608E-02  0.1327164E+00
          2   -1    0    0  502    0  0.00000000000E+00  0.00000000000E+00  0.36932301812E+03  0.36932301812E+03  0.00000000000E+00 0.  1.
          1   -1    0    0  501    0 -0.00000000000E+00 -0.00000000000E+00 -0.10391263391E+03  0.10391263391E+03  0.00000000000E+00 0.  1.
          2    1    1    2  501    0  0.19028470216E+02  0.16087167925E+02  0.26631161647E+02  0.36470514409E+02  0.00000000000E+00 0.  1.
          1    1    1    2  502    0 -0.12645589164E+02 -0.31290512827E+02 -0.84522749917E+02  0.91011550760E+02  0.00000000000E+00 0.  1.
         22    1    1    2    0    0  0.91523621163E+01 -0.48162526228E+02  0.79740192070E+02  0.93604983287E+02  0.00000000000E+00 0. -1.
         22    1    1    2    0    0 -0.15535243169E+02  0.63365871129E+02  0.24356178042E+03  0.25214860358E+03  0.00000000000E+00 0.  1.
</event>
<event>
 6    1  0.3624778E-005  0.7074557E+02  0.7818608E-02  0.1361263E+00
          2   -1    0    0  502    0  0.00000000000E+00  0.00000000000E+00  0.22784250201E+02  0.22784250201E+02  0.00000000000E+00 0.  1.
          1   -1    0    0  501    0 -0.00000000000E+00 -0.00000000000E+00 -0.50558187984E+03  0.50558187984E+03  0.00000000000E+00 0.  1.
          2    1    1    2  501    0  0.23444110941E+02 -0.21966361716E+02 -0.24226888505E+02  0.40237911371E+02  0.00000000000E+00 0.  1.
          1    1    1    2  502    0  0.20059647006E+02  0.14369332178E+02 -0.17488377616E+03  0.17661597410E+03  0.00000000000E+00 0.  1.
         22    1    1    2    0    0 -0.48425187792E+02  0.46646024432E+02 -0.25249168010E+03  0.26129083208E+03  0.00000000000E+00 0.  1.
         22    1    1    2    0    0  0.49214298449E+01 -0.39048994894E+02 -0.31195284875E+02  0.50221412489E+02  0.00000000000E+00 0.  1.
</event>
<event>
 6    1  0.3624778E-005  0.1229906E+03  0.7818608E-02  0.1286489E+00
          2   -1    0    0  502    0  0.00000000000E+00  0.00000000000E+00  0.70792649333E+03  0.70792649333E+03  0.00000000000E+00 0. -1.
          1   -1    0    0  501    0 -0.00000000000E+00 -0.00000000000E+00 -0.15361554556E+04  0.15361554556E+04  0.00000000000E+00 0. -1.
          2    1    1    2  501    0  0.40094875760E+02  0.27819262786E+02  0.13369724771E+03  0.14232520679E+03  0.00000000000E+00 0. -1.
          1    1    1    2  502    0 -0.56788783906E+02  0.47394298008E+02 -0.15211903589E+04  0.15229876209E+04  0.00000000000E+00 0. -1.
         22    1    1    2    0    0 -0.52807652726E+02 -0.28612178512E+02  0.31203134418E+03  0.31775912999E+03  0.00000000000E+00 0.  1.
         22    1    1    2    0    0  0.69501560872E+02 -0.46601382282E+02  0.24723280472E+03  0.26100999124E+03  0.00000000000E+00 0. -1.
</event>
<event>
 6    1  0.4393370E-005  0.5345311E+03  0.7818608E-02  0.1005139E+00
          2   -1    0    0  502    0  0.00000000000E+00  0.00000000000E+00  0.13654541559E+04  0.13654541559E+04  0.00000000000E+00 0. -1.
          1   -1    0    0  501    0 -0.00000000000E+00 -0.00000000000E+00 -0.11503657982E+04  0.11503657982E+04  0.00000000000E+00 0. -1.
          2    1    1    2  501    0  0.30934629161E+03  0.68749967823E+02  0.67349050056E+03  0.74431924639E+03  0.00000000000E+00 0. -1.
          1    1    1    2  502    0 -0.48179841642E+03 -0.80735760195E+02 -0.10414384543E+04  0.11503225770E+04  0.00000000000E+00 0. -1.
         22    1    1    2    0    0  0.28111587106E+02  0.54946762016E+02  0.21023562569E+03  0.21910825246E+03  0.00000000000E+00 0. -1.
         22    1    1    2    0    0  0.14434053770E+03 -0.42960969643E+02  0.37280068576E+03  0.40206987830E+03  0.00000000000E+00 0.  1.
</event>
<event>
 6    1  0.3624778E-005  0.1399346E+03  0.7818608E-02  0.1270470E+00
          2   -1    0    0  502    0  0.00000000000E+00  0.00000000000E+00  0.10080259868E+04  0.10080259868E+04  0.00000000000E+00 0. -1.
          1   -1    0    0  501    0 -0.00000000000E+00 -0.00000000000E+00 -0.25326301417E+02  0.25326301417E+02  0.00000000000E+00 0. -1.
          2    1    1    2  501    0  0.66621816838E+02 -0.10620729552E+02  0.21149408447E+03  0.22199327499E+03  0.00000000000E+00 0. -1.
          1    1    1    2  502    0 -0.90478465450E+02  0.61657374847E+02  0.43086646827E+03  0.44456034243E+03  0.00000000000E+00 0. -1.
         22    1    1    2    0    0  0.65471486698E+02 -0.65509625543E+02  0.23737595408E+03  0.25480457254E+03  0.00000000000E+00 0. -1.
         22    1    1    2    0    0 -0.41614838086E+02  0.14472980248E+02  0.10296317861E+03  0.11199409831E+03  0.00000000000E+00 0. -1.
</event>
<event>
 6    1  0.3624778E-005  0.7720808E+02  0.7818608E-02  0.1339891E+00
          2   -1    0    0  502    0  0.00000000000E+00  0.00000000000E+00  0.50696374068E+02  0.50696374068E+02  0.00000000000E+00 0. -1.
          1   -1    0    0  501    0 -0.00000000000E+00 -0.00000000000E+00 -0.28249092449E+03  0.28249092449E+03  0.00000000000E+00 0.  1.
          2    1    1    2  501    0 -0.22116440164E+02 -0.13177190762E+01 -0.13743461507E+01  0.22198246247E+02  0.00000000000E+00 0. -1.
          1    1    1    2  502    0 -0.12790247505E+02 -0.19485226281E+02 -0.16435892845E+03  0.16600337899E+03  0.00000000000E+00 0.  1.
         22    1    1    2    0    0  0.74787476134E+02  0.38168013563E+02 -0.32454652312E+02  0.90018155405E+02  0.00000000000E+00 0. -1.
         22    1    1    2    0    0 -0.39880788464E+02 -0.17365068206E+02 -0.33606623509E+02  0.54967517917E+02  0.00000000000E+00 0. -1.
</event>
<event>
 6    1  0.3624778E-005  0.1304655E+03  0.7818608E-02  0.1227836E+00
          2   -1    0    0  502    0  0.00000000000E+00  0.00000000000E+00  0.84388752094E+03  0.84388752094E+03  0.00000000000E+00 0. -1.
          1   -1    0    0  501    0 -0.00000000000E+00 -0.00000000000E+00 -0.64955526700E+02  0.64955526700E+02  0.00000000000E+00 0. -1.
          2    1    1    2  501    0 -0.93617279451E+02 -0.43537011024E+02  0.76347001019E+02  0.12840767464E+03  0.00000000000E+00 0. -1.
          1    1    1    2  502    0 -0.19920916174E+02  0.10237513042E+03  0.77141092494E+02  0.12972377723E+03  0.00000000000E+00 0. -1.
         22    1    1    2    0    0  0.12502486940E+03 -0.60470037768E+02  0.62370467420E+03  0.63897994026E+03  0.00000000000E+00 0. -1.
         22    1    1    2    0    0 -0.11486673780E+02  0.16319183761E+01  0.17392265285E+01  0.11731655511E+02  0.00000000000E+00 0. -1.
</event>
<event>
 6    1  0.3624778E-005  0.9887491E+02  0.7818608E-02  0.1343119E+00
          2   -1    0    0  502    0  0.00000000000E+00  0.00000000000E+00  0.41413866990E+02  0.41413866990E+02  0.00000000000E+00 0. -1.
          1   -1    0    0  501    0 -0.00000000000E+00 -0.00000000000E+00 -0.70761302713E+03  0.70761302713E+03  0.00000000000E+00 0. -1.
          2    1    1    2  501    0 -0.21496374510E+02 -0.80880229317E+01 -0.16681182119E+03  0.16838555140E+03  0.00000000000E+00 0. -1.
          1    1    1    2  502    0  0.62190561688E+02  0.47891603285E+02 -0.39950880394E+03  0.40714684827E+03  0.00000000000E+00 0. -1.
         22    1    1    2    0    0 -0.14788510296E+02 -0.60503823713E+02 -0.11964748338E+03  0.13488859478E+03  0.00000000000E+00 0. -1.
         22    1    1    2    0    0 -0.25905676881E+02  0.20700243360E+02  0.19768948375E+02  0.38605899674E+02  0.00000000000E+00 0. -1.
</event>
<event>
 6    1  0.3624778E-005  0.7592637E+02  0.7818608E-02  0.1405862E+00
          2   -1    0    0  502    0  0.00000000000E+00  0.00000000000E+00  0.12841273592E+03  0.12841273592E+03  0.00000000000E+00 0. -1.
          1   -1    0    0  501    0 -0.00000000000E+00 -0.00000000000E+00 -0.49102596306E+03  0.49102596306E+03  0.00000000000E+00 0. -1.
          2    1    1    2  501    0  0.61595436716E+01 -0.21671819283E+02 -0.33181106212E+03  0.33257508727E+03  0.00000000000E+00 0. -1.
          1    1    1    2  502    0 -0.51057305844E+02  0.56898049419E+01 -0.11478811848E+03  0.12575982866E+03  0.00000000000E+00 0. -1.
         22    1    1    2    0    0  0.23712965161E+02  0.10862764076E+02  0.11792190647E+03  0.12077201822E+03  0.00000000000E+00 0. -1.
         22    1    1    2    0    0  0.21184797012E+02  0.51192502655E+01 -0.33935952998E+02  0.40331764822E+02  0.00000000000E+00 0. -1.
</event>
<event>
 6    1  0.3624778E-005  0.1618319E+03  0.7818608E-02  0.1253952E+00
          2   -1    0    0  502    0  0.00000000000E+00  0.00000000000E+00  0.12854128501E+03  0.12854128501E+03  0.00000000000E+00 0.  1.
          1   -1    0    0  501    0 -0.00000000000E+00 -0.00000000000E+00 -0.16181831574E+03  0.16181831574E+03  0.00000000000E+00 0.  1.
          2    1    1    2  501    0 -0.20811135971E+02 -0.72004892258E+02 -0.57070602750E+02  0.94206483788E+02  0.00000000000E+00 0.  1.
          1    1    1    2  502    0  0.48212812436E+02  0.24475570671E+02 -0.52469123523E+01  0.54323649839E+02  0.00000000000E+00 0.  1.
         22    1    1    2    0    0  0.36776112179E+02 -0.14042252149E+02  0.35024044776E+02  0.52691090185E+02  0.00000000000E+00 0.  1.
         22    1    1    2    0    0 -0.64177788645E+02  0.61571573736E+02 -0.59835604011E+01  0.89138376935E+02  0.00000000000E+00 0.  1.
</event>
<event>
 6    1  0.3624778E-005  0.9744591E+02  0.7818608E-02  0.1310142E+00
          2   -1    0    0  502    0  0.00000000000E+00  0.00000000000E+00  0.81570985748E+02  0.81570985748E+02  0.00000000000E+00 0.  1.
          1   -1    0    0  501    0 -0.00000000000E+00 -0.00000000000E+00 -0.18663594552E+04  0.18663594552E+04  0.00000000000E+00 0.  1.
          2    1    1    2  501    0  0.12915154750E+02  0.68306619121E+02 -0.28448583921E+03  0.29285625851E+03  0.00000000000E+00 0.  1.
          1    1    1    2  502    0 -0.55462115233E+02  0.82609300735E+00 -0.15019990408E+04  0.15030229031E+04  0.00000000000E+00 0.  1.
         22    1    1    2    0    0  0.13469274020E+02 -0.61040472166E+02  0.59843869216E+02  0.86536982080E+02  0.00000000000E+00 0.  1.
         22    1    1    2    0    0  0.29077686463E+02 -0.80922399627E+01 -0.58147458647E+02  0.65514297255E+02  0.00000000000E+00 0.  1.
</event>
<event>
 6    1  0.3624778E-005  0.8844300E+02  0.7818608E-02  0.1384248E+00
          2   -1    0    0  502    0  0.00000000000E+00  0.00000000000E+00  0.40412114844E+02  0.40412114844E+02  0.00000000000E+00 0. -1.
          1   -1    0    0  501    0 -0.00000000000E+00 -0.00000000000E+00 -0.79131012313E+03  0.79131012313E+03  0.00000000000E+00 0.  1.
          2    1    1    2  501    0 -0.24971075900E+02  0.36640322847E+02 -0.40149687705E+02  0.59816931656E+02  0.00000000000E+00 0. -1.
          1    1    1    2  502    0  0.13645883170E+02 -0.17798727388E+02 -0.61251633551E+03  0.61292680321E+03  0.00000000000E+00 0.  1.
         22    1    1    2    0    0  0.19080564985E+02  0.13303542502E+02  0.23362710184E+02  0.32967687672E+02  0.00000000000E+00 0. -1.
         22    1    1    2    0    0 -0.77553722555E+01 -0.32145137961E+02 -0.12159469526E+03  0.12601081544E+03  0.00000000000E+00 0. -1.
</event>
<event>
 6    1  0.3624778E-005  0.2495058E+03  0.7818608E-02  0.1181810E+00
          2   -1    0    0  502    0  0.00000000000E+00  0.00000000000E+00  0.41694538343E+03  0.41694538343E+03  0.00000000000E+00 0.  1.
          1   -1    0    0  501    0 -0.00000000000E+00 -0.00000000000E+00 -0.91459087902E+03  0.91459087902E+03  0.00000000000E+00 0. -1.
          2    1    1    2  501    0  0.75535823142E+02  0.16061379108E+03  0.13816713819E+02  0.17802626785E+03  0.00000000000E+00 0.  1.
          1    1    1    2  502    0 -0.11443748085E+03 -0.22777357942E+03 -0.79422701970E+03  0.83413026520E+03  0.00000000000E+00 0. -1.
         22    1    1    2    0    0  0.15484636044E+02  0.46687673244E+02  0.28402232688E+03  0.28825022976E+03  0.00000000000E+00 0.  1.
         22    1    1    2    0    0  0.23417021666E+02  0.20472115096E+02 -0.12575166043E+01  0.31129499646E+02  0.00000000000E+00 0.  1.
</event>
<event>
 6    1  0.3624778E-005  0.1935772E+03  0.7818608E-02  0.1219633E+00
          2   -1    0    0  502    0  0.00000000000E+00  0.00000000000E+00  0.14869641236E+03  0.14869641236E+03  0.00000000000E+00 0.  1.
          1   -1    0    0  501    0 -0.00000000000E+00 -0.00000000000E+00 -0.92068720623E+03  0.92068720623E+03  0.00000000000E+00 0.  1.
          2    1    1    2  501    0  0.46508919256E+02  0.38934966425E+02 -0.36202103857E+02  0.70637125540E+02  0.00000000000E+00 0.  1.
          1    1    1    2  502    0  0.27465803671E+02  0.32859096634E+02 -0.81836545206E+03  0.81948526754E+03  0.00000000000E+00 0.  1.
         22    1    1    2    0    0 -0.10577468553E+03 -0.37558535367E+02  0.61678442436E+02  0.12807481383E+03  0.00000000000E+00 0.  1.
         22    1    1    2    0    0  0.31799962601E+02 -0.34235527692E+02  0.20898319603E+02  0.51186411673E+02  0.00000000000E+00 0.  1.
</event>
<event>
 6    1  0.3624778E-005  0.1689181E+03  0.7818608E-02  0.1221167E+00
          2   -1    0    0  502    0  0.00000000000E+00  0.00000000000E+00  0.47426991159E+03  0.47426991159E+03  0.00000000000E+00 0.  1.
          1   -1    0    0  501    0 -0.00000000000E+00 -0.00000000000E+00 -0.90905276598E+02  0.90905276598E+02  0.00000000000E+00 0.  1.
          2    1    1    2  501    0  0.28596107944E+02  0.94955021720E+02  0.15129848651E+03  0.18090170137E+03  0.00000000000E+00 0.  1.
          1    1    1    2  502    0 -0.46210170622E+02 -0.12593576666E+03  0.20274584096E+02  0.13566965746E+03  0.00000000000E+00 0.  1.
         22    1    1    2    0    0 -0.45503274961E+02  0.68910365774E+01  0.15052164332E+03  0.15740012555E+03  0.00000000000E+00 0.  1.
         22    1    1    2    0    0  0.63117337638E+02  0.24089708367E+02  0.61269921069E+02  0.91203703804E+02  0.00000000000E+00 0. -1.
</event>
<event>
 6    1  0.3624778E-005  0.8542450E+02  0.7818608E-02  0.1336080E+00
          2   -1    0    0  502    0  0.00000000000E+00  0.00000000000E+00  0.98637269474E+02  0.98637269474E+02  0.00000000000E+00 0. -1.
          1   -1    0    0  501    0 -0.00000000000E+00 -0.00000000000E+00 -0.21270130404E+03  0.21270130404E+03  0.00000000000E+00 0. -1.
          2    1    1    2  501    0 -0.27345300390E+02  0.63700424171E+01 -0.52091064622E+02  0.59176193754E+02  0.00000000000E+00 0. -1.
          1    1    1    2  502    0  0.15394789256E+02 -0.64327200493E+02  0.42404906662E+02  0.78569487516E+02  0.00000000000E+00 0. -1.
         22    1    1    2    0    0  0.54200006043E+02  0.18085892544E+02 -0.10020503590E+03  0.11535072338E+03  0.00000000000E+00 0.  1.
         22    1    1    2    0    0 -0.42249494909E+02  0.39871265532E+02 -0.41728407110E+01  0.58242168871E+02  0.00000000000E+00 0. -1.
</event>
<event>
 6    1  0.3624778E-005  0.2475879E+03  0.7818608E-02  0.1186103E+00
          2   -1    0    0  502    0  0.00000000000E+00  0.00000000000E+00  0.14675950139E+03  0.14675950139E+03  0.00000000000E+00 0. -1.
          1   -1    0    0  501    0 -0.00000000000E+00 -0.00000000000E+00 -0.86972027043E+03  0.86972027043E+03  0.00000000000E+00 0. -1.
          2    1    1    2  501    0 -0.22489055834E+02  0.26306755729E+02 -0.11356369424E+03  0.11872032546E+03  0.00000000000E+00 0. -1.
          1    1    1    2  502    0  0.45546005835E+02 -0.10981657415E+02 -0.72586970499E+03  0.72738013725E+03  0.00000000000E+00 0. -1.
         22    1    1    2    0    0  0.21074396517E+02 -0.27347341174E+02  0.11964791296E+03  0.12452963637E+03  0.00000000000E+00 0. -1.
         22    1    1    2    0    0 -0.44131346518E+02  0.12022242861E+02 -0.31752827742E+01  0.45849672732E+02  0.00000000000E+00 0. -1.
</event>
<event>
 6    1  0.3624778E-005  0.8575363E+02  0.7818608E-02  0.1314834E+00
          2   -1    0    0  502    0  0.00000000000E+00  0.00000000000E+00  0.47194059297E+02  0.47194059297E+02  0.00000000000E+00 0. -1.
          1   -1    0    0  501    0 -0.00000000000E+00 -0.00000000000E+00 -0.22380215485E+04  0.22380215485E+04  0.00000000000E+00 0. -1.
          2    1    1    2  501    0 -0.20198070481E+02  0.23737706005E+02 -0.15419552510E+03  0.15731401939E+03  0.00000000000E+00 0. -1.
          1    1    1    2  502    0  0.59510605904E+01  0.40095672180E+02 -0.19670000998E+04  0.19674177163E+04  0.00000000000E+00 0. -1.
         22    1    1    2    0    0 -0.10836886663E+02  0.22617752007E+02 -0.65764190267E+02  0.70384156881E+02  0.00000000000E+00 0.  1.
         22    1    1    2    0    0  0.25083896553E+02 -0.86451130192E+02 -0.38676740881E+01  0.90099715208E+02  0.00000000000E+00 0. -1.
</event>
<event>
 6    1  0.3624778E-005  0.9308642E+02  0.7818608E-02  0.1303011E+00
          2   -1    0    0  502    0  0.00000000000E+00  0.00000000000E+00  0.10634666042E+04  0.10634666042E+04  0.00000000000E+00 0. -1.
          1   -1    0    0  501    0 -0.00000000000E+00 -0.00000000000E+00 -0.20533337419E+02  0.20533337419E+02  0.00000000000E+00 0. -1.
          2    1    1    2  501    0 -0.70408642130E+02 -0.66806113176E+01  0.11467754827E+03  0.13473287473E+03  0.00000000000E+00 0. -1.
          1    1    1    2  502    0  0.63818639865E+02 -0.23418569591E+02  0.32633892501E+03  0.33334417975E+03  0.00000000000E+00 0. -1.
         22    1    1    2    0    0  0.54723341764E+02  0.50388639699E+02  0.42480410969E+03  0.43126811934E+03  0.00000000000E+00 0. -1.
         22    1    1    2    0    0 -0.48133339500E+02 -0.20289458790E+02  0.17711268382E+03  0.18465476782E+03  0.00000000000E+00 0. -1.
</event>
<event>
 6    1  0.3624778E-005  0.7812452E+02  0.7818608E-02  0.1335936E+00
          2   -1    0    0  502    0  0.00000000000E+00  0.00000000000E+00  0.18776574451E+03  0.18776574451E+03  0.00000000000E+00 0.  1.
          1   -1    0    0  501    0 -0.00000000000E+00 -0.00000000000E+00 -0.71991679162E+02  0.71991679162E+02  0.00000000000E+00 0. -1.
          2    1    1    2  501    0  0.45264481312E+02  0.11846178770E+02  0.13997073101E+02  0.48837723895E+02  0.00000000000E+00 0.  1.
          1    1    1    2  502    0 -0.16744571987E+02  0.18611767765E+02 -0.19637256628E+02  0.31818240653E+02  0.00000000000E+00 0. -1.
         22    1    1    2    0    0 -0.58537023014E+02 -0.47915752307E+02  0.12293319451E+03  0.14434359250E+03  0.00000000000E+00 0.  1.
         22    1    1    2    0    0  0.30017113689E+02  0.17457805773E+02 -0.15189456356E+01  0.34757866627E+02  0.00000000000E+00 0.  1.
</event>
<event>
 6    1  0.3624778E-005  0.1410901E+03  0.7818608E-02  0.1284682E+00
          2   -1    0    0  502    0  0.00000000000E+00  0.00000000000E+00  0.31438844228E+03  0.31438844228E+03  0.00000000000E+00 0. -1.
          1   -1    0    0  501    0 -0.00000000000E+00 -0.00000000000E+00 -0.13022634515E+03  0.13022634515E+03  0.00000000000E+00 0. -1.
          2    1    1    2  501    0 -0.19662924838E+02  0.18317709713E+02 -0.18338155419E+02  0.32533936843E+02  0.00000000000E+00 0. -1.
          1    1    1    2  502    0 -0.27260963169E+02  0.13118216931E+02 -0.86996161477E+02  0.92106350704E+02  0.00000000000E+00 0. -1.
         22    1    1    2    0    0 -0.30822806596E+02  0.72991945072E+01  0.16596925790E+03  0.16896484314E+03  0.00000000000E+00 0. -1.
         22    1    1    2    0    0  0.77746694603E+02 -0.38735121151E+02  0.12352715613E+03  0.15100965675E+03  0.00000000000E+00 0. -1.
</event>
<event>
 6    1  0.3624778E-005  0.3340041E+03  0.7818608E-02  0.1153999E+00
          2   -1    0    0  502    0  0.00000000000E+00  0.00000000000E+00  0.35851787531E+02  0.35851787531E+02  0.00000000000E+00 0.  1.
          1   -1    0    0  501    0 -0.00000000000E+00 -0.00000000000E+00 -0.11507035449E+04  0.11507035449E+04  0.00000000000E+00 0.  1.
          2    1    1    2  501    0 -0.13636544082E+03  0.82819677518E+00 -0.74383476398E+03  0.75623169430E+03  0.00000000000E+00 0.  1.
          1    1    1    2  502    0 -0.18181024261E+02  0.92646132653E+01 -0.42895337994E+02  0.47501502332E+02  0.00000000000E+00 0.  1.
         22    1    1    2    0    0  0.48157334403E+01  0.38175515065E+02 -0.47688373868E+02  0.61275951573E+02  0.00000000000E+00 0.  1.
         22    1    1    2    0    0  0.14973073164E+03 -0.48268325105E+02 -0.28043328155E+03  0.32154618425E+03  0.00000000000E+00 0.  1.
</event>
<event>
 6    1  0.3624778E-005  0.9468517E+02  0.7818608E-02  0.1321987E+00
          2   -1    0    0  502    0  0.00000000000E+00  0.00000000000E+00  0.53510100443E+02  0.53510100443E+02  0.00000000000E+00 0. -1.
          1   -1    0    0  501    0 -0.00000000000E+00 -0.00000000000E+00 -0.31397623764E+03  0.31397623764E+03  0.00000000000E+00 0. -1.
          2    1    1    2  501    0  0.59570750027E+01 -0.33267574410E+02 -0.40989719809E+02  0.53126032976E+02  0.00000000000E+00 0. -1.
          1    1    1    2  502    0  0.85096326336E+01  0.87286957635E+02 -0.63289641093E+02  0.10815269525E+03  0.00000000000E+00 0. -1.
         22    1    1    2    0    0 -0.52339389619E+02 -0.14571892568E+02 -0.13843343641E+03  0.14871303936E+03  0.00000000000E+00 0. -1.
         22    1    1    2    0    0  0.37872681983E+02 -0.39447490657E+02 -0.17753339887E+02  0.57494570498E+02  0.00000000000E+00 0. -1.
</event>
<event>
 6    1  0.3624778E-005  0.6435532E+02  0.7818608E-02  0.1387258E+00
          2   -1    0    0  502    0  0.00000000000E+00  0.00000000000E+00  0.91885844447E+02  0.91885844447E+02  0.00000000000E+00 0.  1.
          1   -1    0    0  501    0 -0.00000000000E+00 -0.00000000000E+00 -0.18337815023E+03  0.18337815023E+03  0.00000000000E+00 0.  1.
          2    1    1    2  501    0 -0.23765063820E+02  0.10723373503E+02  0.78947174567E+01  0.27241430971E+02  0.00000000000E+00 0.  1.
          1    1    1    2  502    0 -0.21706435621E+02  0.18255582660E+02 -0.10392192064E+03  0.10772279812E+03  0.00000000000E+00 0.  1.
         22    1    1    2    0    0 -0.27325053698E+02  0.73507265366E+01 -0.38876535493E+02  0.48084059232E+02  0.00000000000E+00 0.  1.
         22    1    1    2    0    0  0.72796553139E+02 -0.36329682700E+02  0.43411432888E+02  0.92215706359E+02  0.00000000000E+00 0.  1.
</event>
<event>
 6    1  0.3624778E-005  0.2337758E+03  0.7818608E-02  0.1199384E+00
          2   -1    0    0  502    0  0.00000000000E+00  0.00000000000E+00  0.33519023874E+03  0.33519023874E+03  0.00000000000E+00 0. -1.
          1   -1    0    0  501    0 -0.00000000000E+00 -0.00000000000E+00 -0.13512269276E+03  0.13512269276E+03  0.00000000000E+00 0. -1.
          2    1    1    2  501    0 -0.85317186936E+02 -0.22634113416E+02 -0.55610164721E+01  0.88443486934E+02  0.00000000000E+00 0. -1.
          1    1    1    2  502    0  0.92418645088E+02 -0.23280852026E+02 -0.39787630603E+02  0.10327758508E+03  0.00000000000E+00 0. -1.
         22    1    1    2    0    0 -0.11255480355E+02 -0.38980767107E+02  0.43341937383E+02  0.59369264593E+02  0.00000000000E+00 0. -1.
         22    1    1    2    0    0  0.41540222034E+01  0.84895732550E+02  0.20207425567E+03  0.21922259489E+03  0.00000000000E+00 0. -1.
</event>
<event>
 6    1  0.3624778E-005  0.1258535E+03  0.7818608E-02  0.1341394E+00
          2   -1    0    0  502    0  0.00000000000E+00  0.00000000000E+00  0.83416052169E+02  0.83416052169E+02  0.00000000000E+00 0. -1.
          1   -1    0    0  501    0 -0.00000000000E+00 -0.00000000000E+00 -0.17011616963E+04  0.17011616963E+04  0.00000000000E+00 0.  1.
          2    1    1    2  501    0  0.88493749453E+01 -0.64784008986E+02 -0.11414091382E+03  0.13154249300E+03  0.00000000000E+00 0. -1.
          1    1    1    2  502    0  0.33036754149E+02  0.85047109853E+02 -0.15133408779E+04  0.15160887344E+04  0.00000000000E+00 0.  1.
         22    1    1    2    0    0  0.14702893528E+02  0.76321869164E+01  0.56201179591E+02  0.58591790745E+02  0.00000000000E+00 0. -1.
         22    1    1    2    0    0 -0.56589022622E+02 -0.27895287783E+02 -0.46465032084E+02  0.78354730352E+02  0.00000000000E+00 0. -1.
</event>
<event>
 6    1  0.3624778E-005  0.1020286E+03  0.7818608E-02  0.1354770E+00
          2   -1    0    0  502    0  0.00000000000E+00  0.00000000000E+00  0.17029544341E+03  0.17029544341E+03  0.00000000000E+00 0.  1.
          1   -1    0    0  501    0 -0.00000000000E+00 -0.00000000000E+00 -0.21092585808E+04  0.21092585808E+04  0.00000000000E+00 0. -1.
          2    1    1    2  501    0  0.22281489966E+02  0.59969352331E+02 -0.10694636039E+03  0.12462067250E+03  0.00000000000E+00 0.  1.
          1    1    1    2  502    0  0.20064258159E+02 -0.65220952667E+02 -0.19654326647E+04  0.19666168683E+04  0.00000000000E+00 0. -1.
         22    1    1    2    0    0 -0.13528573011E+02 -0.20701814157E+02  0.14558498595E+03  0.14767049648E+03  0.00000000000E+00 0.  1.
         22    1    1    2    0    0 -0.28817175113E+02  0.25953414493E+02 -0.12169098280E+02  0.40645986989E+02  0.00000000000E+00 0.  1.
</event>
<event>
 6    1  0.3624778E-005  0.4304169E+03  0.7818608E-02  0.1116263E+00
          2   -1    0    0  502    0  0.00000000000E+00  0.00000000000E+00  0.15089740202E+03  0.15089740202E+03  0.00000000000E+00 0. -1.
          1   -1    0    0  501    0 -0.00000000000E+00 -0.00000000000E+00 -0.82799717414E+03  0.82799717414E+03  0.00000000000E+00 0. -1.
          2    1    1    2  501    0  0.96658977045E+02  0.10733830738E+02 -0.42486253772E+03  0.43585129222E+03  0.00000000000E+00 0. -1.
          1    1    1    2  502    0 -0.90715623557E+02  0.57422574275E+02 -0.35176899893E+03  0.36778812515E+03  0.00000000000E+00 0. -1.
         22    1    1    2    0    0  0.33240074088E+02 -0.91210348777E+02  0.79918070188E+02  0.12574230868E+03  0.00000000000E+00 0. -1.
         22    1    1    2    0    0 -0.39183427575E+02  0.23053943764E+02  0.19613694352E+02  0.49512850107E+02  0.00000000000E+00 0.  1.
</event>
<event>
 6    1  0.3624778E-005  0.1155833E+03  0.7818608E-02  0.1335072E+00
          2   -1    0    0  502    0  0.00000000000E+00  0.00000000000E+00  0.40388457397E+02  0.40388457397E+02  0.00000000000E+00 0.  1.
          1   -1    0    0  501    0 -0.00000000000E+00 -0.00000000000E+00 -0.58464083956E+03  0.58464083956E+03  0.00000000000E+00 0.  1.
          2    1    1    2  501    0  0.49249323478E+02 -0.50333315841E+01 -0.22060385747E+03  0.22609045142E+03  0.00000000000E+00 0.  1.
          1    1    1    2  502    0 -0.87146179759E+02 -0.20781124290E+02 -0.18950196559E+03  0.20961227716E+03  0.00000000000E+00 0.  1.
         22    1    1    2    0    0  0.44951855488E+02  0.48615990764E+02 -0.14771159431E+03  0.16187309524E+03  0.00000000000E+00 0.  1.
         22    1    1    2    0    0 -0.70549992063E+01 -0.22801534890E+02  0.13565035210E+02  0.27453473139E+02  0.00000000000E+00 0.  1.
</event>
<event>
 6    1  0.3624778E-005  0.2057933E+03  0.7818608E-02  0.1229110E+00
          2   -1    0    0  502    0  0.00000000000E+00  0.00000000000E+00  0.13060353891E+03  0.13060353891E+03  0.00000000000E+00 0. -1.
          1   -1    0    0  501    0 -0.00000000000E+00 -0.00000000000E+00 -0.96532688954E+03  0.96532688954E+03  0.00000000000E+00 0.  1.
          2    1    1    2  501    0  0.52306814161E+02  0.95373782154E+02 -0.85362410474E+02  0.13827111865E+03  0.00000000000E+00 0. -1.
          1    1    1    2  502    0 -0.15047901166E+00 -0.11628886130E+03 -0.80390096370E+03  0.81226835550E+03  0.00000000000E+00 0.  1.
         22    1    1    2    0    0 -0.82999280050E+02  0.28091068536E+02  0.65157372218E+01  0.87866054036E+02  0.00000000000E+00 0. -1.
         22    1    1    2    0    0  0.30842944900E+02 -0.71759893939E+01  0.48024286322E+02  0.57524900266E+02  0.00000000000E+00 0. -1.
</event>
<event>
 6    1  0.3624778E-005  0.3244890E+03  0.7818608E-02  0.1176112E+00
          2   -1    0    0  502    0  0.00000000000E+00  0.00000000000E+00  0.48726588729E+02  0.48726588729E+02  0.00000000000E+00 0. -1.
          1   -1    0    0  501    0 -0.00000000000E+00 -0.00000000000E+00 -0.84297337147E+03  0.84297337147E+03  0.00000000000E+00 0. -1.
          2    1    1    2  501    0 -0.97094838325E+02 -0.89697808371E+02 -0.91453972221E+02  0.16073871186E+03  0.00000000000E+00 0. -1.
          1    1    1    2  502    0  0.28494816595E+02  0.15851395834E+01 -0.17146227928E+03  0.17382111626E+03  0.00000000000E+00 0. -1.
         22    1    1    2    0    0  0.51777298336E+02  0.10717400538E+03 -0.51073617276E+03  0.52442215268E+03  0.00000000000E+00 0. -1.
         22    1    1    2    0    0  0.16822723395E+02 -0.19061336590E+02 -0.20594358474E+02  0.32717979399E+02  0.00000000000E+00 0. -1.
</event>
<event>
 6    1  0.3624778E-005  0.1263544E+03  0.7818608E-02  0.1244249E+00
          2   -1    0    0  502    0  0.00000000000E+00  0.00000000000E+00  0.19460494549E+03  0.19460494549E+03  0.00000000000E+00 0. -1.
          1   -1    0    0  501    0 -0.00000000000E+00 -0.00000000000E+00 -0.19305049106E+03  0.19305049106E+03  0.00000000000E+00 0. -1.
          2    1    1    2  501    0 -0.80096237573E+02  0.74340716820E+01  0.35198771729E+02  0.87804477256E+02  0.00000000000E+00 0. -1.
          1    1    1    2  502    0  0.50405461343E+02 -0.11586515299E+03 -0.40374025847E+02  0.13264805379E+03  0.00000000000E+00 0. -1.
         22    1    1    2    0    0  0.52503395425E+02  0.12327755680E+03  0.22315769232E+02  0.13583797738E+03  0.00000000000E+00 0. -1.
         22    1    1    2    0    0 -0.22812619195E+02 -0.14846475490E+02 -0.15586060683E+02  0.31364928130E+02  0.00000000000E+00 0. -1.
</event>
<event>
 6    1  0.3624778E-005  0.9233393E+02  0.7818608E-02  0.1301769E+00
          2   -1    0    0  502    0  0.00000000000E+00  0.00000000000E+00  0.30284150504E+03  0.30284150504E+03  0.00000000000E+00 0. -1.
          1   -1    0    0  501    0 -0.00000000000E+00 -0.00000000000E+00 -0.81436278669E+02  0.81436278669E+02  0.00000000000E+00 0. -1.
          2    1    1    2  501    0  0.13231234800E+02  0.31742477808E+02 -0.23530131266E+02  0.41669143849E+02  0.00000000000E+00 0. -1.
          1    1    1    2  502    0  0.64614958035E+02 -0.50148363857E+02  0.41319044984E+02  0.91636317461E+02  0.00000000000E+00 0. -1.
         22    1    1    2    0    0 -0.95118038988E+02 -0.12033636889E+02  0.19110156833E+03  0.21380378663E+03  0.00000000000E+00 0. -1.
         22    1    1    2    0    0  0.17271846153E+02  0.30439522938E+02  0.12514744327E+02  0.37168535777E+02  0.00000000000E+00 0. -1.
</event>
<event>
 6    1  0.3624778E-005  0.1323251E+03  0.7818608E-02  0.1304275E+00
          2   -1    0    0  502    0  0.00000000000E+00  0.00000000000E+00  0.64359217408E+02  0.64359217408E+02  0.00000000000E+00 0.  1.
          1   -1    0    0  501    0 -0.00000000000E+00 -0.00000000000E+00 -0.11671377243E+04  0.11671377243E+04  0.00000000000E+00 0. -1.
          2    1    1    2  501    0  0.74822777762E+01  0.29978334471E+02 -0.69064200387E+02  0.75660748037E+02  0.00000000000E+00 0.  1.
          1    1    1    2  502    0 -0.21817093535E+02 -0.63992589932E+02 -0.10193750697E+04  0.10216146876E+04  0.00000000000E+00 0. -1.
         22    1    1    2    0    0 -0.19101079965E+02 -0.19905410301E+02 -0.53124314489E+02  0.59860416011E+02  0.00000000000E+00 0.  1.
         22    1    1    2    0    0  0.33435895723E+02  0.53919665761E+02  0.38785077637E+02  0.74361090134E+02  0.00000000000E+00 0.  1.
</event>
<event>
 6    1  0.3624778E-005  0.1999156E+03  0.7818608E-02  0.1245822E+00
          2   -1    0    0  502    0  0.00000000000E+00  0.00000000000E+00  0.45272722449E+03  0.45272722449E+03  0.00000000000E+00 0. -1.
          1   -1    0    0  501    0 -0.00000000000E+00 -0.00000000000E+00 -0.18532266833E+03  0.18532266833E+03  0.00000000000E+00 0. -1.
          2    1    1    2  501    0 -0.90706915862E+02  0.14486227663E+03 -0.72660501280E+02  0.18572122179E+03  0.00000000000E+00 0. -1.
          1    1    1    2  502    0  0.88227628728E+02 -0.14678839235E+03  0.23775090782E+03  0.29301269728E+03  0.00000000000E+00 0. -1.
         22    1    1    2    0    0 -0.80744437937E+01  0.23200728544E+02  0.12444966196E+03  0.12685104970E+03  0.00000000000E+00 0. -1.
         22    1    1    2    0    0  0.10553730928E+02 -0.21274612823E+02 -0.22135512341E+02  0.32464924055E+02  0.00000000000E+00 0.  1.
</event>
<event>
 6    1  0.3624778E-005  0.2726704E+03  0.7818608E-02  0.1191497E+00
          2   -1    0    0  502    0  0.00000000000E+00  0.00000000000E+00  0.17865862281E+03  0.17865862281E+03  0.00000000000E+00 0.  1.
          1   -1    0    0  501    0 -0.00000000000E+00 -0.00000000000E+00 -0.15284847019E+04  0.15284847019E+04  0.00000000000E+00 0. -1.
          2    1    1    2  501    0  0.91585302600E+02  0.21143061898E+03 -0.20385934774E+03  0.30765143906E+03  0.00000000000E+00 0.  1.
          1    1    1    2  502    0 -0.15423249997E+03 -0.20748850699E+03 -0.12155353515E+04  0.12427249637E+04  0.00000000000E+00 0. -1.
         22    1    1    2    0    0  0.30011976677E+02 -0.47666741773E+01  0.10457492272E+03  0.10890066294E+03  0.00000000000E+00 0. -1.
         22    1    1    2    0    0  0.32635220696E+02  0.82456218190E+00 -0.35006302520E+02  0.47866258980E+02  0.00000000000E+00 0. -1.
</event>
<event>
 6    1  0.3624778E-005  0.1621409E+03  0.7818608E-02  0.1250057E+00
          2   -1    0    0  502    0  0.00000000000E+00  0.00000000000E+00  0.44788900806E+03  0.44788900806E+03  0.00000000000E+00 0. -1.
          1   -1    0    0  501    0 -0.00000000000E+00 -0.00000000000E+00 -0.60785998458E+02  0.60785998458E+02  0.00000000000E+00 0. -1.
          2    1    1    2  501    0 -0.83379830855E+02 -0.10725324336E+02  0.38188072134E+02  0.92333946243E+02  0.00000000000E+00 0. -1.
          1    1    1    2  502    0  0.59496844293E+02 -0.38369187984E+02  0.21539884470E+03  0.22673493636E+03  0.00000000000E+00 0. -1.
         22    1    1    2    0    0  0.32660474711E+02 -0.26877567085E+02  0.86383130707E+01  0.43170947099E+02  0.00000000000E+00 0.  1.
         22    1    1    2    0    0 -0.87774881486E+01  0.75972079404E+02  0.12487777970E+03  0.14643517682E+03  0.00000000000E+00 0.  1.
</event>
<event>
 6    1  0.3624778E-005  0.9028284E+02  0.7818608E-02  0.1380953E+00
          2   -1    0    0  502    0  0.00000000000E+00  0.00000000000E+00  0.10559009785E+03  0.10559009785E+03  0.00000000000E+00 0.  1.
          1   -1    0    0  501    0 -0.00000000000E+00 -0.00000000000E+00 -0.58204801390E+03  0.58204801390E+03  0.00000000000E+00 0.  1.
          2    1    1    2  501    0 -0.19560031930E+02 -0.25108555919E+02 -0.54991629660E+02  0.63538285797E+02  0.00000000000E+00 0.  1.
          1    1    1    2  502    0 -0.26110612044E+02  0.49279839054E+02 -0.47634032343E+03  0.47959396402E+03  0.00000000000E+00 0.  1.
         22    1    1    2    0    0  0.69325809608E+01  0.22040060083E+02  0.76909864005E+02  0.80305367868E+02  0.00000000000E+00 0.  1.
         22    1    1    2    0    0  0.38738063014E+02 -0.46211343219E+02 -0.22035826963E+02  0.64200494065E+02  0.00000000000E+00 0.  1.
</event>
<event>
 6    1  0.3624778E-005  0.1669146E+03  0.7818608E-02  0.1245381E+00
          2   -1    0    0  502    0  0.00000000000E+00  0.00000000000E+00  0.31216091051E+03  0.31216091051E+03  0.00000000000E+00 0.  1.
          1   -1    0    0  501    0 -0.00000000000E+00 -0.00000000000E+00 -0.95154789890E+02  0.95154789890E+02  0.00000000000E+00 0.  1.
          2    1    1    2  501    0 -0.20119224563E+02  0.12129949865E+03  0.16753357997E+02  0.12409281436E+03  0.00000000000E+00 0.  1.
          1    1    1    2  502    0  0.20463285652E+02 -0.60033912922E+02  0.60278645000E+02  0.87500467447E+02  0.00000000000E+00 0.  1.
         22    1    1    2    0    0 -0.37428195588E+02 -0.40335220993E+02  0.62468212740E+01  0.55378900798E+02  0.00000000000E+00 0.  1.
         22    1    1    2    0    0  0.37084134499E+02 -0.20930364738E+02  0.13372729635E+03  0.14034351780E+03  0.00000000000E+00 0. -1.
</event>
<event>
 6    1  0.3624778E-005  0.3857202E+03  0.7818608E-02  0.1110871E+00
          2   -1    0    0  502    0  0.00000000000E+00  0.00000000000E+00  0.13425237517E+04  0.13425237517E+04  0.00000000000E+00 0. -1.
          1   -1    0    0  501    0 -0.00000000000E+00 -0.00000000000E+00 -0.22277613530E+03  0.22277613530E+03  0.00000000000E+00 0. -1.
          2    1    1    2  501    0 -0.60920377550E+02 -0.35709745543E+03  0.10451545045E+02  0.36240739489E+03  0.00000000000E+00 0. -1.
          1    1    1    2  502    0  0.86607625656E+02  0.32202709656E+03  0.75012543720E+03  0.82090834036E+03  0.00000000000E+00 0. -1.
         22    1    1    2    0    0  0.10093317715E+02 -0.27875052612E+02  0.21457640231E+02  0.36596775061E+02  0.00000000000E+00 0. -1.
         22    1    1    2    0    0 -0.35780565820E+02  0.62945411489E+02  0.33771299396E+03  0.34538737674E+03  0.00000000000E+00 0. -1.
</event>
<event>
 6    1  0.3624778E-005  0.1115872E+03  0.7818608E-02  0.1262307E+00
          2   -1    0    0  502    0  0.00000000000E+00  0.00000000000E+00  0.14293178939E+02  0.14293178939E+02  0.00000000000E+00 0. -1.
          1   -1    0    0  501    0 -0.00000000000E+00 -0.00000000000E+00 -0.22910735123E+04  0.22910735123E+04  0.00000000000E+00 0.  1.
          2    1    1    2  501    0 -0.59487637980E+02 -0.42608809461E+02 -0.24814703973E+03  0.25871073237E+03  0.00000000000E+00 0. -1.
          1    1    1    2  502    0 -0.19553034496E+02  0.66701461544E+02 -0.13479342232E+04  0.13497251855E+04  0.00000000000E+00 0.  1.
         22    1    1    2    0    0  0.90812321573E+02  0.28260031014E+02 -0.46811689269E+03  0.47768078497E+03  0.00000000000E+00 0.  1.
         22    1    1    2    0    0 -0.11771649097E+02 -0.52352683097E+02 -0.21258217772E+03  0.21924998845E+03  0.00000000000E+00 0. -1.
</event>
<event>
 6    1  0.3624778E-005  0.7556519E+02  0.7818608E-02  0.1347480E+00
          2   -1    0    0  502    0  0.00000000000E+00  0.00000000000E+00  0.76583053096E+02  0.76583053096E+02  0.00000000000E+00 0.  1.
          1   -1    0    0  501    0 -0.00000000000E+00 -0.00000000000E+00 -0.22574605439E+03  0.22574605439E+03  0.00000000000E+00 0.  1.
          2    1    1    2  501    0 -0.24688658018E+02  0.48994090899E+01 -0.24625460228E+00  0.25171306789E+02  0.00000000000E+00 0.  1.
          1    1    1    2  502    0 -0.37244099643E+02  0.81839106172E+01 -0.13370279432E+03  0.13903429994E+03  0.00000000000E+00 0.  1.
         22    1    1    2    0    0  0.91146803443E+02  0.15219736690E+02 -0.26085360900E+02  0.96019926141E+02  0.00000000000E+00 0.  1.
         22    1    1    2    0    0 -0.29214045783E+02 -0.28303056397E+02  0.10871408524E+02  0.42103574619E+02  0.00000000000E+00 0.  1.
</event>
<event>
 6    1  0.3624778E-005  0.9602362E+02  0.7818608E-02  0.1298397E+00
          2   -1    0    0  502    0  0.00000000000E+00  0.00000000000E+00  0.79027620669E+03  0.79027620669E+03  0.00000000000E+00 0.  1.
          1   -1    0    0  501    0 -0.00000000000E+00 -0.00000000000E+00 -0.38479687517E+02  0.38479687517E+02  0.00000000000E+00 0.  1.
          2    1    1    2  501    0 -0.14815611645E+02 -0.52518182934E+02  0.10763961070E+03  0.12068118196E+03  0.00000000000E+00 0.  1.
          1    1    1    2  502    0  0.77602101911E+02  0.61801916887E+02  0.82703574625E+02  0.12915666614E+03  0.00000000000E+00 0.  1.
         22    1    1    2    0    0  0.65395719351E+01 -0.50079480693E+02  0.11998222178E+03  0.13017854635E+03  0.00000000000E+00 0.  1.
         22    1    1    2    0    0 -0.69326062201E+02  0.40795746740E+02  0.44147111207E+03  0.44873949976E+03  0.00000000000E+00 0.  1.
</event>
<event>
 6    1  0.3624778E-005  0.1542736E+03  0.7818608E-02  0.1196222E+00
          2   -1    0    0  502    0  0.00000000000E+00  0.00000000000E+00  0.10050409722E+03  0.10050409722E+03  0.00000000000E+00 0. -1.
          1   -1    0    0  501    0 -0.00000000000E+00 -0.00000000000E+00 -0.78246703805E+03  0.78246703805E+03  0.00000000000E+00 0. -1.
          2    1    1    2  501    0  0.10500004257E+03  0.91018791909E+02 -0.57660238827E+03  0.59311022886E+03  0.00000000000E+00 0. -1.
          1    1    1    2  502    0 -0.19335680465E+02  0.16491904656E+02 -0.10200767503E+03  0.10512572104E+03  0.00000000000E+00 0. -1.
         22    1    1    2    0    0 -0.95522038983E+02 -0.11731815998E+03  0.24826813665E+02  0.15331138663E+03  0.00000000000E+00 0. -1.
         22    1    1    2    0    0  0.98576768790E+01  0.98074634144E+01 -0.28179691202E+02  0.31423798757E+02  0.00000000000E+00 0. -1.
</event>
<event>
 6    1  0.3624778E-005  0.1243505E+03  0.7818608E-02  0.1275592E+00
          2   -1    0    0  502    0  0.00000000000E+00  0.00000000000E+00  0.16393625195E+03  0.16393625195E+03  0.00000000000E+00 0. -1.
          1   -1    0    0  501    0 -0.00000000000E+00 -0.00000000000E+00 -0.71268392162E+03  0.71268392162E+03  0.00000000000E+00 0.  1.
          2    1    1    2  501    0 -0.16503154832E+02  0.15378962367E+02 -0.15851024050E+02  0.27570302253E+02  0.00000000000E+00 0. -1.
          1    1    1    2  502    0  0.11998788048E+03 -0.27157644521E+02 -0.64355133771E+03  0.65520451264E+03  0.00000000000E+00 0.  1.
         22    1    1    2    0    0 -0.60475538704E+02  0.49022124354E+02  0.10356905994E+02  0.78534864611E+02  0.00000000000E+00 0. -1.
         22    1    1    2    0    0 -0.43009186943E+02 -0.37243442200E+02  0.10029778609E+03  0.11531049407E+03  0.00000000000E+00 0. -1.
</event>
<event>
 6    1  0.3624778E-005  0.1044658E+03  0.7818608E-02  0.1275434E+00
          2   -1    0    0  502    0  0.00000000000E+00  0.00000000000E+00  0.38811888269E+02  0.38811888269E+02  0.00000000000E+00 0. -1.
          1   -1    0    0  501    0 -0.00000000000E+00 -0.00000000000E+00 -0.10212946457E+04  0.10212946457E+04  0.00000000000E+00 0. -1.
          2    1    1    2  501    0 -0.49349039631E+02  0.82558781771E+02 -0.79599708947E+03  0.80178715792E+03  0.00000000000E+00 0. -1.
          1    1    1    2  502    0  0.10587517873E+01 -0.26399307537E+02 -0.95672220519E+01  0.28099397352E+02  0.00000000000E+00 0. -1.
         22    1    1    2    0    0 -0.21892301355E+02  0.72972659217E+01 -0.11465540363E+03  0.11695462594E+03  0.00000000000E+00 0. -1.
         22    1    1    2    0    0  0.70182589199E+02 -0.63456740156E+02 -0.62263042259E+02  0.11326535273E+03  0.00000000000E+00 0.  1.
</event>
<event>
 6    1  0.3624778E-005  0.1053831E+03  0.7818608E-02  0.1339857E+00
          2   -1    0    0  502    0  0.00000000000E+00  0.00000000000E+00  0.15369704893E+03  0.15369704893E+03  0.00000000000E+00 0.  1.
          1   -1    0    0  501    0 -0.00000000000E+00 -0.00000000000E+00 -0.72607680510E+03  0.72607680510E+03  0.00000000000E+00 0.  1.
          2    1    1    2  501    0  0.24572061299E+02 -0.81768691869E+02 -0.10335946569E+03  0.13406373229E+03  0.00000000000E+00 0.  1.
          1    1    1    2  502    0 -0.59544032886E+02  0.49643077132E+02 -0.57026607333E+03  0.57551135640E+03  0.00000000000E+00 0.  1.
         22    1    1    2    0    0  0.11536441842E+02  0.15083997192E+02 -0.30157590871E+02  0.35638416755E+02  0.00000000000E+00 0.  1.
         22    1    1    2    0    0  0.23435529745E+02  0.17041617545E+02  0.13140337372E+03  0.13456034858E+03  0.00000000000E+00 0.  1.
</event>
<event>
 6    1  0.3624778E-005  0.1416536E+03  0.7818608E-02  0.1298741E+00
          2   -1    0    0  502    0  0.00000000000E+00  0.00000000000E+00  0.45851728204E+03  0.45851728204E+03  0.00000000000E+00 0. -1.
          1   -1    0    0  501    0 -0.00000000000E+00 -0.00000000000E+00 -0.71967786472E+02  0.71967786472E+02  0.00000000000E+00 0. -1.
          2    1    1    2  501    0 -0.12558095893E+02 -0.47887152747E+02  0.93386594839E+02  0.10569740426E+03  0.00000000000E+00 0. -1.
          1    1    1    2  502    0  0.34979233412E+02  0.12656387013E+03  0.52281223846E+02  0.14133395331E+03  0.00000000000E+00 0. -1.
         22    1    1    2    0    0  0.79230472784E+01  0.23603302707E+02  0.11854923606E+03  0.12113551068E+03  0.00000000000E+00 0.  1.
         22    1    1    2    0    0 -0.30344184797E+02 -0.10228002009E+03  0.12233244082E+03  0.16231820026E+03  0.00000000000E+00 0. -1.
</event>
<event>
 6    1  0.3624778E-005  0.1481836E+03  0.7818608E-02  0.1334027E+00
          2   -1    0    0  502    0  0.00000000000E+00  0.00000000000E+00  0.60938353337E+02  0.60938353337E+02  0.00000000000E+00 0. -1.
          1   -1    0    0  501    0 -0.00000000000E+00 -0.00000000000E+00 -0.79364489274E+03  0.79364489274E+03  0.00000000000E+00 0. -1.
          2    1    1    2  501    0 -0.79375747216E+02 -0.21512890216E+02 -0.52397018118E+02  0.97512877094E+02  0.00000000000E+00 0. -1.
          1    1    1    2  502    0  0.99350469306E+02 -0.20356423342E+02 -0.58026713568E+03  0.58906268637E+03  0.00000000000E+00 0. -1.
         22    1    1    2    0    0 -0.28691503908E+02  0.49424538656E+02 -0.12668302011E+03  0.13897688657E+03  0.00000000000E+00 0. -1.
         22    1    1    2    0    0  0.87167818179E+01 -0.75552250984E+01  0.26640634507E+02  0.29030796036E+02  0.00000000000E+00 0.  1.
</event>
<event>
 6    1  0.3624778E-005  0.8099451E+02  0.7818608E-02  0.1347571E+00
          2   -1    0    0  502    0  0.00000000000E+00  0.00000000000E+00  0.43984931434E+02  0.43984931434E+02  0.00000000000E+00 0. -1.
          1   -1    0    0  501    0 -0.00000000000E+00 -0.00000000000E+00 -0.44282310578E+03  0.44282310578E+03  0.00000000000E+00 0.  1.
          2    1    1    2  501    0 -0.37832512177E+02  0.24345459365E+02 -0.11192812116E+03  0.12063127569E+03  0.00000000000E+00 0. -1.
          1    1    1    2  502    0  0.27904967770E+02  0.58065935580E+00 -0.22136236566E+03  0.22311504055E+03  0.00000000000E+00 0.  1.
         22    1    1    2    0    0 -0.10764132661E+02 -0.55389229857E+02  0.11572720508E+02  0.57600010383E+02  0.00000000000E+00 0. -1.
         22    1    1    2    0    0  0.20691677068E+02  0.30463111137E+02 -0.77120408037E+02  0.85461710583E+02  0.00000000000E+00 0.  1.
</event>
<event>
 6    1  0.3624778E-005  0.1378414E+03  0.7818608E-02  0.1275231E+00
          2   -1    0    0  502    0  0.00000000000E+00  0.00000000000E+00  0.15588731191E+02  0.15588731191E+02  0.00000000000E+00 0.  1.
          1   -1    0    0  501    0 -0.00000000000E+00 -0.00000000000E+00 -0.11336056102E+04  0.11336056102E+04  0.00000000000E+00 0.  1.
          2    1    1    2  501    0  0.15473722068E+02  0.43793088909E+02 -0.38080844946E+03  0.38363048092E+03  0.00000000000E+00 0.  1.
          1    1    1    2  502    0  0.48761921538E+02 -0.45498851604E+02 -0.27339963389E+03  0.28141647127E+03  0.00000000000E+00 0.  1.
         22    1    1    2    0    0  0.13089781073E+02  0.39971655512E+02 -0.76047231187E+02  0.86903722499E+02  0.00000000000E+00 0.  1.
         22    1    1    2    0    0 -0.77325424679E+02 -0.38265892817E+02 -0.38776156444E+03  0.39724366667E+03  0.00000000000E+00 0.  1.
</event>
<event>
 6    1  0.3624778E-005  0.9848345E+02  0.7818608E-02  0.1307847E+00
          2   -1    0    0  502    0  0.00000000000E+00  0.00000000000E+00  0.13981960089E+04  0.13981960089E+04  0.00000000000E+00 0. -1.
          1   -1    0    0  501    0 -0.00000000000E+00 -0.00000000000E+00 -0.14690194995E+02  0.14690194995E+02  0.00000000000E+00 0. -1.
          2    1    1    2  501    0  0.17780335416E+01 -0.24374735900E+02  0.36383215106E+02  0.43829527660E+02  0.00000000000E+00 0. -1.
          1    1    1    2  502    0 -0.30274828922E+02 -0.41587613242E+02  0.84251690072E+03  0.84408579116E+03  0.00000000000E+00 0. -1.
         22    1    1    2    0    0  0.76336572791E+02  0.26399478066E+02  0.24186645478E+03  0.25499722888E+03  0.00000000000E+00 0. -1.
         22    1    1    2    0    0 -0.47839777411E+02  0.39562871077E+02  0.26273924333E+03  0.26997365622E+03  0.00000000000E+00 0. -1.
</event>
<event>
 6    1  0.3624778E-005  0.9697915E+02  0.7818608E-02  0.1293340E+00
          2   -1    0    0  502    0  0.00000000000E+00  0.00000000000E+00  0.67079476368E+03  0.67079476368E+03  0.00000000000E+00 0. -1.
          1   -1    0    0  501    0 -0.00000000000E+00 -0.00000000000E+00 -0.47636222776E+02  0.47636222776E+02  0.00000000000E+00 0.  1.
          2    1    1    2  501    0  0.51837857780E+02  0.56284097934E+01  0.69478001517E+02  0.86867918076E+02  0.00000000000E+00 0. -1.
          1    1    1    2  502    0 -0.33785491344E+02  0.44931580848E+02 -0.58539464167E+01  0.56520572109E+02  0.00000000000E+00 0.  1.
         22    1    1    2    0    0  0.45486375204E+02  0.70413482616E+01  0.16538525646E+03  0.17167083028E+03  0.00000000000E+00 0. -1.
         22    1    1    2    0    0 -0.63538741639E+02 -0.57601338903E+02  0.39414922934E+03  0.40337166599E+03  0.00000000000E+00 0. -1.
</event>
<event>
 6    1  0.3624778E-005  0.1268262E+03  0.7818608E-02  0.1333398E+00
          2   -1    0    0  502    0  0.00000000000E+00  0.00000000000E+00  0.15648503572E+03  0.15648503572E+03  0.00000000000E+00 0. -1.
          1   -1    0    0  501    0 -0.00000000000E+00 -0.00000000000E+00 -0.61280754405E+03  0.61280754405E+03  0.00000000000E+00 0. -1.
          2    1    1    2  501    0  0.34980367851E+02  0.10932922175E+02 -0.80403459125E+01  0.37520688755E+02  0.00000000000E+00 0. -1.
          1    1    1    2  502    0  0.42428657510E+02  0.19628097782E+01 -0.54873913303E+03  0.55038048632E+03  0.00000000000E+00 0. -1.
         22    1    1    2    0    0 -0.89830655917E+02 -0.26744034780E+02  0.16214552928E+02  0.95119408459E+02  0.00000000000E+00 0. -1.
         22    1    1    2    0    0  0.12421630556E+02  0.13848302828E+02  0.84242417690E+02  0.86271996239E+02  0.00000000000E+00 0.  1.
</event>
<event>
 6    1  0.3624778E-005  0.8232045E+02  0.7818608E-02  0.1324091E+00
          2   -1    0    0  502    0  0.00000000000E+00  0.00000000000E+00  0.26529617664E+03  0.26529617664E+03  0.00000000000E+00 0.  1.
          1   -1    0    0  501    0 -0.00000000000E+00 -0.00000000000E+00 -0.26666468093E+03  0.26666468093E+03  0.00000000000E+00 0.  1.
          2    1    1    2  501    0 -0.38473738355E+02 -0.14775689836E+02  0.76099216007E+02  0.86542707550E+02  0.00000000000E+00 0.  1.
          1    1    1    2  502    0  0.94987214609E+01 -0.75900861925E+02 -0.22138958898E+03  0.23423175844E+03  0.00000000000E+00 0.  1.
         22    1    1    2    0    0 -0.20472610271E+02 -0.22091957708E+02  0.39926426992E+02  0.50013017696E+02  0.00000000000E+00 0.  1.
         22    1    1    2    0    0  0.49447627165E+02  0.11276850947E+03  0.10399544169E+03  0.16117337390E+03  0.00000000000E+00 0. -1.
</event>
<event>
 6    1  0.3624778E-005  0.2124243E+03  0.7818608E-02  0.1225729E+00
          2   -1    0    0  502    0  0.00000000000E+00  0.00000000000E+00  0.13131964610E+02  0.13131964610E+02  0.00000000000E+00 0. -1.
          1   -1    0    0  501    0 -0.00000000000E+00 -0.00000000000E+00 -0.29097890060E+04  0.29097890060E+04  0.00000000000E+00 0.  1.
          2    1    1    2  501    0  0.87897831974E+02 -0.29574504812E+02 -0.11374893391E+04  0.11412636316E+04  0.00000000000E+00 0. -1.
          1    1    1    2  502    0  0.59344159727E+01 -0.36245822185E+02 -0.11383755573E+04  0.11389679041E+04  0.00000000000E+00 0.  1.
         22    1    1    2    0    0 -0.96780721852E+02  0.35077164692E+02 -0.59058235474E+03  0.59948680831E+03  0.00000000000E+00 0. -1.
         22    1    1    2    0    0  0.29484739057E+01  0.30743162305E+02 -0.30209790226E+02  0.43202626684E+02  0.00000000000E+00 0. -1.
</event>
<event>
 6    1  0.3624778E-005  0.4121652E+02  0.7818608E-02  0.1505198E+00
          2   -1    0    0  502    0  0.00000000000E+00  0.00000000000E+00  0.12925848772E+03  0.12925848772E+03  0.00000000000E+00 0. -1.
          1   -1    0    0  501    0 -0.00000000000E+00 -0.00000000000E+00 -0.25868336608E+03  0.25868336608E+03  0.00000000000E+00 0. -1.
          2    1    1    2  501    0  0.43066177416E+02 -0.21926389905E+02 -0.17923549186E+03  0.18563626735E+03  0.00000000000E+00 0. -1.
          1    1    1    2  502    0 -0.25348273973E+02  0.62597612333E+01 -0.38414377968E+02  0.46447648366E+02  0.00000000000E+00 0. -1.
         22    1    1    2    0    0  0.13467241763E+02 -0.56203525687E+01 -0.29128675772E+02  0.32579667216E+02  0.00000000000E+00 0. -1.
         22    1    1    2    0    0 -0.31185145206E+02  0.21286981240E+02  0.11735366724E+03  0.12327827087E+03  0.00000000000E+00 0. -1.
</event>
<event>
 6    1  0.3624778E-005  0.7887680E+02  0.7818608E-02  0.1460587E+00
          2   -1    0    0  502    0  0.00000000000E+00  0.00000000000E+00  0.49812643652E+02  0.49812643652E+02  0.00000000000E+00 0. -1.
          1   -1    0    0  501    0 -0.00000000000E+00 -0.00000000000E+00 -0.46396578081E+03  0.46396578081E+03  0.00000000000E+00 0. -1.
          2    1    1    2  501    0 -0.19744166034E+02 -0.44258317814E+02 -0.23647078795E+03  0.24138571694E+03  0.00000000000E+00 0. -1.
          1    1    1    2  502    0  0.50521219346E+02  0.55881541213E+02 -0.55661910423E+02  0.93666368161E+02  0.00000000000E+00 0. -1.
         22    1    1    2    0    0 -0.24048949230E+02 -0.19267164556E+02 -0.14781583256E+03  0.15099369505E+03  0.00000000000E+00 0. -1.
         22    1    1    2    0    0 -0.67281040823E+01  0.76439411575E+01  0.25795393772E+02  0.27732644317E+02  0.00000000000E+00 0. -1.
</event>
<event>
 6    1  0.3624778E-005  0.1566564E+03  0.7818608E-02  0.1274836E+00
          2   -1    0    0  502    0  0.00000000000E+00  0.00000000000E+00  0.18178833021E+03  0.18178833021E+03  0.00000000000E+00 0.  1.
          1   -1    0    0  501    0 -0.00000000000E+00 -0.00000000000E+00 -0.62172550025E+03  0.62172550025E+03  0.00000000000E+00 0.  1.
          2    1    1    2  501    0 -0.28454776206E+02 -0.11916867904E+03 -0.13233575372E+03  0.18034300670E+03  0.00000000000E+00 0.  1.
          1    1    1    2  502    0  0.34674460238E+02  0.16222620756E+03 -0.41843137339E+03  0.45011606819E+03  0.00000000000E+00 0.  1.
         22    1    1    2    0    0 -0.75441876534E+01 -0.27867387979E+02  0.13849168227E+03  0.14146890873E+03  0.00000000000E+00 0.  1.
         22    1    1    2    0    0  0.13245036221E+01 -0.15190140538E+02 -0.27661725200E+02  0.31585846838E+02  0.00000000000E+00 0.  1.
</event>
<event>
 6    1  0.3624778E-005  0.4738831E+02  0.7818608E-02  0.1555170E+00
          2   -1    0    0  502    0  0.00000000000E+00  0.00000000000E+00  0.42903060863E+02  0.42903060863E+02  0.00000000000E+00 0. -1.
          1   -1    0    0  501    0 -0.00000000000E+00 -0.00000000000E+00 -0.79257725813E+03  0.79257725813E+03  0.00000000000E+00 0. -1.
          2    1    1    2  501    0  0.24675067174E+02  0.15743783007E+02 -0.29857842150E+03  0.30000966555E+03  0.00000000000E+00 0. -1.
          1    1    1    2  502    0 -0.42484750956E+02 -0.13143416182E+02 -0.38896898022E+03  0.39150296426E+03  0.00000000000E+00 0. -1.
         22    1    1    2    0    0  0.14980105491E+02  0.10049906118E+02 -0.10120267711E+03  0.10279779194E+03  0.00000000000E+00 0. -1.
         22    1    1    2    0    0  0.28295782910E+01 -0.12650272944E+02  0.39075881559E+02  0.41169897236E+02  0.00000000000E+00 0. -1.
</event>
<event>
 6    1  0.3624778E-005  0.9758902E+02  0.7818608E-02  0.1286986E+00
          2   -1    0    0  502    0  0.00000000000E+00  0.00000000000E+00  0.45412931549E+03  0.45412931549E+03  0.00000000000E+00 0. -1.
          1   -1    0    0  501    0 -0.00000000000E+00 -0.00000000000E+00 -0.55517150696E+02  0.55517150696E+02  0.00000000000E+00 0. -1.
          2    1    1    2  501    0 -0.44667272593E+02  0.73403907000E+02  0.84441109854E+02  0.12047240280E+03  0.00000000000E+00 0. -1.
          1    1    1    2  502    0 -0.65152726896E+01 -0.29252952504E+02 -0.13003846833E+02  0.32669313444E+02  0.00000000000E+00 0. -1.
         22    1    1    2    0    0  0.57497521727E+02 -0.70543074531E+02  0.31285154433E+03  0.32581954999E+03  0.00000000000E+00 0. -1.
         22    1    1    2    0    0 -0.63149764440E+01  0.26392120035E+02  0.14323357448E+02  0.30685199951E+02  0.00000000000E+00 0. -1.
</event>
<event>
 6    1  0.3624778E-005  0.5319954E+03  0.7818608E-02  0.1114791E+00
          2   -1    0    0  502    0  0.00000000000E+00  0.00000000000E+00  0.70258496846E+03  0.70258496846E+03  0.00000000000E+00 0.  1.
          1   -1    0    0  501    0 -0.00000000000E+00 -0.00000000000E+00 -0.50131769269E+03  0.50131769269E+03  0.00000000000E+00 0.  1.
          2    1    1    2  501    0  0.11842693126E+03  0.22695323334E+03  0.53689899647E+02  0.26156321128E+03  0.00000000000E+00 0.  1.
          1    1    1    2  502    0 -0.78953528751E+02 -0.11873744013E+03 -0.37065364238E+03  0.39713519361E+03  0.00000000000E+00 0.  1.
         22    1    1    2    0    0 -0.31200257251E+02 -0.84637841143E+02  0.51140743381E+03  0.51930201575E+03  0.00000000000E+00 0.  1.
         22    1    1    2    0    0 -0.82731452589E+01 -0.23577952064E+02  0.68235846926E+01  0.25902240522E+02  0.00000000000E+00 0.  1.
</event>
<event>
 6    1  0.3624778E-005  0.1695163E+03  0.7818608E-02  0.1261957E+00
          2   -1    0    0  502    0  0.00000000000E+00  0.00000000000E+00  0.15294933717E+03  0.15294933717E+03  0.00000000000E+00 0.  1.
          1   -1    0    0  501    0 -0.00000000000E+00 -0.00000000000E+00 -0.35764812296E+03  0.35764812296E+03  0.00000000000E+00 0. -1.
          2    1    1    2  501    0  0.32574943462E+02  0.57549947813E+02 -0.88235261077E+01  0.66715650696E+02  0.00000000000E+00 0.  1.
          1    1    1    2  502    0  0.23595642074E+02  0.66800142508E+01 -0.27250567523E+03  0.27360687117E+03  0.00000000000E+00 0. -1.
         22    1    1    2    0    0  0.28272211990E+02  0.71470144778E+00  0.54603243012E+02  0.61492624894E+02  0.00000000000E+00 0.  1.
         22    1    1    2    0    0 -0.84442797526E+02 -0.64944663512E+02  0.22027172533E+02  0.10878231337E+03  0.00000000000E+00 0.  1.
</event>
<event>
 6    1  0.3624778E-005  0.8135710E+02  0.7818608E-02  0.1332550E+00
          2   -1    0    0  502    0  0.00000000000E+00  0.00000000000E+00  0.18052152792E+03  0.18052152792E+03  0.00000000000E+00 0. -1.
          1   -1    0    0  501    0 -0.00000000000E+00 -0.00000000000E+00 -0.70242339244E+03  0.70242339244E+03  0.00000000000E+00 0.  1.
          2    1    1    2  501    0 -0.72145430254E+02 -0.32126753749E+02 -0.17607183767E+03  0.19297249398E+03  0.00000000000E+00 0. -1.
          1    1    1    2  502    0  0.19374380640E+02  0.22823192229E+02 -0.49067166619E+03  0.49158412173E+03  0.00000000000E+00 0.  1.
         22    1    1    2    0    0  0.70566756213E+02  0.54551592119E+01  0.15983352599E+03  0.17480326620E+03  0.00000000000E+00 0. -1.
         22    1    1    2    0    0 -0.17795706598E+02  0.38484023081E+01 -0.14991886643E+02  0.23585038452E+02  0.00000000000E+00 0. -1.
</event>
<event>
 6    1  0.3624778E-005  0.3595010E+03  0.7818608E-02  0.1187894E+00
          2   -1    0    0  502    0  0.00000000000E+00  0.00000000000E+00  0.39217497493E+03  0.39217497493E+03  0.00000000000E+00 0.  1.
          1   -1    0    0  501    0 -0.00000000000E+00 -0.00000000000E+00 -0.88725942470E+03  0.88725942470E+03  0.00000000000E+00 0.  1.
          2    1    1    2  501    0 -0.18168337486E+01  0.28964149658E+02 -0.31396055558E+02  0.42754358314E+02  0.00000000000E+00 0.  1.
          1    1    1    2  502    0  0.27017056755E+03 -0.96521330294E+02 -0.75938028788E+03  0.81176777738E+03  0.00000000000E+00 0.  1.
         22    1    1    2    0    0  0.12215945643E+02 -0.75456230856E+01  0.18528674819E+02  0.23440937401E+02  0.00000000000E+00 0. -1.
         22    1    1    2    0    0 -0.28056967944E+03  0.75102803722E+02  0.27716321885E+03  0.40147132654E+03  0.00000000000E+00 0.  1.
</event>
<event>
 6    1  0.3624778E-005  0.3704921E+03  0.7818608E-02  0.1138589E+00
          2   -1    0    0  502    0  0.00000000000E+00  0.00000000000E+00  0.49662219235E+03  0.49662219235E+03  0.00000000000E+00 0. -1.
          1   -1    0    0  501    0 -0.00000000000E+00 -0.00000000000E+00 -0.13467758502E+03  0.13467758502E+03  0.00000000000E+00 0. -1.
          2    1    1    2  501    0  0.85156346438E+01  0.44775080727E+02 -0.90236931694E+02  0.10109415279E+03  0.00000000000E+00 0. -1.
          1    1    1    2  502    0 -0.68250797178E+02  0.49351997097E+02  0.57052372431E+02  0.10172887561E+03  0.00000000000E+00 0. -1.
         22    1    1    2    0    0  0.28846922427E+02 -0.12122314752E+03  0.30060971786E+03  0.32541265940E+03  0.00000000000E+00 0. -1.
         22    1    1    2    0    0  0.30888240107E+02  0.27096069693E+02  0.94519448727E+02  0.10306408956E+03  0.00000000000E+00 0.  1.
</event>
<event>
 6    1  0.3624778E-005  0.3253013E+03  0.7818608E-02  0.1073682E+00
          2   -1    0    0  502    0  0.00000000000E+00  0.00000000000E+00  0.72942425236E+03  0.72942425236E+03  0.00000000000E+00 0.  1.
          1   -1    0    0  501    0 -0.00000000000E+00 -0.00000000000E+00 -0.16553298721E+04  0.16553298721E+04  0.00000000000E+00 0.  1.
          2    1    1    2  501    0  0.22400471309E+03 -0.15191325348E+03  0.10462499274E+03  0.29017604514E+03  0.00000000000E+00 0.  1.
          1    1    1    2  502    0  0.48194554678E+02 -0.41612807337E+02 -0.15014676036E+04  0.15028171231E+04  0.00000000000E+00 0.  1.
         22    1    1    2    0    0 -0.27811737669E+03  0.20493872768E+03  0.45450672191E+03  0.57089886809E+03  0.00000000000E+00 0.  1.
         22    1    1    2    0    0  0.59181089206E+01 -0.11412666870E+02  0.16430269167E+02  0.20862088179E+02  0.00000000000E+00 0. -1.
</event>
<event>
 6    1  0.3624778E-005  0.8020277E+02  0.7818608E-02  0.1331179E+00
          2   -1    0    0  502    0  0.00000000000E+00  0.00000000000E+00  0.67535611686E+03  0.67535611686E+03  0.00000000000E+00 0.  1.
          1   -1    0    0  501    0 -0.00000000000E+00 -0.00000000000E+00 -0.21333692478E+02  0.21333692478E+02  0.00000000000E+00 0.  1.
          2    1    1    2  501    0  0.49551364844E+02 -0.11447418552E+02  0.16477021151E+03  0.17244014541E+03  0.00000000000E+00 0.  1.
          1    1    1    2  502    0 -0.57301385806E+02 -0.20690520593E+02  0.13466681383E+03  0.14780628270E+03  0.00000000000E+00 0.  1.
         22    1    1    2    0    0  0.63780043332E+02  0.72082266420E+01  0.15891766273E+03  0.17139041976E+03  0.00000000000E+00 0.  1.
         22    1    1    2    0    0 -0.56030022370E+02  0.24929712503E+02  0.19566773631E+03  0.20505296147E+03  0.00000000000E+00 0.  1.
</event>
<event>
 6    1  0.3624778E-005  0.6336358E+02  0.7818608E-02  0.1401102E+00
          2   -1    0    0  502    0  0.00000000000E+00  0.00000000000E+00  0.33118361225E+02  0.33118361225E+02  0.00000000000E+00 0.  1.
          1   -1    0    0  501    0 -0.00000000000E+00 -0.00000000000E+00 -0.12642169663E+04  0.12642169663E+04  0.00000000000E+00 0.  1.
          2    1    1    2  501    0  0.40362783990E+02 -0.15153958323E+02 -0.59644323195E+02  0.73595122621E+02  0.00000000000E+00 0.  1.
          1    1    1    2  502    0 -0.39846561279E+02  0.17444661425E+02 -0.10385800355E+04  0.10394905266E+04  0.00000000000E+00 0.  1.
         22    1    1    2    0    0  0.24411615938E+02 -0.39255749022E+02 -0.13177842552E+03  0.13965133102E+03  0.00000000000E+00 0.  1.
         22    1    1    2    0    0 -0.24927838649E+02  0.36965045920E+02 -0.10958208454E+01  0.44598347311E+02  0.00000000000E+00 0.  1.
</event>
<event>
 6    1  0.3624778E-005  0.1894287E+03  0.7818608E-02  0.1174117E+00
          2   -1    0    0  502    0  0.00000000000E+00  0.00000000000E+00  0.56148898663E+03  0.56148898663E+03  0.00000000000E+00 0. -1.
          1   -1    0    0  501    0 -0.00000000000E+00 -0.00000000000E+00 -0.25989698016E+03  0.25989698016E+03  0.00000000000E+00 0.  1.
          2    1    1    2  501    0  0.88963768127E+02 -0.18516468513E+03  0.44485972581E+02  0.21018923477E+03  0.00000000000E+00 0. -1.
          1    1    1    2  502    0  0.29746568411E+02  0.11952255863E+03 -0.13183642314E+03  0.18041990694E+03  0.00000000000E+00 0.  1.
         22    1    1    2    0    0 -0.35236482928E+02 -0.28513517264E+02  0.42286021598E+02  0.61989821895E+02  0.00000000000E+00 0. -1.
         22    1    1    2    0    0 -0.83473853610E+02  0.94155643766E+02  0.34665643543E+03  0.36878700318E+03  0.00000000000E+00 0. -1.
</event>
<event>
 6    1  0.3624778E-005  0.1639474E+03  0.7818608E-02  0.1234760E+00
          2   -1    0    0  502    0  0.00000000000E+00  0.00000000000E+00  0.91749994224E+03  0.91749994224E+03  0.00000000000E+00 0. -1.
          1   -1    0    0  501    0 -0.00000000000E+00 -0.00000000000E+00 -0.48195218152E+02  0.48195218152E+02  0.00000000000E+00 0. -1.
          2    1    1    2  501    0 -0.19229871639E+02 -0.13587075152E+03  0.25792257150E+03  0.29215527031E+03  0.00000000000E+00 0. -1.
          1    1    1    2  502    0  0.57087668082E+02  0.11976456764E+03  0.19149157633E+03  0.23296260926E+03  0.00000000000E+00 0. -1.
         22    1    1    2    0    0 -0.44334771401E+02 -0.39271062379E+02  0.10295625715E+03  0.11877617261E+03  0.00000000000E+00 0. -1.
         22    1    1    2    0    0  0.64769749576E+01  0.55377246257E+02  0.31693431911E+03  0.32180110820E+03  0.00000000000E+00 0. -1.
</event>
<event>
 6    1  0.3624778E-005  0.2067717E+03  0.7818608E-02  0.1212882E+00
          2   -1    0    0  502    0  0.00000000000E+00  0.00000000000E+00  0.42721247735E+03  0.42721247735E+03  0.00000000000E+00 0.  1.
          1   -1    0    0  501    0 -0.00000000000E+00 -0.00000000000E+00 -0.14882639121E+03  0.14882639121E+03  0.00000000000E+00 0.  1.
          2    1    1    2  501    0  0.26848120819E+02 -0.17189863947E+03  0.24022424962E+02  0.17563325637E+03  0.00000000000E+00 0.  1.
          1    1    1    2  502    0 -0.73372156526E+02  0.10748026811E+03  0.20945932582E+03  0.24659418193E+03  0.00000000000E+00 0.  1.
         22    1    1    2    0    0  0.41395945899E+02 -0.14521311925E+02 -0.23022666084E+02  0.49543273918E+02  0.00000000000E+00 0.  1.
         22    1    1    2    0    0  0.51280898081E+01  0.78939683280E+02  0.67927001451E+02  0.10426815635E+03  0.00000000000E+00 0.  1.
</event>
<event>
 6    1  0.3624778E-005  0.7841484E+02  0.7818608E-02  0.1354211E+00
          2   -1    0    0  502    0  0.00000000000E+00  0.00000000000E+00  0.20898657496E+03  0.20898657496E+03  0.00000000000E+00 0. -1.
          1   -1    0    0  501    0 -0.00000000000E+00 -0.00000000000E+00 -0.11433905503E+03  0.11433905503E+03  0.00000000000E+00 0. -1.
          2    1    1    2  501    0 -0.32778790327E+02  0.46587013857E+02 -0.11141599383E+02  0.58042520553E+02  0.00000000000E+00 0. -1.
          1    1    1    2  502    0  0.14498630151E+02 -0.15220764426E+02 -0.55978684994E+02  0.59795443971E+02  0.00000000000E+00 0. -1.
         22    1    1    2    0    0  0.23164498271E+02  0.22336805254E+02 -0.28086810566E+01  0.32301943261E+02  0.00000000000E+00 0. -1.
         22    1    1    2    0    0 -0.48843380960E+01 -0.53703054685E+02  0.16457648537E+03  0.17318572221E+03  0.00000000000E+00 0. -1.
</event>
<event>
 6    1  0.3624778E-005  0.3943647E+02  0.7818608E-02  0.1516645E+00
          2   -1    0    0  502    0  0.00000000000E+00  0.00000000000E+00  0.14045915848E+03  0.14045915848E+03  0.00000000000E+00 0.  1.
          1   -1    0    0  501    0 -0.00000000000E+00 -0.00000000000E+00 -0.75953605674E+02  0.75953605674E+02  0.00000000000E+00 0.  1.
          2    1    1    2  501    0 -0.47076319641E+01 -0.27500535121E+02 -0.27060060574E+02  0.38867571431E+02  0.00000000000E+00 0.  1.
          1    1    1    2  502    0 -0.47894876905E+01  0.28068993979E+02  0.31096327275E+02  0.42163837413E+02  0.00000000000E+00 0.  1.
         22    1    1    2    0    0 -0.17555093149E+02 -0.24974006411E+02 -0.26920118956E+02  0.40701045396E+02  0.00000000000E+00 0.  1.
         22    1    1    2    0    0  0.27052212804E+02  0.24405547554E+02  0.87389405062E+02  0.94680309917E+02  0.00000000000E+00 0.  1.
</event>
<event>
 6    1  0.3624778E-005  0.3896201E+03  0.7818608E-02  0.1119246E+00
          2   -1    0    0  502    0  0.00000000000E+00  0.00000000000E+00  0.13114887355E+04  0.13114887355E+04  0.00000000000E+00 0. -1.
          1   -1    0    0  501    0 -0.00000000000E+00 -0.00000000000E+00 -0.31191089054E+03  0.31191089054E+03  0.00000000000E+00 0.  1.
          2    1    1    2  501    0  0.83439542933E+02 -0.60267499794E+02  0.93483825618E+02  0.13904515277E+03  0.00000000000E+00 0. -1.
          1    1    1    2  502    0 -0.23931173190E+03  0.24487574945E+03 -0.16480257353E+03  0.37999227089E+03  0.00000000000E+00 0.  1.
         22    1    1    2    0    0  0.99015453072E+02 -0.18352795728E+03  0.74932363082E+03  0.77779976521E+03  0.00000000000E+00 0. -1.
         22    1    1    2    0    0  0.56856735899E+02 -0.10802923759E+01  0.32157296207E+03  0.32656243719E+03  0.00000000000E+00 0. -1.
</event>
<event>
 6    1  0.3624778E-005  0.1763108E+03  0.7818608E-02  0.1269533E+00
          2   -1    0    0  502    0  0.00000000000E+00  0.00000000000E+00  0.10079122259E+03  0.10079122259E+03  0.00000000000E+00 0. -1.
          1   -1    0    0  501    0 -0.00000000000E+00 -0.00000000000E+00 -0.55546312477E+03  0.55546312477E+03  0.00000000000E+00 0. -1.
          2    1    1    2  501    0  0.39452315262E+02  0.12476899753E+03 -0.10065819791E+03  0.16509349088E+03  0.00000000000E+00 0. -1.
          1    1    1    2  502    0 -0.76111536115E+02 -0.14073520376E+03 -0.31383035815E+03  0.35226248339E+03  0.00000000000E+00 0. -1.
         22    1    1    2    0    0 -0.46397603579E+01 -0.21945697564E+02  0.37141284406E+02  0.43389123350E+02  0.00000000000E+00 0. -1.
         22    1    1    2    0    0  0.41298981210E+02  0.37911903798E+02 -0.77324630538E+02  0.95509249743E+02  0.00000000000E+00 0. -1.
</event>
<event>
 6    1  0.3624778E-005  0.9377623E+02  0.7818608E-02  0.1406322E+00
          2   -1    0    0  502    0  0.00000000000E+00  0.00000000000E+00  0.94234763837E+02  0.94234763837E+02  0.00000000000E+00 0. -1.
          1   -1    0    0  501    0 -0.00000000000E+00 -0.00000000000E+00 -0.26869797926E+03  0.26869797926E+03  0.00000000000E+00 0. -1.
          2    1    1    2  501    0  0.63048616392E+01 -0.23270279065E+02 -0.32089181513E+02  0.40136924872E+02  0.00000000000E+00 0. -1.
          1    1    1    2  502    0  0.20869235452E+02  0.77458475458E+02 -0.16644518844E+03  0.18476834460E+03  0.00000000000E+00 0. -1.
         22    1    1    2    0    0  0.11259775279E+02  0.78814708526E+01  0.56497041217E+02  0.58144782986E+02  0.00000000000E+00 0. -1.
         22    1    1    2    0    0 -0.38433872370E+02 -0.62069667246E+02 -0.32425886685E+02  0.79882690645E+02  0.00000000000E+00 0. -1.
</event>
<event>
 6    1  0.3624778E-005  0.1134563E+03  0.7818608E-02  0.1323268E+00
          2   -1    0    0  502    0  0.00000000000E+00  0.00000000000E+00  0.52555918241E+03  0.52555918241E+03  0.00000000000E+00 0. -1.
          1   -1    0    0  501    0 -0.00000000000E+00 -0.00000000000E+00 -0.12857211363E+03  0.12857211363E+03  0.00000000000E+00 0. -1.
          2    1    1    2  501    0  0.16247193252E+02 -0.24849731046E+02 -0.68383377484E+02  0.74550430836E+02  0.00000000000E+00 0. -1.
          1    1    1    2  502    0 -0.48422016287E+01  0.99811784941E+02  0.40956835407E+03  0.42158282221E+03  0.00000000000E+00 0. -1.
         22    1    1    2    0    0  0.25096469406E+02 -0.18315029069E+02  0.80451858874E+02  0.86242533954E+02  0.00000000000E+00 0.  1.
         22    1    1    2    0    0 -0.36501461029E+02 -0.56647024826E+02 -0.24649766680E+02  0.71755509031E+02  0.00000000000E+00 0. -1.
</event>
<event>
 6    1  0.3624778E-005  0.9253142E+02  0.7818608E-02  0.1353773E+00
          2   -1    0    0  502    0  0.00000000000E+00  0.00000000000E+00  0.16633864982E+03  0.16633864982E+03  0.00000000000E+00 0. -1.
          1   -1    0    0  501    0 -0.00000000000E+00 -0.00000000000E+00 -0.65747297474E+02  0.65747297474E+02  0.00000000000E+00 0. -1.
          2    1    1    2  501    0 -0.19262589557E+02 -0.88858020087E+01  0.68183128220E+01  0.22282150334E+02  0.00000000000E+00 0. -1.
          1    1    1    2  502    0 -0.40854343406E+02 -0.57755171037E+01 -0.43372656533E+01  0.41487899999E+02  0.00000000000E+00 0. -1.
         22    1    1    2    0    0 -0.22022540682E+02  0.25533576486E+02  0.75102890568E+02  0.82324965824E+02  0.00000000000E+00 0. -1.
         22    1    1    2    0    0  0.82139473644E+02 -0.10872257374E+02  0.23007414610E+02  0.85990931138E+02  0.00000000000E+00 0. -1.
</event>
<event>
 6    1  0.3624778E-005  0.1829856E+03  0.7818608E-02  0.1232521E+00
          2   -1    0    0  502    0  0.00000000000E+00  0.00000000000E+00  0.15446933069E+03  0.15446933069E+03  0.00000000000E+00 0. -1.
          1   -1    0    0  501    0 -0.00000000000E+00 -0.00000000000E+00 -0.36484128651E+03  0.36484128651E+03  0.00000000000E+00 0.  1.
          2    1    1    2  501    0  0.58972189268E+02  0.36214088497E+02 -0.60117070810E+02  0.91669196110E+02  0.00000000000E+00 0. -1.
          1    1    1    2  502    0 -0.97571244593E+02 -0.65423530068E+02 -0.23894906654E+03  0.26626498542E+03  0.00000000000E+00 0.  1.
         22    1    1    2    0    0  0.78891910835E+02  0.41011344773E+02  0.77435866706E+02  0.11790749530E+03  0.00000000000E+00 0. -1.
         22    1    1    2    0    0 -0.40292855510E+02 -0.11801903201E+02  0.11258314825E+02  0.43468940371E+02  0.00000000000E+00 0. -1.
</event>
<event>
 6    1  0.3624778E-005  0.1167869E+03  0.7818608E-02  0.1330774E+00
          2   -1    0    0  502    0  0.00000000000E+00  0.00000000000E+00  0.19418055784E+03  0.19418055784E+03  0.00000000000E+00 0.  1.
          1   -1    0    0  501    0 -0.00000000000E+00 -0.00000000000E+00 -0.22662925490E+03  0.22662925490E+03  0.00000000000E+00 0.  1.
          2    1    1    2  501    0  0.31828385637E+02  0.30260591184E+02 -0.74160324095E+02  0.86188764819E+02  0.00000000000E+00 0.  1.
          1    1    1    2  502    0 -0.86804070185E+02 -0.52715238780E+02 -0.94953390248E+02  0.13903233192E+03  0.00000000000E+00 0.  1.
         22    1    1    2    0    0  0.50076101959E+02 -0.20062089656E+01 -0.62574323342E+01  0.50505408831E+02  0.00000000000E+00 0.  1.
         22    1    1    2    0    0  0.48995825892E+01  0.24460856562E+02  0.14292244962E+03  0.14508330716E+03  0.00000000000E+00 0.  1.
</event>
<event>
 6    1  0.3624778E-005  0.6578866E+02  0.7818608E-02  0.1479838E+00
          2   -1    0    0  502    0  0.00000000000E+00  0.00000000000E+00  0.70897788365E+02  0.70897788365E+02  0.00000000000E+00 0. -1.
          1   -1    0    0  501    0 -0.00000000000E+00 -0.00000000000E+00 -0.19073670751E+03  0.19073670751E+03  0.00000000000E+00 0. -1.
          2    1    1    2  501    0  0.29893984458E+02 -0.24532572311E+01 -0.34126440240E+02  0.45434377967E+02  0.00000000000E+00 0. -1.
          1    1    1    2  502    0 -0.20852237201E+02 -0.28609211210E+02 -0.75529787470E+02  0.83414936058E+02  0.00000000000E+00 0. -1.
         22    1    1    2    0    0 -0.85993785579E+00  0.41574845933E+02 -0.64563717894E+02  0.76796360433E+02  0.00000000000E+00 0. -1.
         22    1    1    2    0    0 -0.81818094010E+01 -0.10512377492E+02  0.54381026456E+02  0.55988821420E+02  0.00000000000E+00 0. -1.
</event>
<event>
 6    1  0.3624778E-005  0.4698586E+02  0.7818608E-02  0.1494202E+00
          2   -1    0    0  502    0  0.00000000000E+00  0.00000000000E+00  0.65562993225E+02  0.65562993225E+02  0.00000000000E+00 0.  1.
          1   -1    0    0  501    0 -0.00000000000E+00 -0.00000000000E+00 -0.16903245868E+04  0.16903245868E+04  0.00000000000E+00 0. -1.
          2    1    1    2  501    0 -0.15150881084E+02  0.14983892263E+02  0.16665723654E+02  0.27052034487E+02  0.00000000000E+00 0.  1.
          1    1    1    2  502    0  0.26812985664E+02 -0.62541711512E+01 -0.16011802826E+04  0.16014169813E+04  0.00000000000E+00 0. -1.
         22    1    1    2    0    0  0.19881861334E+02  0.14616833471E+02  0.34840447332E+02  0.42694226789E+02  0.00000000000E+00 0.  1.
         22    1    1    2    0    0 -0.31543965915E+02 -0.23346554583E+02 -0.75087481990E+02  0.84724337402E+02  0.00000000000E+00 0. -1.
</event>
<event>
 6    1  0.3624778E-005  0.1223094E+03  0.7818608E-02  0.1314699E+00
          2   -1    0    0  502    0  0.00000000000E+00  0.00000000000E+00  0.15395238406E+03  0.15395238406E+03  0.00000000000E+00 0. -1.
          1   -1    0    0  501    0 -0.00000000000E+00 -0.00000000000E+00 -0.26414060072E+03  0.26414060072E+03  0.00000000000E+00 0. -1.
          2    1    1    2  501    0 -0.68287149414E+02  0.90445222787E+02 -0.95714914422E+02  0.14834021013E+03  0.00000000000E+00 0. -1.
          1    1    1    2  502    0  0.44305661020E+02 -0.89479778506E+02 -0.76696204659E+02  0.12590444857E+03  0.00000000000E+00 0. -1.
         22    1    1    2    0    0  0.37231091983E+01  0.19657800938E+02 -0.36149144901E+02  0.41316478031E+02  0.00000000000E+00 0.  1.
         22    1    1    2    0    0  0.20258379195E+02 -0.20623245219E+02  0.98372047317E+02  0.10253184805E+03  0.00000000000E+00 0. -1.
</event>
<event>
 6    1  0.3624778E-005  0.9913129E+02  0.7818608E-02  0.1293191E+00
          2   -1    0    0  502    0  0.00000000000E+00  0.00000000000E+00  0.15795193052E+03  0.15795193052E+03  0.00000000000E+00 0. -1.
          1   -1    0    0  501    0 -0.00000000000E+00 -0.00000000000E+00 -0.87896414745E+03  0.87896414745E+03  0.00000000000E+00 0.  1.
          2    1    1    2  501    0  0.50743888259E+02  0.10196071598E+02 -0.73489933314E+01  0.52277239547E+02  0.00000000000E+00 0. -1.
          1    1    1    2  502    0 -0.31107574064E+02 -0.36599506535E+02 -0.81878739928E+03  0.82019510500E+03  0.00000000000E+00 0.  1.
         22    1    1    2    0    0 -0.61012652989E+02  0.49945982298E+02  0.65455675643E+02  0.10247726795E+03  0.00000000000E+00 0. -1.
         22    1    1    2    0    0  0.41376338794E+02 -0.23542547361E+02  0.39668500044E+02  0.61966465479E+02  0.00000000000E+00 0.  1.
</event>
<event>
 6    1  0.3624778E-005  0.1671237E+03  0.7818608E-02  0.1231432E+00
          2   -1    0    0  502    0  0.00000000000E+00  0.00000000000E+00  0.37566238052E+03  0.37566238052E+03  0.00000000000E+00 0. -1.
          1   -1    0    0  501    0 -0.00000000000E+00 -0.00000000000E+00 -0.21545094778E+03  0.21545094778E+03  0.00000000000E+00 0. -1.
          2    1    1    2  501    0  0.92283374068E+02  0.74159363797E+02 -0.22853893321E+02  0.12057417969E+03  0.00000000000E+00 0. -1.
          1    1    1    2  502    0 -0.15519763906E+03 -0.62311384826E+02 -0.69328663159E+02  0.18103999388E+03  0.00000000000E+00 0. -1.
         22    1    1    2    0    0  0.27987453366E+02  0.32384059930E+02  0.14763598653E+02  0.45276801219E+02  0.00000000000E+00 0. -1.
         22    1    1    2    0    0  0.34926811627E+02 -0.44232038900E+02  0.23763039057E+03  0.24422235351E+03  0.00000000000E+00 0. -1.
</event>
<event>
 6    1  0.3624778E-005  0.1633200E+03  0.7818608E-02  0.1282734E+00
          2   -1    0    0  502    0  0.00000000000E+00  0.00000000000E+00  0.63054938365E+02  0.63054938365E+02  0.00000000000E+00 0.  1.
          1   -1    0    0  501    0 -0.00000000000E+00 -0.00000000000E+00 -0.21430415279E+04  0.21430415279E+04  0.00000000000E+00 0.  1.
          2    1    1    2  501    0  0.31410327782E+02  0.71585622357E+02 -0.11859967208E+03  0.14204573995E+03  0.00000000000E+00 0.  1.
          1    1    1    2  502    0 -0.96845187995E+02 -0.10803307560E+03 -0.18990441964E+04  0.19045784299E+04  0.00000000000E+00 0.  1.
         22    1    1    2    0    0  0.87318250601E+02  0.35237847972E+02 -0.85786484486E+02  0.12737936936E+03  0.00000000000E+00 0.  1.
         22    1    1    2    0    0 -0.21883390389E+02  0.12096052663E+01  0.23443763448E+02  0.32092927015E+02  0.00000000000E+00 0.  1.
</event>
<event>
 6    1  0.3624778E-005  0.3781383E+03  0.7818608E-02  0.1177565E+00
          2   -1    0    0  502    0  0.00000000000E+00  0.00000000000E+00  0.47607290290E+03  0.47607290290E+03  0.00000000000E+00 0. -1.
          1   -1    0    0  501    0 -0.00000000000E+00 -0.00000000000E+00 -0.34066259588E+03  0.34066259588E+03  0.00000000000E+00 0. -1.
          2    1    1    2  501    0 -0.17012101797E+03  0.26372578383E+01  0.10916856524E+03  0.20215313878E+03  0.00000000000E+00 0. -1.
          1    1    1    2  502    0 -0.89885345738E+01 -0.59291675506E+02 -0.25137382601E+03  0.25842812723E+03  0.00000000000E+00 0. -1.
         22    1    1    2    0    0  0.19447165639E+03  0.54271294902E+02  0.22990751500E+03  0.30597722798E+03  0.00000000000E+00 0. -1.
         22    1    1    2    0    0 -0.15362103845E+02  0.23831227658E+01  0.47708052794E+02  0.50177004793E+02  0.00000000000E+00 0. -1.
</event>
<event>
 6    1  0.3624778E-005  0.6572665E+02  0.7818608E-02  0.1383095E+00
          2   -1    0    0  502    0  0.00000000000E+00  0.00000000000E+00  0.31184947109E+03  0.31184947109E+03  0.00000000000E+00 0.  1.
          1   -1    0    0  501    0 -0.00000000000E+00 -0.00000000000E+00 -0.71701150462E+03  0.71701150462E+03  0.00000000000E+00 0.  1.
          2    1    1    2  501    0 -0.11072953809E+02  0.21204119912E+02  0.24748297539E+02  0.34419518277E+02  0.00000000000E+00 0.  1.
          1    1    1    2  502    0  0.14277244354E+02 -0.15591010379E+02 -0.69876628210E+03  0.69908600066E+03  0.00000000000E+00 0.  1.
         22    1    1    2    0    0 -0.54271313806E+02  0.12156161519E+02  0.70692072171E+02  0.89947300309E+02  0.00000000000E+00 0. -1.
         22    1    1    2    0    0  0.51067023261E+02 -0.17769271052E+02  0.19816387886E+03  0.20540815647E+03  0.00000000000E+00 0.  1.
</event>
<event>
 6    1  0.3624778E-005  0.1712894E+03  0.7818608E-02  0.1238898E+00
          2   -1    0    0  502    0  0.00000000000E+00  0.00000000000E+00  0.53793298721E+02  0.53793298721E+02  0.00000000000E+00 0. -1.
          1   -1    0    0  501    0 -0.00000000000E+00 -0.00000000000E+00 -0.11781641123E+04  0.11781641123E+04  0.00000000000E+00 0. -1.
          2    1    1    2  501    0 -0.38044381703E+02  0.67522930692E+02 -0.27271218623E+02  0.82161064463E+02  0.00000000000E+00 0. -1.
          1    1    1    2  502    0  0.47318439148E+02 -0.78130437242E+02 -0.94729519872E+03  0.95168881123E+03  0.00000000000E+00 0. -1.
         22    1    1    2    0    0 -0.94471300341E+01  0.43922928198E+02 -0.29214426025E+00  0.44928356698E+02  0.00000000000E+00 0. -1.
         22    1    1    2    0    0  0.17307258970E+00 -0.33315421649E+02 -0.14951225195E+03  0.15317917860E+03  0.00000000000E+00 0. -1.
</event>
<event>
 6    1  0.3624778E-005  0.1040789E+03  0.7818608E-02  0.1355935E+00
          2   -1    0    0  502    0  0.00000000000E+00  0.00000000000E+00  0.10545414797E+03  0.10545414797E+03  0.00000000000E+00 0.  1.
          1   -1    0    0  501    0 -0.00000000000E+00 -0.00000000000E+00 -0.32159859453E+03  0.32159859453E+03  0.00000000000E+00 0.  1.
          2    1    1    2  501    0  0.27424080490E+02 -0.52295979149E+00 -0.12140372446E+02  0.29995705039E+02  0.00000000000E+00 0.  1.
          1    1    1    2  502    0 -0.83394349926E+02  0.61161701826E+02 -0.22501654006E+03  0.24764453289E+03  0.00000000000E+00 0.  1.
         22    1    1    2    0    0 -0.54685706341E+01 -0.22178290853E+02  0.62047739290E+02  0.66118861159E+02  0.00000000000E+00 0.  1.
         22    1    1    2    0    0  0.61438840071E+02 -0.38460451182E+02 -0.41035273337E+02  0.83293643408E+02  0.00000000000E+00 0.  1.
</event>
<event>
 6    1  0.3624778E-005  0.1086331E+03  0.7818608E-02  0.1323061E+00
          2   -1    0    0  502    0  0.00000000000E+00  0.00000000000E+00  0.76915013782E+03  0.76915013782E+03  0.00000000000E+00 0.  1.
          1   -1    0    0  501    0 -0.00000000000E+00 -0.00000000000E+00 -0.20697233017E+02  0.20697233017E+02  0.00000000000E+00 0.  1.
          2    1    1    2  501    0  0.35066031999E+02  0.47168674405E+01  0.53624222148E+02  0.64245098176E+02  0.00000000000E+00 0.  1.
          1    1    1    2  502    0 -0.64027163446E+02  0.36256393518E+02  0.32908628572E+03  0.33721178387E+03  0.00000000000E+00 0.  1.
         22    1    1    2    0    0  0.64449055378E+02 -0.42580267022E+02  0.32625760483E+03  0.33527717577E+03  0.00000000000E+00 0.  1.
         22    1    1    2    0    0 -0.35487923931E+02  0.16070060643E+01  0.39484792102E+02  0.53113313028E+02  0.00000000000E+00 0. -1.
</event>
<event>
 6    1  0.3624778E-005  0.1065107E+03  0.7818608E-02  0.1271278E+00
          2   -1    0    0  502    0  0.00000000000E+00  0.00000000000E+00  0.29385499347E+03  0.29385499347E+03  0.00000000000E+00 0.  1.
          1   -1    0    0  501    0 -0.00000000000E+00 -0.00000000000E+00 -0.66181176194E+02  0.66181176194E+02  0.00000000000E+00 0.  1.
          2    1    1    2  501    0  0.62964487861E+02 -0.22335392128E+02  0.76362058242E+02  0.10146211319E+03  0.00000000000E+00 0.  1.
          1    1    1    2  502    0  0.35746627884E+02  0.33853385324E+01 -0.24985039359E+01  0.35993394449E+02  0.00000000000E+00 0.  1.
         22    1    1    2    0    0 -0.11478288067E+03  0.37193786649E+02  0.79752197153E+02  0.14463367661E+03  0.00000000000E+00 0.  1.
         22    1    1    2    0    0  0.16071764921E+02 -0.18243733054E+02  0.74058065811E+02  0.77946985414E+02  0.00000000000E+00 0.  1.
</event>
<event>
 6    1  0.3624778E-005  0.7570080E+02  0.7818608E-02  0.1381576E+00
          2   -1    0    0  502    0  0.00000000000E+00  0.00000000000E+00  0.39573448678E+03  0.39573448678E+03  0.00000000000E+00 0. -1.
          1   -1    0    0  501    0 -0.00000000000E+00 -0.00000000000E+00 -0.75942812005E+02  0.75942812005E+02  0.00000000000E+00 0. -1.
          2    1    1    2  501    0 -0.16189387008E+02  0.47965280367E+02 -0.31038428310E+02  0.59381380957E+02  0.00000000000E+00 0. -1.
          1    1    1    2  502    0 -0.23023279006E+01 -0.82029300295E+02  0.16038220840E+03  0.18015704147E+03  0.00000000000E+00 0. -1.
         22    1    1    2    0    0 -0.16950816184E+02  0.18280150345E+02 -0.10811999440E+02  0.27173395037E+02  0.00000000000E+00 0.  1.
         22    1    1    2    0    0  0.35442531093E+02  0.15783869583E+02  0.20125989413E+03  0.20496548132E+03  0.00000000000E+00 0. -1.
</event>
<event>
 6    1  0.3624778E-005  0.1777185E+03  0.7818608E-02  0.1308106E+00
          2   -1    0    0  502    0  0.00000000000E+00  0.00000000000E+00  0.75026336322E+02  0.75026336322E+02  0.00000000000E+00 0.  1.
          1   -1    0    0  501    0 -0.00000000000E+00 -0.00000000000E+00 -0.32768058257E+04  0.32768058257E+04  0.00000000000E+00 0.  1.
          2    1    1    2  501    0  0.22015575007E+02 -0.33613795621E+02 -0.73665311160E+01  0.40851420778E+02  0.00000000000E+00 0.  1.
          1    1    1    2  502    0 -0.10176096323E+03  0.13770646269E+03 -0.31003770296E+04  0.31051016230E+04  0.00000000000E+00 0.  1.
         22    1    1    2    0    0  0.97994698765E+01  0.40893424856E+01  0.27063292311E+02  0.29071878552E+02  0.00000000000E+00 0.  1.
         22    1    1    2    0    0  0.69945918350E+02 -0.10818200955E+03 -0.12109922096E+03  0.17680723968E+03  0.00000000000E+00 0.  1.
</event>
<event>
 6    1  0.3624778E-005  0.1439978E+03  0.7818608E-02  0.1265458E+00
          2   -1    0    0  502    0  0.00000000000E+00  0.00000000000E+00  0.64089258824E+02  0.64089258824E+02  0.00000000000E+00 0.  1.
          1   -1    0    0  501    0 -0.00000000000E+00 -0.00000000000E+00 -0.10707564517E+04  0.10707564517E+04  0.00000000000E+00 0.  1.
          2    1    1    2  501    0  0.28889271777E+02 -0.34691719245E+02 -0.95428324602E+03  0.95535052155E+03  0.00000000000E+00 0.  1.
          1    1    1    2  502    0  0.93575064215E+01 -0.24445546694E+02 -0.23411777553E+02  0.35117787627E+02  0.00000000000E+00 0.  1.
         22    1    1    2    0    0 -0.32459467953E+02  0.14719907438E+02 -0.73208267527E+02  0.81423234824E+02  0.00000000000E+00 0. -1.
         22    1    1    2    0    0 -0.57873102460E+01  0.44417358501E+02  0.44236098221E+02  0.62954166518E+02  0.00000000000E+00 0.  1.
</event>
<event>
 6    1  0.3624778E-005  0.4266166E+02  0.7818608E-02  0.1548969E+00
          2   -1    0    0  502    0  0.00000000000E+00  0.00000000000E+00  0.26415341424E+03  0.26415341424E+03  0.00000000000E+00 0. -1.
          1   -1    0    0  501    0 -0.00000000000E+00 -0.00000000000E+00 -0.17834725484E+03  0.17834725484E+03  0.00000000000E+00 0. -1.
          2    1    1    2  501    0 -0.90372601240E+01  0.23217477842E+02 -0.12861169061E+03  0.13100263474E+03  0.00000000000E+00 0. -1.
          1    1    1    2  502    0  0.29447878874E+02 -0.42816114772E+02  0.16330667183E+03  0.17137522084E+03  0.00000000000E+00 0. -1.
         22    1    1    2    0    0 -0.18816620249E+02  0.39914321833E+01  0.93221346805E+02  0.95185168112E+02  0.00000000000E+00 0.  1.
         22    1    1    2    0    0 -0.15939985006E+01  0.15607204747E+02 -0.42110168621E+02  0.44937645382E+02  0.00000000000E+00 0.  1.
</event>
<event>
 6    1  0.3624778E-005  0.9426910E+02  0.7818608E-02  0.1294241E+00
          2   -1    0    0  502    0  0.00000000000E+00  0.00000000000E+00  0.20275539115E+03  0.20275539115E+03  0.00000000000E+00 0.  1.
          1   -1    0    0  501    0 -0.00000000000E+00 -0.00000000000E+00 -0.32298390981E+03  0.32298390981E+03  0.00000000000E+00 0. -1.
          2    1    1    2  501    0  0.39816438737E+02 -0.26347060274E+02  0.49011408392E+02  0.68422470954E+02  0.00000000000E+00 0.  1.
          1    1    1    2  502    0  0.20665082581E+02 -0.17413854707E+02 -0.27448183934E+03  0.27580893405E+03  0.00000000000E+00 0. -1.
         22    1    1    2    0    0 -0.77469524574E+02  0.76817713815E+02  0.66240327425E+02  0.12763333957E+03  0.00000000000E+00 0.  1.
         22    1    1    2    0    0  0.16988003255E+02 -0.33056798834E+02  0.39001584860E+02  0.53874556382E+02  0.00000000000E+00 0.  1.
</event>
<event>
 6    1  0.3624778E-005  0.1041007E+03  0.7818608E-02  0.1309558E+00
          2   -1    0    0  502    0  0.00000000000E+00  0.00000000000E+00  0.52971123150E+02  0.52971123150E+02  0.00000000000E+00 0. -1.
          1   -1    0    0  501    0 -0.00000000000E+00 -0.00000000000E+00 -0.11025141602E+04  0.11025141602E+04  0.00000000000E+00 0. -1.
          2    1    1    2  501    0 -0.36037796460E+02  0.19546356732E+02 -0.85272658873E+03  0.85371155431E+03  0.00000000000E+00 0. -1.
          1    1    1    2  502    0  0.55784291627E+02 -0.47231399015E+02 -0.10729861473E+02  0.73877074743E+02  0.00000000000E+00 0. -1.
         22    1    1    2    0    0  0.11834395876E+02  0.50076887752E+02 -0.16634112455E+02  0.54078103793E+02  0.00000000000E+00 0. -1.
         22    1    1    2    0    0 -0.31580891043E+02 -0.22391845469E+02 -0.16945247442E+03  0.17381855054E+03  0.00000000000E+00 0. -1.
</event>
<event>
 6    1  0.3624778E-005  0.3659391E+03  0.7818608E-02  0.1191853E+00
          2   -1    0    0  502    0  0.00000000000E+00  0.00000000000E+00  0.62299344875E+02  0.62299344875E+02  0.00000000000E+00 0.  1.
          1   -1    0    0  501    0 -0.00000000000E+00 -0.00000000000E+00 -0.20891447976E+04  0.20891447976E+04  0.00000000000E+00 0. -1.
          2    1    1    2  501    0 -0.24030644581E+03  0.93892396802E+02 -0.86453762060E+03  0.90221298345E+03  0.00000000000E+00 0.  1.
          1    1    1    2  502    0  0.19812081288E+03 -0.20261200725E+03 -0.73253614416E+03  0.78543789345E+03  0.00000000000E+00 0. -1.
         22    1    1    2    0    0  0.11804737016E+02  0.40286978147E+01  0.65303223801E+01  0.14079322871E+02  0.00000000000E+00 0.  1.
         22    1    1    2    0    0  0.30380895909E+02  0.10469091263E+03 -0.43630201033E+03  0.44971394268E+03  0.00000000000E+00 0.  1.
</event>
<event>
 6    1  0.3624778E-005  0.1852620E+03  0.7818608E-02  0.1221679E+00
          2   -1    0    0  502    0  0.00000000000E+00  0.00000000000E+00  0.60391251951E+03  0.60391251951E+03  0.00000000000E+00 0.  1.
          1   -1    0    0  501    0 -0.00000000000E+00 -0.00000000000E+00 -0.10381761347E+03  0.10381761347E+03  0.00000000000E+00 0. -1.
          2    1    1    2  501    0 -0.74204119394E+02  0.12384595972E+03  0.28871847513E+03  0.32280401323E+03  0.00000000000E+00 0.  1.
          1    1    1    2  502    0  0.61008681020E+02 -0.17557156922E+03  0.12816436448E+03  0.22577320346E+03  0.00000000000E+00 0. -1.
         22    1    1    2    0    0 -0.28105698274E+02  0.22384357114E+02  0.99618472541E+02  0.10590009344E+03  0.00000000000E+00 0. -1.
         22    1    1    2    0    0  0.41301136649E+02  0.29341252387E+02 -0.16406406114E+02  0.53252822852E+02  0.00000000000E+00 0.  1.
</event>
<event>
 6    1  0.3624778E-005  0.1241530E+03  0.7818608E-02  0.1359953E+00
          2   -1    0    0  502    0  0.00000000000E+00  0.00000000000E+00  0.23240706644E+02  0.23240706644E+02  0.00000000000E+00 0.  1.
          1   -1    0    0  501    0 -0.00000000000E+00 -0.00000000000E+00 -0.80997575072E+03  0.80997575072E+03  0.00000000000E+00 0.  1.
          2    1    1    2  501    0 -0.36296708739E+02 -0.17123963446E+02 -0.72020174502E+02  0.82447478583E+02  0.00000000000E+00 0.  1.
          1    1    1    2  502    0  0.70053501248E+02 -0.36330804712E+02 -0.34421225352E+03  0.35314231675E+03  0.00000000000E+00 0.  1.
         22    1    1    2    0    0 -0.60496025146E+00 -0.12561344264E+02  0.60080754167E+01  0.13937371231E+02  0.00000000000E+00 0. -1.
         22    1    1    2    0    0 -0.33151832258E+02  0.66016112421E+02 -0.37651069147E+03  0.38368929079E+03  0.00000000000E+00 0.  1.
</event>
<event>
 6    1  0.3624778E-005  0.1695635E+03  0.7818608E-02  0.1241008E+00
          2   -1    0    0  502    0  0.00000000000E+00  0.00000000000E+00  0.16757770176E+03  0.16757770176E+03  0.00000000000E+00 0.  1.
          1   -1    0    0  501    0 -0.00000000000E+00 -0.00000000000E+00 -0.50261057999E+03  0.50261057999E+03  0.00000000000E+00 0.  1.
          2    1    1    2  501    0 -0.51027807155E+02 -0.12707724392E+03 -0.20515476377E+03  0.24665956321E+03  0.00000000000E+00 0.  1.
          1    1    1    2  502    0  0.24930127250E+02  0.18457186214E+03 -0.19187005783E+03  0.26739933177E+03  0.00000000000E+00 0.  1.
         22    1    1    2    0    0  0.16555882607E+02 -0.41165643119E+02  0.10235330447E+03  0.11155674053E+03  0.00000000000E+00 0.  1.
         22    1    1    2    0    0  0.95417972982E+01 -0.16328975103E+02 -0.40361361090E+02  0.44572646237E+02  0.00000000000E+00 0.  1.
</event>
<event>
 6    1  0.3624778E-005  0.1880662E+03  0.7818608E-02  0.1184319E+00
          2   -1    0    0  502    0  0.00000000000E+00  0.00000000000E+00  0.94044890579E+02  0.94044890579E+02  0.00000000000E+00 0.  1.
          1   -1    0    0  501    0 -0.00000000000E+00 -0.00000000000E+00 -0.13982816620E+04  0.13982816620E+04  0.00000000000E+00 0.  1.
          2    1    1    2  501    0 -0.16581342241E+03 -0.14179050601E+03 -0.37708012647E+03  0.43564671515E+03  0.00000000000E+00 0.  1.
          1    1    1    2  502    0  0.14499869504E+03  0.25639883323E+02 -0.86067257071E+03  0.87317770193E+03  0.00000000000E+00 0.  1.
         22    1    1    2    0    0  0.45751606718E+02  0.98485470719E+02  0.18891859036E+01  0.10861015829E+03  0.00000000000E+00 0.  1.
         22    1    1    2    0    0 -0.24936879350E+02  0.17665151972E+02 -0.68373260118E+02  0.74891977174E+02  0.00000000000E+00 0.  1.
</event>
<event>
 6    1  0.3624778E-005  0.1027468E+03  0.7818608E-02  0.1307708E+00
          2   -1    0    0  502    0  0.00000000000E+00  0.00000000000E+00  0.19882779606E+03  0.19882779606E+03  0.00000000000E+00 0. -1.
          1   -1    0    0  501    0 -0.00000000000E+00 -0.00000000000E+00 -0.26270327633E+03  0.26270327633E+03  0.00000000000E+00 0.  1.
          2    1    1    2  501    0 -0.13212220223E+02 -0.29388100488E+02 -0.60838433517E+01  0.32790796932E+02  0.00000000000E+00 0. -1.
          1    1    1    2  502    0  0.24705816679E+01  0.62778618081E+02 -0.21704000852E+03  0.22595049007E+03  0.00000000000E+00 0.  1.
         22    1    1    2    0    0 -0.50735632849E+02 -0.22119827299E+02  0.11027899119E+03  0.12338900720E+03  0.00000000000E+00 0. -1.
         22    1    1    2    0    0  0.61477271404E+02 -0.11270690294E+02  0.48969380407E+02  0.79400778185E+02  0.00000000000E+00 0.  1.
</event>
<event>
 6    1  0.3624778E-005  0.1723410E+03  0.7818608E-02  0.1233077E+00
          2   -1    0    0  502    0  0.00000000000E+00  0.00000000000E+00  0.35777242022E+03  0.35777242022E+03  0.00000000000E+00 0.  1.
          1   -1    0    0  501    0 -0.00000000000E+00 -0.00000000000E+00 -0.98051393795E+02  0.98051393795E+02  0.00000000000E+00 0.  1.
          2    1    1    2  501    0  0.82583028717E+01 -0.40514410989E+02 -0.10251281213E+02  0.42599364204E+02  0.00000000000E+00 0.  1.
          1    1    1    2  502    0 -0.98739757975E+01  0.19167860114E+02 -0.58086765462E+02  0.61959459175E+02  0.00000000000E+00 0.  1.
         22    1    1    2    0    0 -0.35122527507E+01  0.73279580740E+02  0.18989013789E+03  0.20356939195E+03  0.00000000000E+00 0.  1.
         22    1    1    2    0    0  0.51279256766E+01 -0.51933029866E+02  0.13816893521E+03  0.14769559869E+03  0.00000000000E+00 0.  1.
</event>
<event>
 6    1  0.4479112E-005  0.1550234E+03  0.7818608E-02  0.1267970E+00
          2   -1    0    0  502    0  0.00000000000E+00  0.00000000000E+00  0.54544950169E+03  0.54544950169E+03  0.00000000000E+00 0. -1.
          1   -1    0    0  501    0 -0.00000000000E+00 -0.00000000000E+00 -0.13345292217E+04  0.13345292217E+04  0.00000000000E+00 0. -1.
          2    1    1    2  501    0  0.20899155556E+02  0.42515091389E+02  0.57973549223E+02  0.74868151495E+02  0.00000000000E+00 0. -1.
          1    1    1    2  502    0 -0.56832547103E+02 -0.11593825188E+03 -0.13110465147E+04  0.13173893048E+04  0.00000000000E+00 0. -1.
         22    1    1    2    0    0  0.10917497555E+02  0.96468464429E+02  0.42513727397E+03  0.43608148104E+03  0.00000000000E+00 0. -1.
         22    1    1    2    0    0  0.25015893992E+02 -0.23045303935E+02  0.38855971493E+02  0.51639786080E+02  0.00000000000E+00 0. -1.
</event>
<event>
 6    1  0.3624778E-005  0.3070721E+03  0.7818608E-02  0.1173861E+00
          2   -1    0    0  502    0  0.00000000000E+00  0.00000000000E+00  0.77780206109E+03  0.77780206109E+03  0.00000000000E+00 0.  1.
          1   -1    0    0  501    0 -0.00000000000E+00 -0.00000000000E+00 -0.13895667335E+03  0.13895667335E+03  0.00000000000E+00 0.  1.
          2    1    1    2  501    0  0.40123261133E+02 -0.12576424889E+03  0.11071572381E+03  0.17229188571E+03  0.00000000000E+00 0.  1.
          1    1    1    2  502    0 -0.10471564720E+03  0.27939690098E+03  0.21910488732E+03  0.37018231548E+03  0.00000000000E+00 0.  1.
         22    1    1    2    0    0  0.95372373202E+02 -0.14661194995E+03  0.22823298197E+03  0.28754347062E+03  0.00000000000E+00 0. -1.
         22    1    1    2    0    0 -0.30779987136E+02 -0.70207021380E+01  0.80791794635E+02  0.86741062634E+02  0.00000000000E+00 0.  1.
</event>
<event>
 6    1  0.3624778E-005  0.1462018E+03  0.7818608E-02  0.1208628E+00
          2   -1    0    0  502    0  0.00000000000E+00  0.00000000000E+00  0.90855817892E+03  0.90855817892E+03  0.00000000000E+00 0. -1.
          1   -1    0    0  501    0 -0.00000000000E+00 -0.00000000000E+00 -0.53133371305E+02  0.53133371305E+02  0.00000000000E+00 0.  1.
          2    1    1    2  501    0  0.13252287742E+03 -0.12287657528E+02  0.17503165222E+03  0.21988492182E+03  0.00000000000E+00 0. -1.
          1    1    1    2  502    0 -0.27633963491E+02 -0.34755152417E+02  0.33309121425E+01  0.44526975346E+02  0.00000000000E+00 0.  1.
         22    1    1    2    0    0  0.23304975864E+02  0.17798769120E+02  0.65850180575E+02  0.72084425253E+02  0.00000000000E+00 0. -1.
         22    1    1    2    0    0 -0.12819388979E+03  0.29244040825E+02  0.61121206268E+03  0.62519522780E+03  0.00000000000E+00 0. -1.
</event>
<event>
 6    1  0.3624778E-005  0.1040402E+03  0.7818608E-02  0.1299481E+00
          2   -1    0    0  502    0  0.00000000000E+00  0.00000000000E+00  0.90617667731E+03  0.90617667731E+03  0.00000000000E+00 0.  1.
          1   -1    0    0  501    0 -0.00000000000E+00 -0.00000000000E+00 -0.12300477354E+02  0.12300477354E+02  0.00000000000E+00 0. -1.
          2    1    1    2  501    0  0.83948515372E+01 -0.23570773915E+02  0.30977566901E+03  0.31078452347E+03  0.00000000000E+00 0.  1.
          1    1    1    2  502    0  0.31725981747E+02  0.22426367038E+02  0.18013106858E+03  0.18427338854E+03  0.00000000000E+00 0. -1.
         22    1    1    2    0    0  0.26285118092E+02 -0.17159315221E+02  0.30911625002E+02  0.44055397992E+02  0.00000000000E+00 0. -1.
         22    1    1    2    0    0 -0.66405951376E+02  0.18303722097E+02  0.37305783736E+03  0.37936384466E+03  0.00000000000E+00 0. -1.
</event>
<event>
 6    1  0.3624778E-005  0.1167350E+03  0.7818608E-02  0.1327331E+00
          2   -1    0    0  502    0  0.00000000000E+00  0.00000000000E+00  0.10881064854E+03  0.10881064854E+03  0.00000000000E+00 0. -1.
          1   -1    0    0  501    0 -0.00000000000E+00 -0.00000000000E+00 -0.98453850072E+03  0.98453850072E+03  0.00000000000E+00 0. -1.
          2    1    1    2  501    0  0.73994450612E+02  0.61189408983E+02 -0.87726305271E+03  0.88250200348E+03  0.00000000000E+00 0. -1.
          1    1    1    2  502    0 -0.75318054241E+02 -0.35575183198E+02  0.25523186676E+01  0.83336170327E+02  0.00000000000E+00 0. -1.
         22    1    1    2    0    0 -0.14791644524E+02 -0.22038703757E+02  0.59303589075E+02  0.64972400973E+02  0.00000000000E+00 0. -1.
         22    1    1    2    0    0  0.16115248153E+02 -0.35755220281E+01 -0.60320707207E+02  0.62538574486E+02  0.00000000000E+00 0. -1.
</event>
<event>
 6    1  0.3624778E-005  0.1333654E+03  0.7818608E-02  0.1258107E+00
          2   -1    0    0  502    0  0.00000000000E+00  0.00000000000E+00  0.52205034948E+02  0.52205034948E+02  0.00000000000E+00 0. -1.
          1   -1    0    0  501    0 -0.00000000000E+00 -0.00000000000E+00 -0.58428460266E+03  0.58428460266E+03  0.00000000000E+00 0. -1.
          2    1    1    2  501    0 -0.78222540391E+02  0.56001506310E+02 -0.13729310502E+03  0.16764346459E+03  0.00000000000E+00 0. -1.
          1    1    1    2  502    0  0.10034603513E+03  0.34751658082E+01 -0.23760402053E+03  0.25794781278E+03  0.00000000000E+00 0. -1.
         22    1    1    2    0    0  0.48504678611E+02 -0.42949240912E+02 -0.51721382337E+02  0.82900196218E+02  0.00000000000E+00 0. -1.
         22    1    1    2    0    0 -0.70628173354E+02 -0.16527431205E+02 -0.10546105982E+03  0.12799816402E+03  0.00000000000E+00 0. -1.
</event>
<event>
 6    1  0.3624778E-005  0.5763124E+02  0.7818608E-02  0.1410209E+00
          2   -1    0    0  502    0  0.00000000000E+00  0.00000000000E+00  0.38582901240E+03  0.38582901240E+03  0.00000000000E+00 0.  1.
          1   -1    0    0  501    0 -0.00000000000E+00 -0.00000000000E+00 -0.10192813648E+03  0.10192813648E+03  0.00000000000E+00 0.  1.
          2    1    1    2  501    0 -0.12628783565E+02 -0.33159873414E+02  0.26510332320E+03  0.26746744727E+03  0.00000000000E+00 0.  1.
          1    1    1    2  502    0  0.31470810386E+02  0.16260454071E+02 -0.63135460693E+02  0.72394065156E+02  0.00000000000E+00 0.  1.
         22    1    1    2    0    0 -0.11937201791E+02 -0.19011154865E+02  0.10318616750E+03  0.10559974413E+03  0.00000000000E+00 0. -1.
         22    1    1    2    0    0 -0.69048250298E+01  0.35910574208E+02 -0.21253154086E+02  0.42295892321E+02  0.00000000000E+00 0.  1.
</event>
<event>
 6    1  0.3624778E-005  0.1170556E+03  0.7818608E-02  0.1289387E+00
          2   -1    0    0  502    0  0.00000000000E+00  0.00000000000E+00  0.46750902988E+03  0.46750902988E+03  0.00000000000E+00 0. -1.
          1   -1    0    0  501    0 -0.00000000000E+00 -0.00000000000E+00 -0.54119553713E+02  0.54119553713E+02  0.00000000000E+00 0. -1.
          2    1    1    2  501    0  0.39481470098E+02 -0.75932063140E+02  0.64238628122E+02  0.10700965394E+03  0.00000000000E+00 0. -1.
          1    1    1    2  502    0 -0.44660220098E+02  0.63184796640E+02  0.53380300098E+02  0.94001650114E+02  0.00000000000E+00 0. -1.
         22    1    1    2    0    0  0.55472130004E+02 -0.23583145827E+01  0.72855669019E+02  0.91600586041E+02  0.00000000000E+00 0. -1.
         22    1    1    2    0    0 -0.50293380003E+02  0.15105581083E+02  0.22291487893E+03  0.22901669349E+03  0.00000000000E+00 0. -1.
</event>
<event>
 6    1  0.3624778E-005  0.1410230E+03  0.7818608E-02  0.1275226E+00
          2   -1    0    0  502    0  0.00000000000E+00  0.00000000000E+00  0.42531719422E+03  0.42531719422E+03  0.00000000000E+00 0.  1.
          1   -1    0    0  501    0 -0.00000000000E+00 -0.00000000000E+00 -0.32915399605E+03  0.32915399605E+03  0.00000000000E+00 0. -1.
          2    1    1    2  501    0 -0.17112434690E+02 -0.11445258099E+03  0.35557728625E+03  0.37393506818E+03  0.00000000000E+00 0.  1.
          1    1    1    2  502    0  0.23965436852E+02  0.11450678405E+03 -0.22800901313E+03  0.25626988865E+03  0.00000000000E+00 0. -1.
         22    1    1    2    0    0  0.29085660348E+01 -0.38103164756E+02  0.31890297908E+02  0.49772502664E+02  0.00000000000E+00 0. -1.
         22    1    1    2    0    0 -0.97615681966E+01  0.38048961688E+02 -0.63295372864E+02  0.74493730778E+02  0.00000000000E+00 0. -1.
</event>
<event>
 6    1  0.3624778E-005  0.8893430E+02  0.7818608E-02  0.1322734E+00
          2   -1    0    0  502    0  0.00000000000E+00  0.00000000000E+00  0.27176099246E+03  0.27176099246E+03  0.00000000000E+00 0. -1.
          1   -1    0    0  501    0 -0.00000000000E+00 -0.00000000000E+00 -0.12112233618E+03  0.12112233618E+03  0.00000000000E+00 0. -1.
          2    1    1    2  501    0 -0.67915285860E+01  0.37296731093E+02 -0.76736909630E+02  0.85590445204E+02  0.00000000000E+00 0. -1.
          1    1    1    2  502    0 -0.25421889672E+02 -0.53707268337E+01 -0.16421398968E+02  0.30737266067E+02  0.00000000000E+00 0. -1.
         22    1    1    2    0    0  0.26519331567E+02 -0.59733250422E+02  0.23899261461E+03  0.24776764516E+03  0.00000000000E+00 0. -1.
         22    1    1    2    0    0  0.56940866911E+01  0.27807246162E+02  0.48043502678E+01  0.28787972208E+02  0.00000000000E+00 0. -1.
</event>
<event>
 6    1  0.3624778E-005  0.1221991E+03  0.7818608E-02  0.1246150E+00
          2   -1    0    0  502    0  0.00000000000E+00  0.00000000000E+00  0.92891420292E+03  0.92891420292E+03  0.00000000000E+00 0.  1.
          1   -1    0    0  501    0 -0.00000000000E+00 -0.00000000000E+00 -0.26107806120E+02  0.26107806120E+02  0.00000000000E+00 0.  1.
          2    1    1    2  501    0 -0.67816146454E+02 -0.23753623460E+01  0.13816771698E+03  0.15393177087E+03  0.00000000000E+00 0.  1.
          1    1    1    2  502    0  0.85777296059E+02  0.45540013146E+02  0.21752655327E+03  0.23822140688E+03  0.00000000000E+00 0.  1.
         22    1    1    2    0    0  0.16794244851E+02  0.39278359020E+02  0.18487939232E+03  0.18975043044E+03  0.00000000000E+00 0.  1.
         22    1    1    2    0    0 -0.34755394456E+02 -0.82443009821E+02  0.36223273423E+03  0.37311840086E+03  0.00000000000E+00 0.  1.
</event>
<event>
 6    1  0.3624778E-005  0.7622715E+02  0.7818608E-02  0.1349733E+00
          2   -1    0    0  502    0  0.00000000000E+00  0.00000000000E+00  0.23336057758E+03  0.23336057758E+03  0.00000000000E+00 0. -1.
          1   -1    0    0  501    0 -0.00000000000E+00 -0.00000000000E+00 -0.19513009175E+04  0.19513009175E+04  0.00000000000E+00 0. -1.
          2    1    1    2  501    0  0.10574027243E+02  0.57084162350E+02  0.47463127018E+02  0.74987732794E+02  0.00000000000E+00 0. -1.
          1    1    1    2  502    0 -0.44037682842E+02 -0.34128883330E+02 -0.19104574307E+04  0.19112696547E+04  0.00000000000E+00 0. -1.
         22    1    1    2    0    0  0.22445345779E+02  0.36364340107E+02  0.15828142373E+01  0.42762882030E+02  0.00000000000E+00 0. -1.
         22    1    1    2    0    0  0.11018309820E+02 -0.59319619128E+02  0.14347114953E+03  0.15564122562E+03  0.00000000000E+00 0. -1.
</event>
<event>
 6    1  0.3624778E-005  0.1625917E+03  0.7818608E-02  0.1250405E+00
          2   -1    0    0  502    0  0.00000000000E+00  0.00000000000E+00  0.17916904512E+03  0.17916904512E+03  0.00000000000E+00 0. -1.
          1   -1    0    0  501    0 -0.00000000000E+00 -0.00000000000E+00 -0.10607414819E+04  0.10607414819E+04  0.00000000000E+00 0.  1.
          2    1    1    2  501    0 -0.50301473504E+02 -0.10063178125E+03  0.51428770409E+02  0.12370089757E+03  0.00000000000E+00 0. -1.
          1    1    1    2  502    0  0.66768232418E+02  0.13647133853E+03 -0.96892719873E+03  0.98076620025E+03  0.00000000000E+00 0.  1.
         22    1    1    2    0    0  0.35797473475E+02  0.21302818563E+02  0.40194749629E+02  0.57886847242E+02  0.00000000000E+00 0.  1.
         22    1    1    2    0    0 -0.52264232388E+02 -0.57142375842E+02 -0.42687580475E+01  0.77556581921E+02  0.00000000000E+00 0. -1.
</event>
<event>
 6    1  0.3624778E-005  0.1123197E+03  0.7818608E-02  0.1367467E+00
          2   -1    0    0  502    0  0.00000000000E+00  0.00000000000E+00  0.11836695614E+03  0.11836695614E+03  0.00000000000E+00 0.  1.
          1   -1    0    0  501    0 -0.00000000000E+00 -0.00000000000E+00 -0.87730621659E+03  0.87730621659E+03  0.00000000000E+00 0. -1.
          2    1    1    2  501    0  0.87431039948E+01 -0.19710596521E+02 -0.18847947899E+01  0.21644905500E+02  0.00000000000E+00 0.  1.
          1    1    1    2  502    0  0.44376535775E+02  0.89172673327E+02 -0.80806600984E+03  0.81418162523E+03  0.00000000000E+00 0. -1.
         22    1    1    2    0    0  0.14468458768E+02  0.38805811596E+01  0.57964114356E+02  0.59868470519E+02  0.00000000000E+00 0.  1.
         22    1    1    2    0    0 -0.67588098538E+02 -0.73342657965E+02 -0.69525701687E+01  0.99978171484E+02  0.00000000000E+00 0. -1.
</event>
<event>
 6    1  0.3624778E-005  0.7073534E+02  0.7818608E-02  0.1471220E+00
          2   -1    0    0  502    0  0.00000000000E+00  0.00000000000E+00  0.35003302223E+02  0.35003302223E+02  0.00000000000E+00 0.  1.
          1   -1    0    0  501    0 -0.00000000000E+00 -0.00000000000E+00 -0.32929032987E+03  0.32929032987E+03  0.00000000000E+00 0.  1.
          2    1    1    2  501    0  0.91056429003E+01 -0.25493972151E+02 -0.11609454885E+03  0.11920905847E+03  0.00000000000E+00 0.  1.
          1    1    1    2  502    0  0.21680168253E+02  0.87727747254E+01  0.24439542091E+01  0.23515190495E+02  0.00000000000E+00 0.  1.
         22    1    1    2    0    0 -0.33368636767E+02  0.28556579357E+02 -0.19664727694E+03  0.20149217273E+03  0.00000000000E+00 0.  1.
         22    1    1    2    0    0  0.25828256145E+01 -0.11835381931E+02  0.16010843936E+02  0.20077210393E+02  0.00000000000E+00 0.  1.
</event>
<event>
 6    1  0.3624778E-005  0.6893357E+02  0.7818608E-02  0.1366615E+00
          2   -1    0    0  502    0  0.00000000000E+00  0.00000000000E+00  0.29537720130E+02  0.29537720130E+02  0.00000000000E+00 0. -1.
          1   -1    0    0  501    0 -0.00000000000E+00 -0.00000000000E+00 -0.35911604594E+03  0.35911604594E+03  0.00000000000E+00 0. -1.
          2    1    1    2  501    0 -0.22478046392E+02 -0.11818832005E+01 -0.21270148889E+02  0.30968994999E+02  0.00000000000E+00 0. -1.
          1    1    1    2  502    0 -0.14133643243E+02  0.19471631775E+02 -0.15212295914E+03  0.15401395720E+03  0.00000000000E+00 0. -1.
         22    1    1    2    0    0  0.73445244463E+02  0.37927449160E+01 -0.13930595448E+03  0.15752694310E+03  0.00000000000E+00 0. -1.
         22    1    1    2    0    0 -0.36833554827E+02 -0.22082493491E+02 -0.16879263296E+02  0.46143870768E+02  0.00000000000E+00 0. -1.
</event>
<event>
 6    1  0.3624778E-005  0.9551597E+02  0.7818608E-02  0.1395643E+00
          2   -1    0    0  502    0  0.00000000000E+00  0.00000000000E+00  0.25070174808E+02  0.25070174808E+02  0.00000000000E+00 0. -1.
          1   -1    0    0  501    0 -0.00000000000E+00 -0.00000000000E+00 -0.18978357267E+04  0.18978357267E+04  0.00000000000E+00 0.  1.
          2    1    1    2  501    0 -0.31238771658E+02  0.13133851391E+01 -0.15790260456E+03  0.16096837690E+03  0.00000000000E+00 0. -1.
          1    1    1    2  502    0  0.67397440399E+02 -0.51353318567E+02 -0.15136781528E+04  0.15160478648E+04  0.00000000000E+00 0.  1.
         22    1    1    2    0    0  0.15363213564E+02  0.10558130859E+01  0.13038852130E+02  0.20178075655E+02  0.00000000000E+00 0.  1.
         22    1    1    2    0    0 -0.51521882305E+02  0.48984120342E+02 -0.21422364669E+03  0.22571158411E+03  0.00000000000E+00 0.  1.
</event>
<event>
 6    1  0.3624778E-005  0.1583675E+03  0.7818608E-02  0.1196709E+00
          2   -1    0    0  502    0  0.00000000000E+00  0.00000000000E+00  0.26793838347E+03  0.26793838347E+03  0.00000000000E+00 0.  1.
          1   -1    0    0  501    0 -0.00000000000E+00 -0.00000000000E+00 -0.11143731639E+03  0.11143731639E+03  0.00000000000E+00 0.  1.
          2    1    1    2  501    0  0.94797739578E+02 -0.80064705813E+02  0.46003126586E+02  0.13233765980E+03  0.00000000000E+00 0.  1.
          1    1    1    2  502    0 -0.23814737165E+02 -0.85632064267E+01 -0.19800480737E+02  0.32132993137E+02  0.00000000000E+00 0.  1.
         22    1    1    2    0    0 -0.77426470225E+01 -0.32341831181E+02  0.35928692744E+02  0.48957262887E+02  0.00000000000E+00 0. -1.
         22    1    1    2    0    0 -0.63240355390E+02  0.12096974342E+03  0.94369728478E+02  0.16594778404E+03  0.00000000000E+00 0.  1.
</event>
<event>
 6    1  0.3624778E-005  0.1447206E+03  0.7818608E-02  0.1228140E+00
          2   -1    0    0  502    0  0.00000000000E+00  0.00000000000E+00  0.68065586653E+02  0.68065586653E+02  0.00000000000E+00 0. -1.
          1   -1    0    0  501    0 -0.00000000000E+00 -0.00000000000E+00 -0.12302855079E+04  0.12302855079E+04  0.00000000000E+00 0. -1.
          2    1    1    2  501    0  0.60005638554E+02 -0.26742181841E+00 -0.15041140142E+03  0.16193930298E+03  0.00000000000E+00 0. -1.
          1    1    1    2  502    0 -0.40779903506E+02  0.74810113914E+02 -0.97827391817E+03  0.98197729742E+03  0.00000000000E+00 0. -1.
         22    1    1    2    0    0 -0.66917647811E+02 -0.71033600870E+02 -0.41333142448E+02  0.10598194519E+03  0.00000000000E+00 0. -1.
         22    1    1    2    0    0  0.47691912763E+02 -0.35090912256E+01  0.77985407792E+01  0.48452548979E+02  0.00000000000E+00 0.  1.
</event>
<event>
 6    1  0.3624778E-005  0.9055461E+02  0.7818608E-02  0.1370691E+00
          2   -1    0    0  502    0  0.00000000000E+00  0.00000000000E+00  0.12440859398E+03  0.12440859398E+03  0.00000000000E+00 0. -1.
          1   -1    0    0  501    0 -0.00000000000E+00 -0.00000000000E+00 -0.50819565218E+03  0.50819565218E+03  0.00000000000E+00 0. -1.
          2    1    1    2  501    0 -0.34346668873E+02 -0.42460717246E+02 -0.32917913284E+02  0.63766724760E+02  0.00000000000E+00 0. -1.
          1    1    1    2  502    0 -0.11830564792E+02  0.53287255129E+02 -0.41831350877E+03  0.42185979359E+03  0.00000000000E+00 0. -1.
         22    1    1    2    0    0  0.24942956972E+02  0.60076460589E+01 -0.33649773844E+02  0.42314893282E+02  0.00000000000E+00 0.  1.
         22    1    1    2    0    0  0.21234276693E+02 -0.16834183943E+02  0.10109413770E+03  0.10466283454E+03  0.00000000000E+00 0. -1.
</event>
<event>
 6    1  0.3624778E-005  0.2144149E+03  0.7818608E-02  0.1211471E+00
          2   -1    0    0  502    0  0.00000000000E+00  0.00000000000E+00  0.36465009995E+03  0.36465009995E+03  0.00000000000E+00 0. -1.
          1   -1    0    0  501    0 -0.00000000000E+00 -0.00000000000E+00 -0.32515810415E+03  0.32515810415E+03  0.00000000000E+00 0.  1.
          2    1    1    2  501    0 -0.13723342122E+03  0.41442807607E+02 -0.10117620177E+02  0.14371111453E+03  0.00000000000E+00 0. -1.
          1    1    1    2  502    0  0.32370124502E+02 -0.32410468620E+02 -0.22431294539E+03  0.22894226545E+03  0.00000000000E+00 0.  1.
         22    1    1    2    0    0  0.33990137394E+02 -0.22099103156E+02  0.22827404771E+03  0.23184637297E+03  0.00000000000E+00 0. -1.
         22    1    1    2    0    0  0.70873159323E+02  0.13066764169E+02  0.45648513664E+02  0.85308451152E+02  0.00000000000E+00 0. -1.
</event>
<event>
 6    1  0.3624778E-005  0.1918430E+03  0.7818608E-02  0.1240596E+00
          2   -1    0    0  502    0  0.00000000000E+00  0.00000000000E+00  0.46848033787E+03  0.46848033787E+03  0.00000000000E+00 0. -1.
          1   -1    0    0  501    0 -0.00000000000E+00 -0.00000000000E+00 -0.87500124374E+03  0.87500124374E+03  0.00000000000E+00 0.  1.
          2    1    1    2  501    0  0.52881712964E+02  0.34742530834E+02  0.98511490357E+02  0.11708130827E+03  0.00000000000E+00 0. -1.
          1    1    1    2  502    0 -0.45047685365E+02  0.93291040626E+02 -0.84081317140E+03  0.84717135305E+03  0.00000000000E+00 0.  1.
         22    1    1    2    0    0  0.19707335350E+02 -0.14203159294E+03  0.25209935851E+03  0.29002661778E+03  0.00000000000E+00 0. -1.
         22    1    1    2    0    0 -0.27541362949E+02  0.13998021477E+02  0.83681416661E+02  0.89202302508E+02  0.00000000000E+00 0. -1.
</event>
<event>
 6    1  0.3624778E-005  0.1162847E+03  0.7818608E-02  0.1287807E+00
          2   -1    0    0  502    0  0.00000000000E+00  0.00000000000E+00  0.67398991951E+02  0.67398991951E+02  0.00000000000E+00 0.  1.
          1   -1    0    0  501    0 -0.00000000000E+00 -0.00000000000E+00 -0.21841968667E+03  0.21841968667E+03  0.00000000000E+00 0.  1.
          2    1    1    2  501    0  0.28290151509E+02  0.32763955081E+02 -0.69466209438E+02  0.81849640675E+02  0.00000000000E+00 0.  1.
          1    1    1    2  502    0  0.33309408093E+02  0.19613134327E+02 -0.15678663245E+02  0.41713453307E+02  0.00000000000E+00 0.  1.
         22    1    1    2    0    0 -0.72161220313E+02  0.32519721481E+01 -0.75870366371E+02  0.10475747960E+03  0.00000000000E+00 0.  1.
         22    1    1    2    0    0  0.10561660711E+02 -0.55629061556E+02  0.99945443312E+01  0.57498105038E+02  0.00000000000E+00 0.  1.
</event>
<event>
 6    1  0.3624778E-005  0.2062591E+03  0.7818608E-02  0.1170790E+00
          2   -1    0    0  502    0  0.00000000000E+00  0.00000000000E+00  0.41872599385E+03  0.41872599385E+03  0.00000000000E+00 0. -1.
          1   -1    0    0  501    0 -0.00000000000E+00 -0.00000000000E+00 -0.52751528862E+03  0.52751528862E+03  0.00000000000E+00 0. -1.
          2    1    1    2  501    0 -0.40944992992E+02 -0.45377292057E+02 -0.71207325732E+02  0.93840685864E+02  0.00000000000E+00 0. -1.
          1    1    1    2  502    0  0.31152250782E+01 -0.30681117040E+02 -0.43065927987E+03  0.43176203041E+03  0.00000000000E+00 0. -1.
         22    1    1    2    0    0 -0.32774772815E+02 -0.13654991837E+02  0.99456031719E+02  0.10560372522E+03  0.00000000000E+00 0. -1.
         22    1    1    2    0    0  0.70604540729E+02  0.89713400934E+02  0.29362127911E+03  0.31503484097E+03  0.00000000000E+00 0. -1.
</event>
<event>
 6    1  0.3624778E-005  0.1877171E+03  0.7818608E-02  0.1226142E+00
          2   -1    0    0  502    0  0.00000000000E+00  0.00000000000E+00  0.15212406555E+03  0.15212406555E+03  0.00000000000E+00 0.  1.
          1   -1    0    0  501    0 -0.00000000000E+00 -0.00000000000E+00 -0.40166015316E+03  0.40166015316E+03  0.00000000000E+00 0.  1.
          2    1    1    2  501    0  0.28072493443E+02 -0.69994594347E+02 -0.15347582050E+02  0.76960096159E+02  0.00000000000E+00 0.  1.
          1    1    1    2  502    0 -0.29779548234E+02  0.17830134184E+03 -0.24851275988E+03  0.30730568140E+03  0.00000000000E+00 0.  1.
         22    1    1    2    0    0 -0.44280267745E+02  0.28398677216E+01 -0.12865907154E+02  0.46198901796E+02  0.00000000000E+00 0.  1.
         22    1    1    2    0    0  0.45987322536E+02 -0.11114661521E+03  0.27190161473E+02  0.12331953936E+03  0.00000000000E+00 0.  1.
</event>
<event>
 6    1  0.3624778E-005  0.2670722E+03  0.7818608E-02  0.1209362E+00
          2   -1    0    0  502    0  0.00000000000E+00  0.00000000000E+00  0.79166743178E+02  0.79166743178E+02  0.00000000000E+00 0.  1.
          1   -1    0    0  501    0 -0.00000000000E+00 -0.00000000000E+00 -0.20390967822E+04  0.20390967822E+04  0.00000000000E+00 0.  1.
          2    1    1    2  501    0  0.56887876876E+02 -0.11214802532E+03 -0.14163510188E+03  0.18940409764E+03  0.00000000000E+00 0.  1.
          1    1    1    2  502    0 -0.23132223101E+02 -0.84978807288E+01 -0.17346035857E+04  0.17347786352E+04  0.00000000000E+00 0.  1.
         22    1    1    2    0    0 -0.21113656746E+02  0.13858324396E+03 -0.95052430255E+02  0.16936961506E+03  0.00000000000E+00 0.  1.
         22    1    1    2    0    0 -0.12641997029E+02 -0.17937337906E+02  0.11361078801E+02  0.24711177462E+02  0.00000000000E+00 0.  1.
</event>
<event>
 6    1  0.3624778E-005  0.5839990E+02  0.7818608E-02  0.1412843E+00
          2   -1    0    0  502    0  0.00000000000E+00  0.00000000000E+00  0.42656079636E+03  0.42656079636E+03  0.00000000000E+00 0. -1.
          1   -1    0    0  501    0 -0.00000000000E+00 -0.00000000000E+00 -0.66712540613E+02  0.66712540613E+02  0.00000000000E+00 0. -1.
          2    1    1    2  501    0 -0.37743300432E+01 -0.28084606583E+02 -0.19393238286E+02  0.34337856448E+02  0.00000000000E+00 0. -1.
          1    1    1    2  502    0 -0.72681073525E+02  0.67749077878E+02  0.19592505606E+03  0.21967954751E+03  0.00000000000E+00 0. -1.
         22    1    1    2    0    0  0.20423641869E+02 -0.12539716058E+02 -0.17069267254E+02  0.29423281778E+02  0.00000000000E+00 0. -1.
         22    1    1    2    0    0  0.56031761699E+02 -0.27124755237E+02  0.20038570523E+03  0.20983265124E+03  0.00000000000E+00 0. -1.
</event>
<event>
 6    1  0.3624778E-005  0.1129207E+03  0.7818608E-02  0.1280105E+00
          2   -1    0    0  502    0  0.00000000000E+00  0.00000000000E+00  0.28717168034E+03  0.28717168034E+03  0.00000000000E+00 0. -1.
          1   -1    0    0  501    0 -0.00000000000E+00 -0.00000000000E+00 -0.16001629425E+03  0.16001629425E+03  0.00000000000E+00 0.  1.
          2    1    1    2  501    0  0.10742313450E+02 -0.23562447891E+02 -0.87356538810E+01  0.27329432808E+02  0.00000000000E+00 0. -1.
          1    1    1    2  502    0 -0.19010526259E+02  0.13915208294E+02 -0.12704328955E+03  0.12920925103E+03  0.00000000000E+00 0.  1.
         22    1    1    2    0    0  0.12621722054E+02 -0.55823060034E+02  0.14119372800E+03  0.15235219305E+03  0.00000000000E+00 0.  1.
         22    1    1    2    0    0 -0.43535092456E+01  0.65470299631E+02  0.12174060152E+03  0.13829709771E+03  0.00000000000E+00 0. -1.
</event>
<event>
 6    1  0.3624778E-005  0.5851165E+02  0.7818608E-02  0.1469605E+00
          2   -1    0    0  502    0  0.00000000000E+00  0.00000000000E+00  0.81967589779E+02  0.81967589779E+02  0.00000000000E+00 0.  1.
          1   -1    0    0  501    0 -0.00000000000E+00 -0.00000000000E+00 -0.24547649224E+03  0.24547649224E+03  0.00000000000E+00 0.  1.
          2    1    1    2  501    0 -0.24553523028E+02 -0.12867267925E+02 -0.72204081485E+02  0.77342559177E+02  0.00000000000E+00 0.  1.
          1    1    1    2  502    0  0.36647313375E+02  0.31820675903E+02 -0.10894508045E+03  0.11926697592E+03  0.00000000000E+00 0.  1.
         22    1    1    2    0    0  0.79458416928E+01 -0.27794936914E+02 -0.51088280039E+02  0.58700147151E+02  0.00000000000E+00 0.  1.
         22    1    1    2    0    0 -0.20039632040E+02  0.88415289354E+01  0.68728539511E+02  0.72134399766E+02  0.00000000000E+00 0.  1.
</event>
<event>
 6    1  0.3624778E-005  0.7478484E+02  0.7818608E-02  0.1403956E+00
          2   -1    0    0  502    0  0.00000000000E+00  0.00000000000E+00  0.18754064084E+03  0.18754064084E+03  0.00000000000E+00 0. -1.
          1   -1    0    0  501    0 -0.00000000000E+00 -0.00000000000E+00 -0.27151218474E+03  0.27151218474E+03  0.00000000000E+00 0. -1.
          2    1    1    2  501    0  0.30057281566E+02  0.21878377250E+02 -0.40085427829E+02  0.54671245554E+02  0.00000000000E+00 0. -1.
          1    1    1    2  502    0 -0.62296035910E+02 -0.54705230092E+02 -0.19019891634E+03  0.20748273679E+03  0.00000000000E+00 0. -1.
         22    1    1    2    0    0  0.23385330609E+02  0.61313411628E+01 -0.18035078424E+02  0.30161748721E+02  0.00000000000E+00 0. -1.
         22    1    1    2    0    0  0.88534237349E+01  0.26695511679E+02  0.16434787869E+03  0.16673709451E+03  0.00000000000E+00 0. -1.
</event>
<event>
 6    1  0.3624778E-005  0.1103665E+03  0.7818608E-02  0.1261819E+00
          2   -1    0    0  502    0  0.00000000000E+00  0.00000000000E+00  0.21558467137E+03  0.21558467137E+03  0.00000000000E+00 0. -1.
          1   -1    0    0  501    0 -0.00000000000E+00 -0.00000000000E+00 -0.15911470245E+03  0.15911470245E+03  0.00000000000E+00 0.  1.
          2    1    1    2  501    0  0.77731576635E+02 -0.16444738857E+02  0.82846076615E+02  0.11478719377E+03  0.00000000000E+00 0. -1.
          1    1    1    2  502    0 -0.11347542068E+02  0.37630086368E+02 -0.91257091188E+02  0.99361193648E+02  0.00000000000E+00 0.  1.
         22    1    1    2    0    0 -0.98506049608E+02 -0.33187415933E+02  0.23068230791E+02  0.10647530069E+03  0.00000000000E+00 0.  1.
         22    1    1    2    0    0  0.32122015041E+02  0.12002068422E+02  0.41812752701E+02  0.54075685711E+02  0.00000000000E+00 0. -1.
</event>
<event>
 6    1  0.3624778E-005  0.2818450E+03  0.7818608E-02  0.1198468E+00
          2   -1    0    0  502    0  0.00000000000E+00  0.00000000000E+00  0.14551712969E+03  0.14551712969E+03  0.00000000000E+00 0. -1.
          1   -1    0    0  501    0 -0.00000000000E+00 -0.00000000000E+00 -0.76740234128E+03  0.76740234128E+03  0.00000000000E+00 0. -1.
          2    1    1    2  501    0 -0.85089784749E+01  0.10618720119E+03 -0.31219704952E+03  0.32987137211E+03  0.00000000000E+00 0. -1.
          1    1    1    2  502    0  0.44221464092E+02 -0.24735376545E+03 -0.44101306209E+02  0.25511634283E+03  0.00000000000E+00 0. -1.
         22    1    1    2    0    0 -0.50351216006E+02  0.15970229908E+03 -0.24400953135E+03  0.29594040055E+03  0.00000000000E+00 0. -1.
         22    1    1    2    0    0  0.14638730389E+02 -0.18535734811E+02 -0.21577324511E+02  0.31991355480E+02  0.00000000000E+00 0. -1.
</event>
<event>
 6    1  0.3624778E-005  0.9593490E+02  0.7818608E-02  0.1292917E+00
          2   -1    0    0  502    0  0.00000000000E+00  0.00000000000E+00  0.13611673355E+03  0.13611673355E+03  0.00000000000E+00 0. -1.
          1   -1    0    0  501    0 -0.00000000000E+00 -0.00000000000E+00 -0.29674424094E+03  0.29674424094E+03  0.00000000000E+00 0. -1.
          2    1    1    2  501    0 -0.26044773102E+01 -0.60310456325E+02  0.11654659444E+02  0.61481424276E+02  0.00000000000E+00 0. -1.
          1    1    1    2  502    0  0.28307821083E+02  0.66205702155E+01 -0.22025486230E+03  0.22216518415E+03  0.00000000000E+00 0. -1.
         22    1    1    2    0    0 -0.90468046567E+01  0.87336196802E+02  0.63734199213E+02  0.10849656260E+03  0.00000000000E+00 0.  1.
         22    1    1    2    0    0 -0.16656539116E+02 -0.33646310692E+02 -0.15761503749E+02  0.40717803464E+02  0.00000000000E+00 0.  1.
</event>
<event>
 6    1  0.3624778E-005  0.1156717E+03  0.7818608E-02  0.1273744E+00
          2   -1    0    0  502    0  0.00000000000E+00  0.00000000000E+00  0.34016479203E+03  0.34016479203E+03  0.00000000000E+00 0.  1.
          1   -1    0    0  501    0 -0.00000000000E+00 -0.00000000000E+00 -0.44519469579E+02  0.44519469579E+02  0.00000000000E+00 0.  1.
          2    1    1    2  501    0  0.23995387076E+02 -0.70791220391E+01 -0.46264698573E+01  0.25442028086E+02  0.00000000000E+00 0.  1.
          1    1    1    2  502    0  0.44845713086E+02 -0.17850381858E+02  0.48912523298E+02  0.68718331252E+02  0.00000000000E+00 0.  1.
         22    1    1    2    0    0  0.22475476787E+02  0.37106462084E+02  0.13682113627E+03  0.14353417682E+03  0.00000000000E+00 0. -1.
         22    1    1    2    0    0 -0.91316576949E+02 -0.12176958188E+02  0.11453813274E+03  0.14698972545E+03  0.00000000000E+00 0.  1.
</event>
<event>
 6    1  0.3624778E-005  0.1396181E+03  0.7818608E-02  0.1229607E+00
          2   -1    0    0  502    0  0.00000000000E+00  0.00000000000E+00  0.47990708603E+03  0.47990708603E+03  0.00000000000E+00 0. -1.
          1   -1    0    0  501    0 -0.00000000000E+00 -0.00000000000E+00 -0.21343653281E+04  0.21343653281E+04  0.00000000000E+00 0.  1.
          2    1    1    2  501    0  0.17718082991E+03  0.79732250931E+02  0.94830961204E+02  0.21620173341E+03  0.00000000000E+00 0. -1.
          1    1    1    2  502    0 -0.91598301540E+02 -0.98772846393E+02 -0.20541697182E+04  0.20585819282E+04  0.00000000000E+00 0.  1.
         22    1    1    2    0    0 -0.10035285842E+03  0.19230184161E+01  0.30001823740E+03  0.31636266683E+03  0.00000000000E+00 0. -1.
         22    1    1    2    0    0  0.14770330052E+02  0.17117577045E+02  0.48622775699E+01  0.23126085638E+02  0.00000000000E+00 0. -1.
</event>
<event>
 6    1  0.3624778E-005  0.1241155E+03  0.7818608E-02  0.1315449E+00
          2   -1    0    0  502    0  0.00000000000E+00  0.00000000000E+00  0.13935533899E+03  0.13935533899E+03  0.00000000000E+00 0. -1.
          1   -1    0    0  501    0 -0.00000000000E+00 -0.00000000000E+00 -0.20885947504E+04  0.20885947504E+04  0.00000000000E+00 0.  1.
          2    1    1    2  501    0 -0.25581644296E+02 -0.55428584587E+02  0.32524551255E+02  0.69170766575E+02  0.00000000000E+00 0. -1.
          1    1    1    2  502    0  0.21243480774E+02  0.52850492881E+02 -0.20263203572E+04  0.20271207784E+04  0.00000000000E+00 0.  1.
         22    1    1    2    0    0  0.17226000655E+01  0.29746659210E+02 -0.35925658831E+02  0.46674233229E+02  0.00000000000E+00 0. -1.
         22    1    1    2    0    0  0.26155634559E+01 -0.27168567504E+02  0.80482053393E+02  0.84984311203E+02  0.00000000000E+00 0. -1.
</event>
<event>
 6    1  0.3624778E-005  0.1061324E+03  0.7818608E-02  0.1287686E+00
          2   -1    0    0  502    0  0.00000000000E+00  0.00000000000E+00  0.57265219420E+03  0.57265219420E+03  0.00000000000E+00 0. -1.
          1   -1    0    0  501    0 -0.00000000000E+00 -0.00000000000E+00 -0.43057811750E+03  0.43057811750E+03  0.00000000000E+00 0. -1.
          2    1    1    2  501    0 -0.64494235207E+02 -0.58633564240E+02  0.93435222820E+02  0.12777927099E+03  0.00000000000E+00 0. -1.
          1    1    1    2  502    0  0.26537974717E+02  0.75527201610E+02 -0.40040856560E+03  0.40833275854E+03  0.00000000000E+00 0. -1.
         22    1    1    2    0    0 -0.27957637893E+02 -0.47655858609E+02  0.17042144438E+03  0.17915406521E+03  0.00000000000E+00 0. -1.
         22    1    1    2    0    0  0.65913898383E+02  0.30762221240E+02  0.27862597510E+03  0.28796421697E+03  0.00000000000E+00 0.  1.
</event>
<event>
 6    1  0.3624778E-005  0.2719665E+03  0.7818608E-02  0.1167035E+00
          2   -1    0    0  502    0  0.00000000000E+00  0.00000000000E+00  0.28429841359E+03  0.28429841359E+03  0.00000000000E+00 0.  1.
          1   -1    0    0  501    0 -0.00000000000E+00 -0.00000000000E+00 -0.16037167041E+03  0.16037167041E+03  0.00000000000E+00 0.  1.
          2    1    1    2  501    0  0.55964706808E+02 -0.17418046877E+02 -0.63679872516E+02  0.86548038273E+02  0.00000000000E+00 0.  1.
          1    1    1    2  502    0 -0.28823785950E+01 -0.23653018515E+02 -0.63969825629E+02  0.68263547976E+02  0.00000000000E+00 0.  1.
         22    1    1    2    0    0 -0.87398169875E+01  0.66072461614E+02  0.22018897014E+03  0.23005463950E+03  0.00000000000E+00 0.  1.
         22    1    1    2    0    0 -0.44342511226E+02 -0.25001396222E+02  0.31387471190E+02  0.59803858258E+02  0.00000000000E+00 0.  1.
</event>
<event>
 6    1  0.3624778E-005  0.3068047E+03  0.7818608E-02  0.1150187E+00
          2   -1    0    0  502    0  0.00000000000E+00  0.00000000000E+00  0.15149428706E+03  0.15149428706E+03  0.00000000000E+00 0. -1.
          1   -1    0    0  501    0 -0.00000000000E+00 -0.00000000000E+00 -0.14774913060E+04  0.14774913060E+04  0.00000000000E+00 0.  1.
          2    1    1    2  501    0 -0.26297820322E+02 -0.12984744036E+02 -0.19392717494E+03  0.19613242494E+03  0.00000000000E+00 0. -1.
          1    1    1    2  502    0  0.22264898382E+02 -0.29210119788E+02 -0.12533125220E+04  0.12538505631E+04  0.00000000000E+00 0.  1.
         22    1    1    2    0    0  0.50512977448E+02  0.17716756192E+02  0.79414875060E+01  0.54115723819E+02  0.00000000000E+00 0. -1.
         22    1    1    2    0    0 -0.46480055509E+02  0.24478107632E+02  0.11330119052E+03  0.12488688117E+03  0.00000000000E+00 0. -1.
</event>
<event>
 6    1  0.3624778E-005  0.1508207E+03  0.7818608E-02  0.1245621E+00
          2   -1    0    0  502    0  0.00000000000E+00  0.00000000000E+00  0.84697987619E+02  0.84697987619E+02  0.00000000000E+00 0.  1.
          1   -1    0    0  501    0 -0.00000000000E+00 -0.00000000000E+00 -0.61435633700E+03  0.61435633700E+03  0.00000000000E+00 0.  1.
          2    1    1    2  501    0 -0.12011292309E+03 -0.53161743104E+02 -0.37160734399E+03  0.39413868540E+03  0.00000000000E+00 0.  1.
          1    1    1    2  502    0  0.11006744106E+03 -0.13218157553E+02 -0.11245365264E+03  0.15790942107E+03  0.00000000000E+00 0.  1.
         22    1    1    2    0    0 -0.88503595142E+01  0.56757877810E+02  0.32555624425E+02  0.66027677823E+02  0.00000000000E+00 0.  1.
         22    1    1    2    0    0  0.18895841542E+02  0.96220228476E+01 -0.78152977178E+02  0.80978540324E+02  0.00000000000E+00 0.  1.
</event>
<event>
 6    1  0.3624778E-005  0.7026162E+02  0.7818608E-02  0.1375190E+00
          2   -1    0    0  502    0  0.00000000000E+00  0.00000000000E+00  0.46777235264E+02  0.46777235264E+02  0.00000000000E+00 0.  1.
          1   -1    0    0  501    0 -0.00000000000E+00 -0.00000000000E+00 -0.96428802525E+03  0.96428802525E+03  0.00000000000E+00 0.  1.
          2    1    1    2  501    0 -0.40325004501E+02  0.38833061194E+02 -0.96287184519E+02  0.11137923744E+03  0.00000000000E+00 0.  1.
          1    1    1    2  502    0  0.27440600926E+02 -0.28485038709E+02 -0.75019889333E+03  0.75124081596E+03  0.00000000000E+00 0.  1.
         22    1    1    2    0    0  0.64653208473E+01  0.40241146486E+02 -0.86107864438E+02  0.95266544822E+02  0.00000000000E+00 0.  1.
         22    1    1    2    0    0  0.64190827273E+01 -0.50589168971E+02  0.15083152301E+02  0.53178662296E+02  0.00000000000E+00 0.  1.
</event>
<event>
 6    1  0.3624778E-005  0.3386154E+03  0.7818608E-02  0.1170810E+00
          2   -1    0    0  502    0  0.00000000000E+00  0.00000000000E+00  0.16315099155E+03  0.16315099155E+03  0.00000000000E+00 0.  1.
          1   -1    0    0  501    0 -0.00000000000E+00 -0.00000000000E+00 -0.16308832443E+04  0.16308832443E+04  0.00000000000E+00 0.  1.
          2    1    1    2  501    0  0.10258309313E+03 -0.72315957116E+02 -0.66313060162E+02  0.14195178970E+03  0.00000000000E+00 0.  1.
          1    1    1    2  502    0 -0.57595998834E+01  0.24801783223E+03 -0.13932955083E+04  0.14152096634E+04  0.00000000000E+00 0.  1.
         22    1    1    2    0    0  0.20425003278E+02 -0.14825602675E+02  0.24469953899E+02  0.35153348310E+02  0.00000000000E+00 0.  1.
         22    1    1    2    0    0 -0.11724849652E+03 -0.16087627243E+03 -0.32593638222E+02  0.20171943442E+03  0.00000000000E+00 0.  1.
</event>
<event>
 6    1  0.3624778E-005  0.1337979E+03  0.7818608E-02  0.1323455E+00
          2   -1    0    0  502    0  0.00000000000E+00  0.00000000000E+00  0.57360375963E+02  0.57360375963E+02  0.00000000000E+00 0.  1.
          1   -1    0    0  501    0 -0.00000000000E+00 -0.00000000000E+00 -0.98275677446E+03  0.98275677446E+03  0.00000000000E+00 0.  1.
          2    1    1    2  501    0 -0.15721399154E+02  0.33338571844E+02 -0.56934588419E+02  0.67824553979E+02  0.00000000000E+00 0.  1.
          1    1    1    2  502    0 -0.66156747975E+02 -0.57533952710E+01 -0.81062229921E+03  0.81333777044E+03  0.00000000000E+00 0.  1.
         22    1    1    2    0    0  0.84085799810E+02 -0.46336328296E+02 -0.83402695512E+02  0.12717502376E+03  0.00000000000E+00 0.  1.
         22    1    1    2    0    0 -0.22076526814E+01  0.18751151722E+02  0.25563184643E+02  0.31779802239E+02  0.00000000000E+00 0.  1.
</event>
<event>
 6    1  0.3624778E-005  0.6885592E+02  0.7818608E-02  0.1370322E+00
          2   -1    0    0  502    0  0.00000000000E+00  0.00000000000E+00  0.60210751247E+02  0.60210751247E+02  0.00000000000E+00 0. -1.
          1   -1    0    0  501    0 -0.00000000000E+00 -0.00000000000E+00 -0.20007833048E+03  0.20007833048E+03  0.00000000000E+00 0. -1.
          2    1    1    2  501    0  0.14087610112E+02 -0.23652832955E+02 -0.88369230101E+01  0.28913811125E+02  0.00000000000E+00 0. -1.
          1    1    1    2  502    0 -0.14475742828E+02  0.23129784432E+02 -0.10353661909E+03  0.10707177757E+03  0.00000000000E+00 0. -1.
         22    1    1    2    0    0  0.10406214548E+02  0.55737049697E+02  0.89358053384E+01  0.57399970620E+02  0.00000000000E+00 0. -1.
         22    1    1    2    0    0 -0.10018081831E+02 -0.55214001174E+02 -0.36429842469E+02  0.66903522415E+02  0.00000000000E+00 0. -1.
</event>
<event>
 6    1  0.3624778E-005  0.5670480E+03  0.7818608E-02  0.1058533E+00
          2   -1    0    0  502    0  0.00000000000E+00  0.00000000000E+00  0.14435064774E+04  0.14435064774E+04  0.00000000000E+00 0.  1.
          1   -1    0    0  501    0 -0.00000000000E+00 -0.00000000000E+00 -0.37995948869E+03  0.37995948869E+03  0.00000000000E+00 0.  1.
          2    1    1    2  501    0  0.42554856975E+03  0.40419160979E+03  0.79374036928E+03  0.98716068422E+03  0.00000000000E+00 0.  1.
          1    1    1    2  502    0 -0.39711740356E+03 -0.35235785826E+03 -0.12612007810E+01  0.53090477783E+03  0.00000000000E+00 0.  1.
         22    1    1    2    0    0 -0.58833294368E+01  0.37619538573E+02  0.34118416819E+02  0.51126408185E+02  0.00000000000E+00 0. -1.
         22    1    1    2    0    0 -0.22547836748E+02 -0.89453290108E+02  0.23694940335E+03  0.25427409581E+03  0.00000000000E+00 0. -1.
</event>
<event>
 6    1  0.3624778E-005  0.7725221E+02  0.7818608E-02  0.1418785E+00
          2   -1    0    0  502    0  0.00000000000E+00  0.00000000000E+00  0.32828218592E+02  0.32828218592E+02  0.00000000000E+00 0. -1.
          1   -1    0    0  501    0 -0.00000000000E+00 -0.00000000000E+00 -0.71540115161E+03  0.71540115161E+03  0.00000000000E+00 0. -1.
          2    1    1    2  501    0 -0.29797145567E+02  0.24761617212E+02 -0.27833291779E+03  0.28101640646E+03  0.00000000000E+00 0. -1.
          1    1    1    2  502    0 -0.68528617757E+01 -0.37030430909E+02 -0.29802093834E+03  0.30039090235E+03  0.00000000000E+00 0. -1.
         22    1    1    2    0    0  0.96184175517E+01 -0.17823809145E+02  0.23452611325E+02  0.30987531470E+02  0.00000000000E+00 0. -1.
         22    1    1    2    0    0  0.27031589791E+02  0.30092622841E+02 -0.12967168820E+03  0.13583452992E+03  0.00000000000E+00 0. -1.
</event>
<event>
 6    1  0.3624778E-005  0.1047947E+03  0.7818608E-02  0.1281148E+00
          2   -1    0    0  502    0  0.00000000000E+00  0.00000000000E+00  0.28153170893E+03  0.28153170893E+03  0.00000000000E+00 0.  1.
          1   -1    0    0  501    0 -0.00000000000E+00 -0.00000000000E+00 -0.27529367774E+03  0.27529367774E+03  0.00000000000E+00 0.  1.
          2    1    1    2  501    0  0.56292145279E+02  0.44887091115E+02  0.56458981554E+02  0.91494661959E+02  0.00000000000E+00 0.  1.
          1    1    1    2  502    0 -0.41090675090E+02 -0.96570166543E+01 -0.23526210239E+03  0.23901874063E+03  0.00000000000E+00 0.  1.
         22    1    1    2    0    0 -0.70126306600E+02 -0.21756134162E+02  0.11230963869E+03  0.13418078549E+03  0.00000000000E+00 0.  1.
         22    1    1    2    0    0  0.54924836411E+02 -0.13473940298E+02  0.72731513338E+02  0.92131198594E+02  0.00000000000E+00 0.  1.
</event>
<event>
 6    1  0.3624778E-005  0.3584804E+03  0.7818608E-02  0.1198172E+00
          2   -1    0    0  502    0  0.00000000000E+00  0.00000000000E+00  0.53459354581E+02  0.53459354581E+02  0.00000000000E+00 0.  1.
          1   -1    0    0  501    0 -0.00000000000E+00 -0.00000000000E+00 -0.22324994284E+04  0.22324994284E+04  0.00000000000E+00 0.  1.
          2    1    1    2  501    0 -0.10316164631E+03 -0.15109978182E+03 -0.32965507356E+03  0.37702246201E+03  0.00000000000E+00 0.  1.
          1    1    1    2  502    0  0.99176312874E+02  0.27626235769E+03 -0.11073554851E+04  0.11455972249E+04  0.00000000000E+00 0.  1.
         22    1    1    2    0    0  0.10958893581E+02 -0.13437350591E+03 -0.73926762787E+03  0.75146055257E+03  0.00000000000E+00 0.  1.
         22    1    1    2    0    0 -0.69735601459E+01  0.92109300356E+01 -0.27618872120E+01  0.11878543438E+02  0.00000000000E+00 0.  1.
</event>
<event>
 6    1  0.3624778E-005  0.1233901E+03  0.7818608E-02  0.1351106E+00
          2   -1    0    0  502    0  0.00000000000E+00  0.00000000000E+00  0.49338424035E+02  0.49338424035E+02  0.00000000000E+00 0. -1.
          1   -1    0    0  501    0 -0.00000000000E+00 -0.00000000000E+00 -0.38162933119E+03  0.38162933119E+03  0.00000000000E+00 0. -1.
          2    1    1    2  501    0 -0.24141350804E+01  0.68833254163E+02 -0.16208648325E+03  0.17611323908E+03  0.00000000000E+00 0. -1.
          1    1    1    2  502    0 -0.42606598320E+02 -0.21375170230E+02 -0.29028549130E+02  0.55811081224E+02  0.00000000000E+00 0. -1.
         22    1    1    2    0    0 -0.18953237348E+00 -0.14878159271E+02  0.22031031565E+02  0.26584993843E+02  0.00000000000E+00 0. -1.
         22    1    1    2    0    0  0.45210265774E+02 -0.32579924661E+02 -0.16320690634E+03  0.17245844108E+03  0.00000000000E+00 0.  1.
</event>
<event>
 6    1  0.3624778E-005  0.3872030E+02  0.7818608E-02  0.1541916E+00
          2   -1    0    0  502    0  0.00000000000E+00  0.00000000000E+00  0.84234734047E+03  0.84234734047E+03  0.00000000000E+00 0. -1.
          1   -1    0    0  501    0 -0.00000000000E+00 -0.00000000000E+00 -0.14790615683E+03  0.14790615683E+03  0.00000000000E+00 0. -1.
          2    1    1    2  501    0 -0.14063045886E+02 -0.15282282094E+02 -0.10736439872E+03  0.10935461361E+03  0.00000000000E+00 0. -1.
          1    1    1    2  502    0  0.23240647574E+02  0.41491844170E+02  0.72747551778E+03  0.72902834636E+03  0.00000000000E+00 0. -1.
         22    1    1    2    0    0  0.60608359348E+01 -0.27523402460E+02  0.10973863878E+03  0.11329978048E+03  0.00000000000E+00 0.  1.
         22    1    1    2    0    0 -0.15238437622E+02  0.13138403842E+01 -0.35408574192E+02  0.38570756851E+02  0.00000000000E+00 0.  1.
</event>
<event>
 6    1  0.3624778E-005  0.6784687E+02  0.7818608E-02  0.1376960E+00
          2   -1    0    0  502    0  0.00000000000E+00  0.00000000000E+00  0.31201640373E+03  0.31201640373E+03  0.00000000000E+00 0.  1.
          1   -1    0    0  501    0 -0.00000000000E+00 -0.00000000000E+00 -0.13511169695E+03  0.13511169695E+03  0.00000000000E+00 0.  1.
          2    1    1    2  501    0 -0.17052808158E+02  0.40671358588E+02  0.23178240904E+02  0.49821566885E+02  0.00000000000E+00 0.  1.
          1    1    1    2  502    0  0.19809460687E+02  0.49194819365E+01 -0.10438372508E+03  0.10636060407E+03  0.00000000000E+00 0.  1.
         22    1    1    2    0    0 -0.26693278073E+02  0.68750907185E+01  0.11438895503E+01  0.27588157785E+02  0.00000000000E+00 0. -1.
         22    1    1    2    0    0  0.23936625544E+02 -0.52465931243E+02  0.25696630141E+03  0.26335777195E+03  0.00000000000E+00 0. -1.
</event>
<event>
 6    1  0.3624778E-005  0.3278631E+03  0.7818608E-02  0.1134576E+00
          2   -1    0    0  502    0  0.00000000000E+00  0.00000000000E+00  0.10198771423E+04  0.10198771423E+04  0.00000000000E+00 0.  1.
          1   -1    0    0  501    0 -0.00000000000E+00 -0.00000000000E+00 -0.17919251335E+03  0.17919251335E+03  0.00000000000E+00 0.  1.
          2    1    1    2  501    0 -0.28946728846E+03 -0.72228187531E+01  0.74108714621E+02  0.29889058497E+03  0.00000000000E+00 0.  1.
          1    1    1    2  502    0  0.32222549588E+03 -0.33303213736E+02  0.43561051361E+03  0.54285807888E+03  0.00000000000E+00 0.  1.
         22    1    1    2    0    0 -0.68531472846E+01  0.64993974686E+02  0.30816134361E+03  0.31501523149E+03  0.00000000000E+00 0.  1.
         22    1    1    2    0    0 -0.25905060138E+02 -0.24467942197E+02  0.22804057155E+02  0.42305760351E+02  0.00000000000E+00 0.  1.
</event>
<event>
 6    1  0.3624778E-005  0.2845189E+03  0.7818608E-02  0.1203454E+00
          2   -1    0    0  502    0  0.00000000000E+00  0.00000000000E+00  0.84522779009E+02  0.84522779009E+02  0.00000000000E+00 0.  1.
          1   -1    0    0  501    0 -0.00000000000E+00 -0.00000000000E+00 -0.22128660680E+04  0.22128660680E+04  0.00000000000E+00 0. -1.
          2    1    1    2  501    0  0.51319063209E+02  0.22371820908E+02 -0.73907355396E+03  0.74119084100E+03  0.00000000000E+00 0.  1.
          1    1    1    2  502    0 -0.18772339298E+02  0.34058952064E+02 -0.14149435978E+04  0.14154779398E+04  0.00000000000E+00 0. -1.
         22    1    1    2    0    0 -0.19179759268E+02 -0.72113954681E+02 -0.30706521645E+02  0.80691858925E+02  0.00000000000E+00 0.  1.
         22    1    1    2    0    0 -0.13366964643E+02  0.15683181709E+02  0.56380384405E+02  0.60028207352E+02  0.00000000000E+00 0.  1.
</event>
<event>
 6    1  0.3624778E-005  0.6208030E+02  0.7818608E-02  0.1396840E+00
          2   -1    0    0  502    0  0.00000000000E+00  0.00000000000E+00  0.98768666820E+02  0.98768666820E+02  0.00000000000E+00 0.  1.
          1   -1    0    0  501    0 -0.00000000000E+00 -0.00000000000E+00 -0.62367744925E+03  0.62367744925E+03  0.00000000000E+00 0. -1.
          2    1    1    2  501    0  0.44534525578E+02 -0.14447074571E+02  0.61419641484E+02  0.77229620562E+02  0.00000000000E+00 0.  1.
          1    1    1    2  502    0  0.20607536019E+02  0.26891075312E+02 -0.44110019143E+03  0.44239934375E+03  0.00000000000E+00 0. -1.
         22    1    1    2    0    0 -0.74413244325E+02 -0.23288355853E+02 -0.16260527873E+03  0.18033345536E+03  0.00000000000E+00 0.  1.
         22    1    1    2    0    0  0.92711827272E+01  0.10844355112E+02  0.17377046255E+02  0.22483696393E+02  0.00000000000E+00 0.  1.
</event>
<event>
 6    1  0.3624778E-005  0.2244532E+03  0.7818608E-02  0.1227211E+00
          2   -1    0    0  502    0  0.00000000000E+00  0.00000000000E+00  0.25494227388E+03  0.25494227388E+03  0.00000000000E+00 0.  1.
          1   -1    0    0  501    0 -0.00000000000E+00 -0.00000000000E+00 -0.34145564590E+03  0.34145564590E+03  0.00000000000E+00 0. -1.
          2    1    1    2  501    0  0.49553266020E+02 -0.94700004617E+02  0.77933537297E+02  0.13227718353E+03  0.00000000000E+00 0.  1.
          1    1    1    2  502    0 -0.16840034539E+02  0.20707188708E+03 -0.19691474275E+03  0.28624774077E+03  0.00000000000E+00 0. -1.
         22    1    1    2    0    0 -0.14789857839E+02 -0.13035045597E+03  0.56573069865E+02  0.14286529845E+03  0.00000000000E+00 0.  1.
         22    1    1    2    0    0 -0.17923373641E+02  0.17978573510E+02 -0.24105236423E+02  0.35007697027E+02  0.00000000000E+00 0. -1.
</event>
<event>
 6    1  0.3624778E-005  0.5157723E+02  0.7818608E-02  0.1442081E+00
          2   -1    0    0  502    0  0.00000000000E+00  0.00000000000E+00  0.10501251593E+03  0.10501251593E+03  0.00000000000E+00 0. -1.
          1   -1    0    0  501    0 -0.00000000000E+00 -0.00000000000E+00 -0.18721828771E+04  0.18721828771E+04  0.00000000000E+00 0.  1.
          2    1    1    2  501    0 -0.22559702996E+02  0.21796644477E+02  0.39130795363E+02  0.50152298606E+02  0.00000000000E+00 0. -1.
          1    1    1    2  502    0 -0.23329461051E+02 -0.45999425912E+02 -0.17917393742E+04  0.17924815748E+04  0.00000000000E+00 0.  1.
         22    1    1    2    0    0 -0.62763900986E+01  0.18887146771E+02  0.48572410584E+02  0.52491870378E+02  0.00000000000E+00 0. -1.
         22    1    1    2    0    0  0.52165554145E+02  0.53156346640E+01 -0.63134192893E+02  0.82069649222E+02  0.00000000000E+00 0. -1.
</event>
<event>
 6    1  0.3624778E-005  0.2002436E+03  0.7818608E-02  0.1225728E+00
          2   -1    0    0  502    0  0.00000000000E+00  0.00000000000E+00  0.98232752893E+02  0.98232752893E+02  0.00000000000E+00 0. -1.
          1   -1    0    0  501    0 -0.00000000000E+00 -0.00000000000E+00 -0.24695524507E+03  0.24695524507E+03  0.00000000000E+00 0. -1.
          2    1    1    2  501    0  0.50620203462E+02 -0.55926063008E+02 -0.64554341548E+02  0.99284402274E+02  0.00000000000E+00 0. -1.
          1    1    1    2  502    0  0.26169344656E+00 -0.33988333986E+02 -0.77993871118E+02  0.85078312528E+02  0.00000000000E+00 0. -1.
         22    1    1    2    0    0 -0.31356851582E+02  0.11865822413E+03 -0.18160638688E+02  0.12406786486E+03  0.00000000000E+00 0. -1.
         22    1    1    2    0    0 -0.19525045327E+02 -0.28743827133E+02  0.11986359181E+02  0.36757418294E+02  0.00000000000E+00 0.  1.
</event>
<event>
 6    1  0.3624778E-005  0.8975103E+02  0.7818608E-02  0.1329278E+00
          2   -1    0    0  502    0  0.00000000000E+00  0.00000000000E+00  0.76284661600E+02  0.76284661600E+02  0.00000000000E+00 0.  1.
          1   -1    0    0  501    0 -0.00000000000E+00 -0.00000000000E+00 -0.33178223382E+03  0.33178223382E+03  0.00000000000E+00 0. -1.
          2    1    1    2  501    0 -0.25549364737E+02  0.13488841610E+02  0.34192867714E+01  0.29093133356E+02  0.00000000000E+00 0.  1.
          1    1    1    2  502    0  0.29962251465E+02 -0.19468438944E+02 -0.25487622832E+03  0.25736870127E+03  0.00000000000E+00 0. -1.
         22    1    1    2    0    0  0.45345275899E+02  0.39779759615E+02 -0.10052391579E+02  0.61152873177E+02  0.00000000000E+00 0.  1.
         22    1    1    2    0    0 -0.49758162627E+02 -0.33800162281E+02  0.60117609140E+01  0.60452187616E+02  0.00000000000E+00 0. -1.
</event>
<event>
 6    1  0.3624778E-005  0.1803666E+03  0.7818608E-02  0.1181293E+00
          2   -1    0    0  502    0  0.00000000000E+00  0.00000000000E+00  0.44807775487E+03  0.44807775487E+03  0.00000000000E+00 0. -1.
          1   -1    0    0  501    0 -0.00000000000E+00 -0.00000000000E+00 -0.66006692887E+03  0.66006692887E+03  0.00000000000E+00 0.  1.
          2    1    1    2  501    0  0.12613844303E+03  0.57909287283E+02  0.17433296424E+03  0.22283710370E+03  0.00000000000E+00 0. -1.
          1    1    1    2  502    0 -0.21769953742E+02  0.20846633316E+02 -0.60144882909E+03  0.60220362588E+03  0.00000000000E+00 0.  1.
         22    1    1    2    0    0 -0.83427656947E+02 -0.10230654853E+03  0.10535419268E+03  0.16889733488E+03  0.00000000000E+00 0. -1.
         22    1    1    2    0    0 -0.20940832340E+02  0.23550627928E+02  0.10977249817E+03  0.11420661929E+03  0.00000000000E+00 0. -1.
</event>
<event>
 6    1  0.3624778E-005  0.5404378E+02  0.7818608E-02  0.1491115E+00
          2   -1    0    0  502    0  0.00000000000E+00  0.00000000000E+00  0.75302982931E+02  0.75302982931E+02  0.00000000000E+00 0.  1.
          1   -1    0    0  501    0 -0.00000000000E+00 -0.00000000000E+00 -0.26515747997E+03  0.26515747997E+03  0.00000000000E+00 0.  1.
          2    1    1    2  501    0  0.39357323119E+02 -0.50571069941E+01 -0.17887860365E+03  0.18322698507E+03  0.00000000000E+00 0.  1.
          1    1    1    2  502    0 -0.26899828146E+02  0.36779080038E+01 -0.21723325232E+02  0.34771117622E+02  0.00000000000E+00 0.  1.
         22    1    1    2    0    0 -0.36786188109E+01 -0.17163585812E+02 -0.52823103865E+02  0.55663284275E+02  0.00000000000E+00 0.  1.
         22    1    1    2    0    0 -0.87788761620E+01  0.18542784803E+02  0.63570535709E+02  0.66799075931E+02  0.00000000000E+00 0.  1.
</event>
<event>
 6    1  0.3624778E-005  0.1319294E+03  0.7818608E-02  0.1234374E+00
          2   -1    0    0  502    0  0.00000000000E+00  0.00000000000E+00  0.16500920318E+03  0.16500920318E+03  0.00000000000E+00 0.  1.
          1   -1    0    0  501    0 -0.00000000000E+00 -0.00000000000E+00 -0.32784692049E+03  0.32784692049E+03  0.00000000000E+00 0.  1.
          2    1    1    2  501    0  0.41202212018E+01 -0.35147182877E+02  0.30374763121E+02  0.46636111776E+02  0.00000000000E+00 0.  1.
          1    1    1    2  502    0 -0.11061273858E+03  0.10011904724E+03 -0.22199051166E+03  0.26746736029E+03  0.00000000000E+00 0.  1.
         22    1    1    2    0    0 -0.27378163576E+02 -0.69129720433E+01 -0.57215752664E+01  0.28811272911E+02  0.00000000000E+00 0. -1.
         22    1    1    2    0    0  0.13387068095E+03 -0.58058892318E+02  0.34499606496E+02  0.14994137869E+03  0.00000000000E+00 0.  1.
</event>
<event>
 6    1  0.3624778E-005  0.2043189E+03  0.7818608E-02  0.1211544E+00
          2   -1    0    0  502    0  0.00000000000E+00  0.00000000000E+00  0.72537810476E+03  0.72537810476E+03  0.00000000000E+00 0.  1.
          1   -1    0    0  501    0 -0.00000000000E+00 -0.00000000000E+00 -0.19610989268E+04  0.19610989268E+04  0.00000000000E+00 0. -1.
          2    1    1    2  501    0 -0.50819615454E+02  0.19112636186E+02  0.15595178957E+03  0.16513293689E+03  0.00000000000E+00 0.  1.
          1    1    1    2  502    0 -0.10347646091E+03  0.21382417324E+02 -0.19373199415E+04  0.19401992530E+04  0.00000000000E+00 0. -1.
         22    1    1    2    0    0  0.14458536495E+03  0.52670681409E+01  0.32745158928E+03  0.35799052095E+03  0.00000000000E+00 0.  1.
         22    1    1    2    0    0  0.97107114138E+01 -0.45762121651E+02  0.21819574053E+03  0.22315432077E+03  0.00000000000E+00 0.  1.
</event>
<event>
 6    1  0.3624778E-005  0.1357442E+03  0.7818608E-02  0.1261694E+00
          2   -1    0    0  502    0  0.00000000000E+00  0.00000000000E+00  0.99576547067E+03  0.99576547067E+03  0.00000000000E+00 0.  1.
          1   -1    0    0  501    0 -0.00000000000E+00 -0.00000000000E+00 -0.18981332938E+03  0.18981332938E+03  0.00000000000E+00 0. -1.
          2    1    1    2  501    0 -0.34771535536E+02 -0.13406967366E+03  0.82295548451E+03  0.83452948814E+03  0.00000000000E+00 0.  1.
          1    1    1    2  502    0  0.48888984000E+02  0.10360763899E+03 -0.13206309150E+03  0.17482944761E+03  0.00000000000E+00 0. -1.
         22    1    1    2    0    0  0.21721570476E+02 -0.14190799757E+02  0.11608989392E+03  0.11895406211E+03  0.00000000000E+00 0.  1.
         22    1    1    2    0    0 -0.35839018940E+02  0.44652834425E+02 -0.10301456437E+01  0.57265802193E+02  0.00000000000E+00 0.  1.
</event>
<event>
 6    1  0.3624778E-005  0.7474329E+02  0.7818608E-02  0.1345948E+00
          2   -1    0    0  502    0  0.00000000000E+00  0.00000000000E+00  0.32920352372E+02  0.32920352372E+02  0.00000000000E+00 0. -1.
          1   -1    0    0  501    0 -0.00000000000E+00 -0.00000000000E+00 -0.98259092787E+03  0.98259092787E+03  0.00000000000E+00 0.  1.
          2    1    1    2  501    0 -0.23944634767E+02 -0.21187468585E+02 -0.57183284399E+02  0.65514749285E+02  0.00000000000E+00 0. -1.
          1    1    1    2  502    0 -0.24807715432E+02  0.33075527019E+02 -0.74906670699E+03  0.75020686797E+03  0.00000000000E+00 0.  1.
         22    1    1    2    0    0  0.75916109574E+02  0.14016723312E+02 -0.34452982997E+02  0.84538347882E+02  0.00000000000E+00 0. -1.
         22    1    1    2    0    0 -0.27163759375E+02 -0.25904781747E+02 -0.10896760111E+03  0.11525131510E+03  0.00000000000E+00 0. -1.
</event>
<event>
 6    1  0.3624778E-005  0.1297443E+03  0.7818608E-02  0.1237740E+00
          2   -1    0    0  502    0  0.00000000000E+00  0.00000000000E+00  0.20837709111E+03  0.20837709111E+03  0.00000000000E+00 0. -1.
          1   -1    0    0  501    0 -0.00000000000E+00 -0.00000000000E+00 -0.14470151222E+04  0.14470151222E+04  0.00000000000E+00 0.  1.
          2    1    1    2  501    0  0.29114563443E+02 -0.51708474147E+02 -0.40457063831E+02  0.71820596746E+02  0.00000000000E+00 0. -1.
          1    1    1    2  502    0 -0.11773699360E+03 -0.32079833569E+02 -0.13483662234E+04  0.13538768732E+04  0.00000000000E+00 0.  1.
         22    1    1    2    0    0  0.45480819488E+02 -0.12868353566E+02  0.16386908947E+01  0.47294659029E+02  0.00000000000E+00 0. -1.
         22    1    1    2    0    0  0.43141610669E+02  0.96656661282E+02  0.14854656521E+03  0.18240008437E+03  0.00000000000E+00 0. -1.
</event>
<event>
 6    1  0.3624778E-005  0.1052029E+03  0.7818608E-02  0.1271896E+00
          2   -1    0    0  502    0  0.00000000000E+00  0.00000000000E+00  0.18316719563E+03  0.18316719563E+03  0.00000000000E+00 0.  1.
          1   -1    0    0  501    0 -0.00000000000E+00 -0.00000000000E+00 -0.56988323501E+03  0.56988323501E+03  0.00000000000E+00 0. -1.
          2    1    1    2  501    0  0.55000602890E+02 -0.11615977555E+02 -0.26622311846E+01  0.56276857834E+02  0.00000000000E+00 0.  1.
          1    1    1    2  502    0 -0.86247022178E+02 -0.54589354956E+02 -0.49889688595E+03  0.50923143002E+03  0.00000000000E+00 0. -1.
         22    1    1    2    0    0  0.56116430456E+01  0.10071726147E+03  0.10005469029E+03  0.14207884553E+03  0.00000000000E+00 0.  1.
         22    1    1    2    0    0  0.25634776242E+02 -0.34511928963E+02  0.14788387472E+02  0.45463297260E+02  0.00000000000E+00 0. -1.
</event>
<event>
 6    1  0.3624778E-005  0.1228420E+03  0.7818608E-02  0.1239881E+00
          2   -1    0    0  502    0  0.00000000000E+00  0.00000000000E+00  0.40545707484E+03  0.40545707484E+03  0.00000000000E+00 0. -1.
          1   -1    0    0  501    0 -0.00000000000E+00 -0.00000000000E+00 -0.20767177681E+03  0.20767177681E+03  0.00000000000E+00 0.  1.
          2    1    1    2  501    0 -0.65534631339E+02 -0.58239563114E+02  0.13071447211E+03  0.15739411626E+03  0.00000000000E+00 0. -1.
          1    1    1    2  502    0 -0.21747773111E+02  0.30493495582E+02 -0.16810456683E+03  0.17222649128E+03  0.00000000000E+00 0.  1.
         22    1    1    2    0    0  0.11938122613E+03  0.35135628854E+02  0.17247971177E+03  0.21268671924E+03  0.00000000000E+00 0. -1.
         22    1    1    2    0    0 -0.32098821681E+02 -0.73895613219E+01  0.62695680992E+02  0.70821524870E+02  0.00000000000E+00 0.  1.
</event>
<event>
 6    1  0.3624778E-005  0.2595280E+03  0.7818608E-02  0.1220332E+00
          2   -1    0    0  502    0  0.00000000000E+00  0.00000000000E+00  0.15394747678E+03  0.15394747678E+03  0.00000000000E+00 0.  1.
          1   -1    0    0  501    0 -0.00000000000E+00 -0.00000000000E+00 -0.66343763919E+03  0.66343763919E+03  0.00000000000E+00 0.  1.
          2    1    1    2  501    0 -0.10792087470E+03  0.14143377717E+03 -0.10994135549E+03  0.20913519590E+03  0.00000000000E+00 0.  1.
          1    1    1    2  502    0  0.18180184657E+03 -0.17807071808E+03 -0.38053585537E+03  0.45778666350E+03  0.00000000000E+00 0.  1.
         22    1    1    2    0    0 -0.73891213116E+01  0.17457219485E+02  0.49546773959E+02  0.53049377335E+02  0.00000000000E+00 0.  1.
         22    1    1    2    0    0 -0.66491850559E+02  0.19179721431E+02 -0.68559725508E+02  0.97413879230E+02  0.00000000000E+00 0.  1.
</event>
<event>
 6    1  0.7112487E-005  0.4723159E+03  0.7818608E-02  0.1151833E+00
          2   -1    0    0  502    0  0.00000000000E+00  0.00000000000E+00  0.88384604784E+03  0.88384604784E+03  0.00000000000E+00 0.  1.
          1   -1    0    0  501    0 -0.00000000000E+00 -0.00000000000E+00 -0.96757385141E+03  0.96757385141E+03  0.00000000000E+00 0. -1.
          2    1    1    2  501    0  0.20888092584E+02  0.95112862211E+02  0.27906440026E+01  0.97419488111E+02  0.00000000000E+00 0.  1.
          1    1    1    2  502    0 -0.25949996503E+03 -0.13518795439E+03 -0.87358171768E+03  0.92128227614E+03  0.00000000000E+00 0. -1.
         22    1    1    2    0    0  0.24996687472E+03  0.31136564882E+02  0.77102189940E+03  0.81112742124E+03  0.00000000000E+00 0.  1.
         22    1    1    2    0    0 -0.11355002273E+02  0.89385272948E+01  0.16041370707E+02  0.21590713767E+02  0.00000000000E+00 0. -1.
</event>
<event>
 6    1  0.3624778E-005  0.5928597E+02  0.7818608E-02  0.1500836E+00
          2   -1    0    0  502    0  0.00000000000E+00  0.00000000000E+00  0.68213181627E+02  0.68213181627E+02  0.00000000000E+00 0.  1.
          1   -1    0    0  501    0 -0.00000000000E+00 -0.00000000000E+00 -0.57093250635E+03  0.57093250635E+03  0.00000000000E+00 0.  1.
          2    1    1    2  501    0 -0.11468483309E+02  0.19656228720E+02 -0.37851320919E+02  0.44165777840E+02  0.00000000000E+00 0.  1.
          1    1    1    2  502    0  0.19509191722E+02  0.25343114815E+02 -0.46067631660E+03  0.46178517809E+03  0.00000000000E+00 0.  1.
         22    1    1    2    0    0 -0.10595791060E+02 -0.31654552640E+02 -0.63828196253E+02  0.72029994641E+02  0.00000000000E+00 0.  1.
         22    1    1    2    0    0  0.25550826470E+01 -0.13344790894E+02  0.59636509044E+02  0.61164737409E+02  0.00000000000E+00 0.  1.
</event>
<event>
 6    1  0.3624778E-005  0.1496513E+03  0.7818608E-02  0.1256314E+00
          2   -1    0    0  502    0  0.00000000000E+00  0.00000000000E+00  0.35333551186E+02  0.35333551186E+02  0.00000000000E+00 0. -1.
          1   -1    0    0  501    0 -0.00000000000E+00 -0.00000000000E+00 -0.91057477947E+03  0.91057477947E+03  0.00000000000E+00 0. -1.
          2    1    1    2  501    0 -0.33361463837E+02 -0.21815450883E+02 -0.26623419289E+03  0.26920168393E+03  0.00000000000E+00 0. -1.
          1    1    1    2  502    0  0.10377050860E+03  0.85608270736E+02 -0.35777773576E+03  0.38223291679E+03  0.00000000000E+00 0. -1.
         22    1    1    2    0    0 -0.29895260532E+02 -0.88600994817E+02 -0.21587175216E+03  0.23525406748E+03  0.00000000000E+00 0. -1.
         22    1    1    2    0    0 -0.40513784231E+02  0.24808174965E+02 -0.35357547468E+02  0.59219662451E+02  0.00000000000E+00 0. -1.
</event>
<event>
 6    1  0.3624778E-005  0.1778113E+03  0.7818608E-02  0.1232623E+00
          2   -1    0    0  502    0  0.00000000000E+00  0.00000000000E+00  0.29429953503E+03  0.29429953503E+03  0.00000000000E+00 0.  1.
          1   -1    0    0  501    0 -0.00000000000E+00 -0.00000000000E+00 -0.79522891327E+02  0.79522891327E+02  0.00000000000E+00 0.  1.
          2    1    1    2  501    0 -0.19981112644E+02 -0.10177470936E+02 -0.26375070122E+02  0.34618926920E+02  0.00000000000E+00 0.  1.
          1    1    1    2  502    0 -0.18006754287E+02  0.11875706148E+02 -0.31617690725E+02  0.38274717024E+02  0.00000000000E+00 0.  1.
         22    1    1    2    0    0  0.81052419739E+02  0.73456061854E+00  0.20671550138E+03  0.22203903448E+03  0.00000000000E+00 0.  1.
         22    1    1    2    0    0 -0.43064552808E+02 -0.24327958313E+01  0.66053903179E+02  0.78889747935E+02  0.00000000000E+00 0. -1.
</event>
<event>
 6    1  0.3624778E-005  0.6710882E+02  0.7818608E-02  0.1378999E+00
          2   -1    0    0  502    0  0.00000000000E+00  0.00000000000E+00  0.30616334555E+02  0.30616334555E+02  0.00000000000E+00 0.  1.
          1   -1    0    0  501    0 -0.00000000000E+00 -0.00000000000E+00 -0.82315227669E+03  0.82315227669E+03  0.00000000000E+00 0.  1.
          2    1    1    2  501    0 -0.11602371800E+02  0.47019806735E+02 -0.23002197006E+02  0.53615094179E+02  0.00000000000E+00 0.  1.
          1    1    1    2  502    0  0.21618858545E+02  0.67404155598E+00 -0.46577183919E+03  0.46627377748E+03  0.00000000000E+00 0.  1.
         22    1    1    2    0    0 -0.13350396876E+01 -0.55882739818E+02 -0.31351985304E+03  0.31846406578E+03  0.00000000000E+00 0.  1.
         22    1    1    2    0    0 -0.86814470579E+01  0.81888915275E+01  0.97579471034E+01  0.15415673814E+02  0.00000000000E+00 0. -1.
</event>
<event>
 6    1  0.3624778E-005  0.9603078E+02  0.7818608E-02  0.1308864E+00
          2   -1    0    0  502    0  0.00000000000E+00  0.00000000000E+00  0.95905743688E+02  0.95905743688E+02  0.00000000000E+00 0. -1.
          1   -1    0    0  501    0 -0.00000000000E+00 -0.00000000000E+00 -0.39196679662E+03  0.39196679662E+03  0.00000000000E+00 0.  1.
          2    1    1    2  501    0  0.20419970532E+01 -0.67292425091E+02 -0.66923778929E+02  0.94927511359E+02  0.00000000000E+00 0. -1.
          1    1    1    2  502    0  0.25728417300E+02 -0.93950932758E+01 -0.24468532795E+03  0.24621358401E+03  0.00000000000E+00 0.  1.
         22    1    1    2    0    0 -0.14957115941E+02  0.10182904347E+02 -0.49574864782E+02  0.52773801042E+02  0.00000000000E+00 0. -1.
         22    1    1    2    0    0 -0.12813298412E+02  0.66504614020E+02  0.65122918735E+02  0.93957643897E+02  0.00000000000E+00 0. -1.
</event>
<event>
 6    1  0.3624778E-005  0.2279947E+03  0.7818608E-02  0.1187012E+00
          2   -1    0    0  502    0  0.00000000000E+00  0.00000000000E+00  0.70659315890E+03  0.70659315890E+03  0.00000000000E+00 0. -1.
          1   -1    0    0  501    0 -0.00000000000E+00 -0.00000000000E+00 -0.42560801565E+03  0.42560801565E+03  0.00000000000E+00 0. -1.
          2    1    1    2  501    0 -0.10853475316E+02 -0.95360163587E+02  0.11900797315E+03  0.15288641666E+03  0.00000000000E+00 0. -1.
          1    1    1    2  502    0  0.11711296748E+02 -0.51983670241E+02 -0.39037305703E+03  0.39399312189E+03  0.00000000000E+00 0. -1.
         22    1    1    2    0    0  0.49836844117E+02  0.31453334086E+02  0.26314347244E+03  0.26966184444E+03  0.00000000000E+00 0. -1.
         22    1    1    2    0    0 -0.50694665549E+02  0.11589049974E+03  0.28920675469E+03  0.31565979155E+03  0.00000000000E+00 0. -1.
</event>
<event>
 6    1  0.3624778E-005  0.1625130E+03  0.7818608E-02  0.1188471E+00
          2   -1    0    0  502    0  0.00000000000E+00  0.00000000000E+00  0.25873062132E+03  0.25873062132E+03  0.00000000000E+00 0. -1.
          1   -1    0    0  501    0 -0.00000000000E+00 -0.00000000000E+00 -0.31948703481E+03  0.31948703481E+03  0.00000000000E+00 0. -1.
          2    1    1    2  501    0 -0.33193185713E+02 -0.11848293249E+03  0.48480615556E+02  0.13225113592E+03  0.00000000000E+00 0. -1.
          1    1    1    2  502    0 -0.17620291039E+02 -0.30368204063E+02 -0.21751825340E+03  0.22033359489E+03  0.00000000000E+00 0. -1.
         22    1    1    2    0    0 -0.11296448850E+02 -0.12561800457E+02  0.32869145294E+02  0.36956586688E+02  0.00000000000E+00 0.  1.
         22    1    1    2    0    0  0.62109925601E+02  0.16141293701E+03  0.75412079055E+02  0.18867633863E+03  0.00000000000E+00 0. -1.
</event>
<event>
 6    1  0.3624778E-005  0.1115209E+03  0.7818608E-02  0.1347970E+00
          2   -1    0    0  502    0  0.00000000000E+00  0.00000000000E+00  0.11038307425E+03  0.11038307425E+03  0.00000000000E+00 0.  1.
          1   -1    0    0  501    0 -0.00000000000E+00 -0.00000000000E+00 -0.17424187159E+04  0.17424187159E+04  0.00000000000E+00 0.  1.
          2    1    1    2  501    0  0.73098674807E+02 -0.30358104128E+02 -0.44322888544E+02  0.90716862786E+02  0.00000000000E+00 0.  1.
          1    1    1    2  502    0 -0.10706005909E+03  0.20815099131E+02 -0.16250077796E+04  0.16286636879E+04  0.00000000000E+00 0.  1.
         22    1    1    2    0    0 -0.82842441608E+00  0.21246192194E+02  0.76686187551E+02  0.79579258170E+02  0.00000000000E+00 0.  1.
         22    1    1    2    0    0  0.34789808698E+02 -0.11703187197E+02 -0.39391161155E+02  0.53841981362E+02  0.00000000000E+00 0.  1.
</event>
<event>
 6    1  0.3624778E-005  0.5626375E+03  0.7818608E-02  0.1120312E+00
          2   -1    0    0  502    0  0.00000000000E+00  0.00000000000E+00  0.73888886753E+03  0.73888886753E+03  0.00000000000E+00 0.  1.
          1   -1    0    0  501    0 -0.00000000000E+00 -0.00000000000E+00 -0.72831683440E+03  0.72831683440E+03  0.00000000000E+00 0. -1.
          2    1    1    2  501    0  0.13979850405E+03 -0.22696822288E+03  0.27566033372E+03  0.38346683757E+03  0.00000000000E+00 0.  1.
          1    1    1    2  502    0  0.24344609950E+02 -0.18042223723E+02 -0.61180222065E+03  0.61255215212E+03  0.00000000000E+00 0. -1.
         22    1    1    2    0    0 -0.14946289251E+02 -0.10709827143E+02  0.44358805786E+02  0.48018700634E+02  0.00000000000E+00 0. -1.
         22    1    1    2    0    0 -0.14919682475E+03  0.25572027375E+03  0.30235511427E+03  0.42316801161E+03  0.00000000000E+00 0.  1.
</event>
<event>
 6    1  0.3624778E-005  0.2305734E+03  0.7818608E-02  0.1212265E+00
          2   -1    0    0  502    0  0.00000000000E+00  0.00000000000E+00  0.27817846003E+03  0.27817846003E+03  0.00000000000E+00 0.  1.
          1   -1    0    0  501    0 -0.00000000000E+00 -0.00000000000E+00 -0.34064440250E+03  0.34064440250E+03  0.00000000000E+00 0. -1.
          2    1    1    2  501    0 -0.48858677622E+02  0.52759578348E+02  0.15360182206E+03  0.16960030432E+03  0.00000000000E+00 0.  1.
          1    1    1    2  502    0  0.10098330196E+02  0.46701453784E+02 -0.27317027259E+03  0.27731750736E+03  0.00000000000E+00 0. -1.
         22    1    1    2    0    0  0.64452173973E+02 -0.80291093645E+02 -0.38559118290E+01  0.10303208483E+03  0.00000000000E+00 0.  1.
         22    1    1    2    0    0 -0.25691826547E+02 -0.19169938487E+02  0.60958419892E+02  0.68872966022E+02  0.00000000000E+00 0.  1.
</event>
<event>
 6    1  0.3624778E-005  0.1012859E+03  0.7818608E-02  0.1349994E+00
          2   -1    0    0  502    0  0.00000000000E+00  0.00000000000E+00  0.13774345868E+03  0.13774345868E+03  0.00000000000E+00 0. -1.
          1   -1    0    0  501    0 -0.00000000000E+00 -0.00000000000E+00 -0.25330460984E+03  0.25330460984E+03  0.00000000000E+00 0. -1.
          2    1    1    2  501    0  0.48078913379E+02 -0.30387201663E+00 -0.12269587475E+03  0.13177993752E+03  0.00000000000E+00 0. -1.
          1    1    1    2  502    0 -0.29757217447E+02 -0.20251313958E+02  0.95608201299E+02  0.10215936503E+03  0.00000000000E+00 0. -1.
         22    1    1    2    0    0  0.79467837951E+01 -0.26239407618E+02  0.21433711777E+02  0.34800314444E+02  0.00000000000E+00 0.  1.
         22    1    1    2    0    0 -0.26268479728E+02  0.46794593593E+02 -0.10990718949E+03  0.12230845154E+03  0.00000000000E+00 0.  1.
</event>
<event>
 6    1  0.3624778E-005  0.1198541E+03  0.7818608E-02  0.1308159E+00
          2   -1    0    0  502    0  0.00000000000E+00  0.00000000000E+00  0.51188886192E+02  0.51188886192E+02  0.00000000000E+00 0.  1.
          1   -1    0    0  501    0 -0.00000000000E+00 -0.00000000000E+00 -0.47342440486E+03  0.47342440486E+03  0.00000000000E+00 0.  1.
          2    1    1    2  501    0 -0.43875153856E+02  0.43123679547E+02 -0.10063683165E+03  0.11795106082E+03  0.00000000000E+00 0.  1.
          1    1    1    2  502    0  0.10269919067E+03 -0.86836160200E+01 -0.15043510020E+03  0.18235473211E+03  0.00000000000E+00 0.  1.
         22    1    1    2    0    0 -0.33896344359E+02 -0.68651280835E+01  0.12610324531E+02  0.36811851751E+02  0.00000000000E+00 0. -1.
         22    1    1    2    0    0 -0.24927692454E+02 -0.27574935443E+02 -0.18377391136E+03  0.18749564638E+03  0.00000000000E+00 0.  1.
</event>
<event>
 6    1  0.3624778E-005  0.3448622E+03  0.7818608E-02  0.1181087E+00
          2   -1    0    0  502    0  0.00000000000E+00  0.00000000000E+00  0.64617266574E+02  0.64617266574E+02  0.00000000000E+00 0. -1.
          1   -1    0    0  501    0 -0.00000000000E+00 -0.00000000000E+00 -0.31477674089E+04  0.31477674089E+04  0.00000000000E+00 0. -1.
          2    1    1    2  501    0 -0.24198085592E+03 -0.18626441357E+02 -0.23925662052E+04  0.24048440126E+04  0.00000000000E+00 0. -1.
          1    1    1    2  502    0  0.26997352700E+03  0.71460599400E+02 -0.44096923567E+03  0.52196378165E+03  0.00000000000E+00 0. -1.
         22    1    1    2    0    0  0.18223387752E+02  0.51321939530E+01  0.56559175623E+01  0.19759065752E+02  0.00000000000E+00 0. -1.
         22    1    1    2    0    0 -0.46216058832E+02 -0.57966351996E+02 -0.25527061907E+03  0.26581781547E+03  0.00000000000E+00 0.  1.
</event>
<event>
 6    1  0.3624778E-005  0.7422158E+02  0.7818608E-02  0.1349574E+00
          2   -1    0    0  502    0  0.00000000000E+00  0.00000000000E+00  0.17287348572E+02  0.17287348572E+02  0.00000000000E+00 0. -1.
          1   -1    0    0  501    0 -0.00000000000E+00 -0.00000000000E+00 -0.29186008814E+04  0.29186008814E+04  0.00000000000E+00 0.  1.
          2    1    1    2  501    0  0.77689037709E+00 -0.23378798239E+02 -0.78548427662E+02  0.81957472227E+02  0.00000000000E+00 0. -1.
          1    1    1    2  502    0  0.97497662171E+01  0.33963624928E+02 -0.25656898089E+04  0.25659331210E+04  0.00000000000E+00 0.  1.
         22    1    1    2    0    0 -0.43365054128E+02  0.46204342008E+02 -0.10980126194E+03  0.12677415456E+03  0.00000000000E+00 0. -1.
         22    1    1    2    0    0  0.32838397534E+02 -0.56789168697E+02 -0.14727403431E+03  0.16122348221E+03  0.00000000000E+00 0.  1.
</event>
<event>
 6    1  0.3624778E-005  0.5385550E+02  0.7818608E-02  0.1537971E+00
          2   -1    0    0  502    0  0.00000000000E+00  0.00000000000E+00  0.53158871473E+02  0.53158871473E+02  0.00000000000E+00 0. -1.
          1   -1    0    0  501    0 -0.00000000000E+00 -0.00000000000E+00 -0.12145118098E+04  0.12145118098E+04  0.00000000000E+00 0. -1.
          2    1    1    2  501    0  0.13096730842E+02 -0.31077219598E+02 -0.39251276434E+03  0.39395886601E+03  0.00000000000E+00 0. -1.
          1    1    1    2  502    0  0.11850968796E+02  0.35332443320E+02 -0.73738187840E+03  0.73832300628E+03  0.00000000000E+00 0. -1.
         22    1    1    2    0    0 -0.14699411598E+02 -0.18771247692E+00 -0.82178992338E+02  0.83483499681E+02  0.00000000000E+00 0. -1.
         22    1    1    2    0    0 -0.10248288040E+02 -0.40675112452E+01  0.50720696748E+02  0.51905309305E+02  0.00000000000E+00 0. -1.
</event>
<event>
 6    1  0.3624778E-005  0.6265088E+02  0.7818608E-02  0.1507846E+00
          2   -1    0    0  502    0  0.00000000000E+00  0.00000000000E+00  0.64434621927E+02  0.64434621927E+02  0.00000000000E+00 0.  1.
          1   -1    0    0  501    0 -0.00000000000E+00 -0.00000000000E+00 -0.40607364803E+03  0.40607364803E+03  0.00000000000E+00 0. -1.
          2    1    1    2  501    0 -0.23324985499E+02 -0.19072227456E+01 -0.95274435128E+01  0.25267857587E+02  0.00000000000E+00 0.  1.
          1    1    1    2  502    0  0.30499189192E+02  0.26049992997E+02 -0.31833239425E+03  0.32084936638E+03  0.00000000000E+00 0. -1.
         22    1    1    2    0    0 -0.10394420514E+02  0.11869378810E+01  0.52411882261E+02  0.53445843632E+02  0.00000000000E+00 0.  1.
         22    1    1    2    0    0  0.32202168211E+01 -0.25329708132E+02 -0.66191070597E+02  0.70945202355E+02  0.00000000000E+00 0.  1.
</event>
<event>
 6    1  0.3624778E-005  0.1171887E+03  0.7818608E-02  0.1249482E+00
          2   -1    0    0  502    0  0.00000000000E+00  0.00000000000E+00  0.73335463938E+02  0.73335463938E+02  0.00000000000E+00 0.  1.
          1   -1    0    0  501    0 -0.00000000000E+00 -0.00000000000E+00 -0.25731995618E+03  0.25731995618E+03  0.00000000000E+00 0.  1.
          2    1    1    2  501    0 -0.62740301524E+02 -0.36144657670E+02 -0.64793574298E+02  0.97164751756E+02  0.00000000000E+00 0.  1.
          1    1    1    2  502    0 -0.32557490245E+02 -0.43810219241E+00 -0.20628777695E+00  0.32561091186E+02  0.00000000000E+00 0.  1.
         22    1    1    2    0    0 -0.16069797274E+02 -0.28030723002E+02 -0.15997237825E+02  0.36053729828E+02  0.00000000000E+00 0.  1.
         22    1    1    2    0    0  0.11136758904E+03  0.64613482865E+02 -0.10298739234E+03  0.16487584735E+03  0.00000000000E+00 0.  1.
</event>
<event>
 6    1  0.3624778E-005  0.1974258E+03  0.7818608E-02  0.1213656E+00
          2   -1    0    0  502    0  0.00000000000E+00  0.00000000000E+00  0.69075309362E+02  0.69075309362E+02  0.00000000000E+00 0. -1.
          1   -1    0    0  501    0 -0.00000000000E+00 -0.00000000000E+00 -0.55251681439E+03  0.55251681439E+03  0.00000000000E+00 0. -1.
          2    1    1    2  501    0  0.32285411445E+02 -0.11447499001E+03 -0.25509803646E+03  0.28146381532E+03  0.00000000000E+00 0. -1.
          1    1    1    2  502    0 -0.44755831487E+01  0.10117761969E+03 -0.36579906128E+02  0.10768022614E+03  0.00000000000E+00 0. -1.
         22    1    1    2    0    0 -0.76793097594E+02  0.20952561372E+02 -0.13802397657E+03  0.15933238144E+03  0.00000000000E+00 0.  1.
         22    1    1    2    0    0  0.48983269297E+02 -0.76551910489E+01 -0.53739585866E+02  0.73115700845E+02  0.00000000000E+00 0.  1.
</event>
<event>
 6    1  0.3624778E-005  0.9241998E+02  0.7818608E-02  0.1301983E+00
          2   -1    0    0  502    0  0.00000000000E+00  0.00000000000E+00  0.34711002202E+03  0.34711002202E+03  0.00000000000E+00 0. -1.
          1   -1    0    0  501    0 -0.00000000000E+00 -0.00000000000E+00 -0.28477402377E+03  0.28477402377E+03  0.00000000000E+00 0. -1.
          2    1    1    2  501    0  0.32061879443E+02  0.23485147033E+02 -0.18608882275E+02  0.43884014677E+02  0.00000000000E+00 0. -1.
          1    1    1    2  502    0  0.27585115500E+02 -0.88207225390E+02 -0.22696544409E+03  0.24506073945E+03  0.00000000000E+00 0. -1.
         22    1    1    2    0    0  0.22751146474E+02  0.19950406905E+02  0.12045819368E+02  0.32568929454E+02  0.00000000000E+00 0. -1.
         22    1    1    2    0    0 -0.82398141417E+02  0.44771671451E+02  0.29586450525E+03  0.31037036221E+03  0.00000000000E+00 0. -1.
</event>
<event>
 6    1  0.3624778E-005  0.1141551E+03  0.7818608E-02  0.1285237E+00
          2   -1    0    0  502    0  0.00000000000E+00  0.00000000000E+00  0.41179227990E+03  0.41179227990E+03  0.00000000000E+00 0.  1.
          1   -1    0    0  501    0 -0.00000000000E+00 -0.00000000000E+00 -0.87356098290E+03  0.87356098290E+03  0.00000000000E+00 0. -1.
          2    1    1    2  501    0  0.64505628802E+01 -0.29933337245E+02  0.10814144221E+02  0.32473991983E+02  0.00000000000E+00 0.  1.
          1    1    1    2  502    0 -0.45384974782E+02 -0.45279590600E+02 -0.84728775450E+03  0.84970970112E+03  0.00000000000E+00 0. -1.
         22    1    1    2    0    0  0.77605734525E+02  0.27760551526E+02  0.16100971345E+03  0.18087959000E+03  0.00000000000E+00 0.  1.
         22    1    1    2    0    0 -0.38671322623E+02  0.47452376319E+02  0.21369519382E+03  0.22228997970E+03  0.00000000000E+00 0.  1.
</event>
<event>
 6    1  0.3624778E-005  0.1082488E+03  0.7818608E-02  0.1287269E+00
          2   -1    0    0  502    0  0.00000000000E+00  0.00000000000E+00  0.48489010146E+03  0.48489010146E+03  0.00000000000E+00 0.  1.
          1   -1    0    0  501    0 -0.00000000000E+00 -0.00000000000E+00 -0.90008035340E+03  0.90008035340E+03  0.00000000000E+00 0.  1.
          2    1    1    2  501    0  0.58240803339E+02  0.81774657845E+02  0.79299270296E+02  0.12793537474E+03  0.00000000000E+00 0.  1.
          1    1    1    2  502    0 -0.50011372313E+02 -0.72096957195E+02 -0.86241930144E+03  0.86687147842E+03  0.00000000000E+00 0.  1.
         22    1    1    2    0    0  0.44698903907E+02  0.34736373258E+02  0.11828031145E+03  0.13112909560E+03  0.00000000000E+00 0.  1.
         22    1    1    2    0    0 -0.52928334933E+02 -0.44414073909E+02  0.24964946776E+03  0.25903450610E+03  0.00000000000E+00 0.  1.
</event>
<event>
 6    1  0.3624778E-005  0.8955415E+02  0.7818608E-02  0.1320990E+00
          2   -1    0    0  502    0  0.00000000000E+00  0.00000000000E+00  0.35018974759E+02  0.35018974759E+02  0.00000000000E+00 0. -1.
          1   -1    0    0  501    0 -0.00000000000E+00 -0.00000000000E+00 -0.64609382969E+03  0.64609382969E+03  0.00000000000E+00 0.  1.
          2    1    1    2  501    0 -0.54721280050E+02 -0.56474105542E+01 -0.10162266878E+03  0.11555725224E+03  0.00000000000E+00 0. -1.
          1    1    1    2  502    0  0.52124261935E+02  0.63882528186E+02 -0.31267937280E+03  0.32336713851E+03  0.00000000000E+00 0.  1.
         22    1    1    2    0    0 -0.47762344863E+02 -0.15897543479E+02 -0.15799241667E+03  0.16581790374E+03  0.00000000000E+00 0.  1.
         22    1    1    2    0    0  0.50359362978E+02 -0.42337574153E+02 -0.38780396678E+02  0.76370509958E+02  0.00000000000E+00 0. -1.
</event>
<event>
 6    1  0.3624778E-005  0.9611690E+02  0.7818608E-02  0.1385043E+00
          2   -1    0    0  502    0  0.00000000000E+00  0.00000000000E+00  0.82865701140E+02  0.82865701140E+02  0.00000000000E+00 0.  1.
          1   -1    0    0  501    0 -0.00000000000E+00 -0.00000000000E+00 -0.43629005892E+03  0.43629005892E+03  0.00000000000E+00 0.  1.
          2    1    1    2  501    0 -0.25284310133E+02  0.50384055384E+02 -0.19374727964E+02  0.59608971300E+02  0.00000000000E+00 0.  1.
          1    1    1    2  502    0  0.51892896491E+02 -0.62173127237E+02 -0.32363567349E+03  0.33361417777E+03  0.00000000000E+00 0.  1.
         22    1    1    2    0    0  0.13582787442E+02 -0.11685289735E+02  0.48004407579E+02  0.51239255048E+02  0.00000000000E+00 0.  1.
         22    1    1    2    0    0 -0.40191373799E+02  0.23474361589E+02 -0.58418363907E+02  0.74693355939E+02  0.00000000000E+00 0. -1.
</event>
<event>
 6    1  0.3624778E-005  0.4769112E+02  0.7818608E-02  0.1509782E+00
          2   -1    0    0  502    0  0.00000000000E+00  0.00000000000E+00  0.78452512626E+02  0.78452512626E+02  0.00000000000E+00 0.  1.
          1   -1    0    0  501    0 -0.00000000000E+00 -0.00000000000E+00 -0.32025912089E+03  0.32025912089E+03  0.00000000000E+00 0.  1.
          2    1    1    2  501    0  0.21883732519E+02  0.31849880143E+02 -0.10636399649E+03  0.11316630401E+03  0.00000000000E+00 0.  1.
          1    1    1    2  502    0 -0.31946002156E+02 -0.20152248917E+02 -0.15357619316E+03  0.15815279730E+03  0.00000000000E+00 0.  1.
         22    1    1    2    0    0 -0.11841641665E+02 -0.19837603845E+02  0.68272566001E+02  0.72075642710E+02  0.00000000000E+00 0.  1.
         22    1    1    2    0    0  0.21903911302E+02  0.81399726188E+01 -0.50138984610E+02  0.55316889485E+02  0.00000000000E+00 0.  1.
</event>
<event>
 6    1  0.3624778E-005  0.8178220E+02  0.7818608E-02  0.1340409E+00
          2   -1    0    0  502    0  0.00000000000E+00  0.00000000000E+00  0.20019488129E+03  0.20019488129E+03  0.00000000000E+00 0. -1.
          1   -1    0    0  501    0 -0.00000000000E+00 -0.00000000000E+00 -0.23204023597E+03  0.23204023597E+03  0.00000000000E+00 0. -1.
          2    1    1    2  501    0  0.21071904054E+02  0.24271045558E+02 -0.93761394287E+02  0.99117646520E+02  0.00000000000E+00 0. -1.
          1    1    1    2  502    0  0.70457189596E+02 -0.73429170916E+02 -0.69491477698E+02  0.12322793587E+03  0.00000000000E+00 0. -1.
         22    1    1    2    0    0 -0.91778718572E+02  0.21999005015E+02  0.14982550039E+03  0.17707334631E+03  0.00000000000E+00 0. -1.
         22    1    1    2    0    0  0.24962492209E+00  0.27159120343E+02 -0.18417983089E+02  0.32816188557E+02  0.00000000000E+00 0. -1.
</event>
<event>
 6    1  0.3624778E-005  0.9237860E+02  0.7818608E-02  0.1298925E+00
          2   -1    0    0  502    0  0.00000000000E+00  0.00000000000E+00  0.93425779426E+02  0.93425779426E+02  0.00000000000E+00 0. -1.
          1   -1    0    0  501    0 -0.00000000000E+00 -0.00000000000E+00 -0.17953173247E+03  0.17953173247E+03  0.00000000000E+00 0. -1.
          2    1    1    2  501    0  0.15979501809E+02  0.58094530086E+02 -0.30832217121E+02  0.67682675158E+02  0.00000000000E+00 0. -1.
          1    1    1    2  502    0  0.32187559601E+02 -0.45445054772E+02  0.14733647320E+02  0.57605315377E+02  0.00000000000E+00 0. -1.
         22    1    1    2    0    0  0.26584720062E+02  0.32014316425E+02 -0.13026076821E+02  0.43604385952E+02  0.00000000000E+00 0. -1.
         22    1    1    2    0    0 -0.74751781472E+02 -0.44663791738E+02 -0.56981306419E+02  0.10406513541E+03  0.00000000000E+00 0. -1.
</event>
<event>
 6    1  0.3624778E-005  0.1103732E+03  0.7818608E-02  0.1282592E+00
          2   -1    0    0  502    0  0.00000000000E+00  0.00000000000E+00  0.81085638544E+02  0.81085638544E+02  0.00000000000E+00 0. -1.
          1   -1    0    0  501    0 -0.00000000000E+00 -0.00000000000E+00 -0.35555316645E+03  0.35555316645E+03  0.00000000000E+00 0. -1.
          2    1    1    2  501    0 -0.18414152859E+02 -0.10205467413E+03 -0.19017472629E+03  0.21661178189E+03  0.00000000000E+00 0. -1.
          1    1    1    2  502    0 -0.13477272088E+02  0.62541967823E+02 -0.12542930210E+01  0.63989904306E+02  0.00000000000E+00 0. -1.
         22    1    1    2    0    0  0.61148207601E+02  0.32006595708E+02 -0.14459940045E+01  0.69033443782E+02  0.00000000000E+00 0. -1.
         22    1    1    2    0    0 -0.29256782654E+02  0.75061105999E+01 -0.81592514599E+02  0.87003675016E+02  0.00000000000E+00 0. -1.
</event>
<event>
 6    1  0.3624778E-005  0.5272601E+02  0.7818608E-02  0.1436111E+00
          2   -1    0    0  502    0  0.00000000000E+00  0.00000000000E+00  0.13411126862E+03  0.13411126862E+03  0.00000000000E+00 0. -1.
          1   -1    0    0  501    0 -0.00000000000E+00 -0.00000000000E+00 -0.10710562979E+03  0.10710562979E+03  0.00000000000E+00 0.  1.
          2    1    1    2  501    0  0.19005297287E+02  0.19904128259E+02 -0.49286463869E+02  0.56449368175E+02  0.00000000000E+00 0. -1.
          1    1    1    2  502    0 -0.20252604848E+02  0.20841174458E+02 -0.98927452345E+01  0.30698354421E+02  0.00000000000E+00 0.  1.
         22    1    1    2    0    0 -0.45309395945E+01  0.20311070922E+02 -0.21640196566E+02  0.30022776737E+02  0.00000000000E+00 0.  1.
         22    1    1    2    0    0  0.57782471549E+01 -0.61056373639E+02  0.10782504450E+03  0.12404639908E+03  0.00000000000E+00 0. -1.
</event>
<event>
 6    1  0.3624778E-005  0.7104614E+02  0.7818608E-02  0.1422754E+00
          2   -1    0    0  502    0  0.00000000000E+00  0.00000000000E+00  0.30857764211E+02  0.30857764211E+02  0.00000000000E+00 0. -1.
          1   -1    0    0  501    0 -0.00000000000E+00 -0.00000000000E+00 -0.96283052235E+03  0.96283052235E+03  0.00000000000E+00 0. -1.
          2    1    1    2  501    0 -0.28023139927E+02 -0.17550192770E+02 -0.22493427178E+03  0.22735156094E+03  0.00000000000E+00 0. -1.
          1    1    1    2  502    0  0.39475826988E+02  0.60081828024E+02 -0.57824406785E+03  0.58269577739E+03  0.00000000000E+00 0. -1.
         22    1    1    2    0    0  0.14627461370E+02 -0.19651633120E+02  0.19519345998E+02  0.31323380702E+02  0.00000000000E+00 0. -1.
         22    1    1    2    0    0 -0.26080148431E+02 -0.22880002134E+02 -0.14831376450E+03  0.15231756753E+03  0.00000000000E+00 0. -1.
</event>
<event>
 6    1  0.3624778E-005  0.1704714E+03  0.7818608E-02  0.1241532E+00
          2   -1    0    0  502    0  0.00000000000E+00  0.00000000000E+00  0.10929407513E+02  0.10929407513E+02  0.00000000000E+00 0. -1.
          1   -1    0    0  501    0 -0.00000000000E+00 -0.00000000000E+00 -0.25833206747E+04  0.25833206747E+04  0.00000000000E+00 0. -1.
          2    1    1    2  501    0 -0.36367207294E+02  0.17863579014E+01 -0.73780403636E+03  0.73870194321E+03  0.00000000000E+00 0. -1.
          1    1    1    2  502    0 -0.44169178761E+02 -0.17461358128E+02 -0.13119755714E+04  0.13128349917E+04  0.00000000000E+00 0. -1.
         22    1    1    2    0    0  0.98914730548E+02 -0.23424759664E+02 -0.39994162013E+03  0.41265741577E+03  0.00000000000E+00 0. -1.
         22    1    1    2    0    0 -0.18378344492E+02  0.39099759891E+02 -0.12267003930E+03  0.13005573156E+03  0.00000000000E+00 0. -1.
</event>
<event>
 6    1  0.3624778E-005  0.1601432E+03  0.7818608E-02  0.1246980E+00
          2   -1    0    0  502    0  0.00000000000E+00  0.00000000000E+00  0.65677595739E+03  0.65677595739E+03  0.00000000000E+00 0. -1.
          1   -1    0    0  501    0 -0.00000000000E+00 -0.00000000000E+00 -0.29478313699E+02  0.29478313699E+02  0.00000000000E+00 0. -1.
          2    1    1    2  501    0  0.60757322670E+02 -0.23329778932E+02  0.28741575766E+03  0.29469229476E+03  0.00000000000E+00 0. -1.
          1    1    1    2  502    0 -0.10917440666E+02  0.46679454451E+02  0.40930800998E+02  0.63035644273E+02  0.00000000000E+00 0. -1.
         22    1    1    2    0    0  0.90201582609E+01 -0.45811992582E+02  0.23177091555E+03  0.23642728102E+03  0.00000000000E+00 0.  1.
         22    1    1    2    0    0 -0.58860040265E+02  0.22462317062E+02  0.67180169489E+02  0.92099051028E+02  0.00000000000E+00 0. -1.
</event>
<event>
 6    1  0.3624778E-005  0.1383184E+03  0.7818608E-02  0.1320603E+00
          2   -1    0    0  502    0  0.00000000000E+00  0.00000000000E+00  0.45950729527E+02  0.45950729527E+02  0.00000000000E+00 0. -1.
          1   -1    0    0  501    0 -0.00000000000E+00 -0.00000000000E+00 -0.10183269792E+04  0.10183269792E+04  0.00000000000E+00 0. -1.
          2    1    1    2  501    0  0.15259788303E+01  0.71045209298E+02 -0.13778741332E+03  0.15503264703E+03  0.00000000000E+00 0. -1.
          1    1    1    2  502    0 -0.58835011262E+02 -0.11517783123E+03 -0.70695749857E+03  0.71869075140E+03  0.00000000000E+00 0. -1.
         22    1    1    2    0    0  0.45703640827E+02  0.30399405397E+02 -0.15123176096E+03  0.16088502776E+03  0.00000000000E+00 0.  1.
         22    1    1    2    0    0  0.11605391605E+02  0.13733216536E+02  0.23600423195E+02  0.29669282527E+02  0.00000000000E+00 0. -1.
</event>
<event>
 6    1  0.3624778E-005  0.5264529E+02  0.7818608E-02  0.1491045E+00
          2   -1    0    0  502    0  0.00000000000E+00  0.00000000000E+00  0.38365434761E+02  0.38365434761E+02  0.00000000000E+00 0. -1.
          1   -1    0    0  501    0 -0.00000000000E+00 -0.00000000000E+00 -0.73646932790E+03  0.73646932790E+03  0.00000000000E+00 0.  1.
          2    1    1    2  501    0  0.82403466958E+01 -0.31509974020E+02 -0.12978634491E+03  0.13381060160E+03  0.00000000000E+00 0. -1.
          1    1    1    2  502    0 -0.39727726470E+02  0.30271945859E+02 -0.49130396362E+03  0.49383627613E+03  0.00000000000E+00 0.  1.
         22    1    1    2    0    0  0.14023859791E+02  0.17230735165E+02  0.30143283317E+02  0.37445752855E+02  0.00000000000E+00 0. -1.
         22    1    1    2    0    0  0.17463519983E+02 -0.15992707003E+02 -0.10715686792E+03  0.10974213207E+03  0.00000000000E+00 0. -1.
</event>
<event>
 6    1  0.3624778E-005  0.2083941E+03  0.7818608E-02  0.1202739E+00
          2   -1    0    0  502    0  0.00000000000E+00  0.00000000000E+00  0.45802154575E+03  0.45802154575E+03  0.00000000000E+00 0.  1.
          1   -1    0    0  501    0 -0.00000000000E+00 -0.00000000000E+00 -0.42584846559E+03  0.42584846559E+03  0.00000000000E+00 0. -1.
          2    1    1    2  501    0  0.15403315077E+03 -0.36498469191E+02  0.18747833182E+03  0.24537007701E+03  0.00000000000E+00 0.  1.
          1    1    1    2  502    0 -0.19822098929E+03 -0.11181498954E+02 -0.34686632610E+03  0.39966590385E+03  0.00000000000E+00 0. -1.
         22    1    1    2    0    0 -0.42372808385E+02  0.32264964604E+02  0.56219858213E+02  0.77441302215E+02  0.00000000000E+00 0. -1.
         22    1    1    2    0    0  0.86560646908E+02  0.15415003541E+02  0.13534121623E+03  0.16139272827E+03  0.00000000000E+00 0.  1.
</event>
<event>
 6    1  0.3624778E-005  0.7812999E+02  0.7818608E-02  0.1455965E+00
          2   -1    0    0  502    0  0.00000000000E+00  0.00000000000E+00  0.73263591816E+02  0.73263591816E+02  0.00000000000E+00 0.  1.
          1   -1    0    0  501    0 -0.00000000000E+00 -0.00000000000E+00 -0.73472255785E+03  0.73472255785E+03  0.00000000000E+00 0.  1.
          2    1    1    2  501    0 -0.37408766743E+01 -0.22723650086E+02 -0.36739972105E+02  0.43361088337E+02  0.00000000000E+00 0.  1.
          1    1    1    2  502    0 -0.12052784818E+02  0.76790716963E+02 -0.61944619333E+03  0.62430414885E+03  0.00000000000E+00 0.  1.
         22    1    1    2    0    0  0.18353127052E+02 -0.43155805277E+02 -0.64665265556E+02  0.79880268973E+02  0.00000000000E+00 0.  1.
         22    1    1    2    0    0 -0.25594655589E+01 -0.10911261599E+02  0.59392464961E+02  0.60440643509E+02  0.00000000000E+00 0.  1.
</event>
<event>
 6    1  0.3624778E-005  0.2179654E+03  0.7818608E-02  0.1200723E+00
          2   -1    0    0  502    0  0.00000000000E+00  0.00000000000E+00  0.17344101796E+03  0.17344101796E+03  0.00000000000E+00 0.  1.
          1   -1    0    0  501    0 -0.00000000000E+00 -0.00000000000E+00 -0.63576734419E+03  0.63576734419E+03  0.00000000000E+00 0.  1.
          2    1    1    2  501    0 -0.38519249004E+02  0.74513080762E+02 -0.39748718812E+02  0.92821831460E+02  0.00000000000E+00 0.  1.
          1    1    1    2  502    0 -0.14387216699E+02  0.15363792460E+02 -0.52365161023E+03  0.52407446705E+03  0.00000000000E+00 0.  1.
         22    1    1    2    0    0  0.93793256259E+02 -0.64371958375E+02  0.58061528069E+02  0.12771869474E+03  0.00000000000E+00 0.  1.
         22    1    1    2    0    0 -0.40886790556E+02 -0.25504914847E+02  0.43012474729E+02  0.64593368898E+02  0.00000000000E+00 0.  1.
</event>
<event>
 6    1  0.3624778E-005  0.2605115E+03  0.7818608E-02  0.1191842E+00
          2   -1    0    0  502    0  0.00000000000E+00  0.00000000000E+00  0.64756063554E+03  0.64756063554E+03  0.00000000000E+00 0. -1.
          1   -1    0    0  501    0 -0.00000000000E+00 -0.00000000000E+00 -0.41463756298E+03  0.41463756298E+03  0.00000000000E+00 0.  1.
          2    1    1    2  501    0  0.86275584575E+02 -0.95183824214E+02  0.11701194960E+03  0.17376775661E+03  0.00000000000E+00 0. -1.
          1    1    1    2  502    0 -0.11993491608E+03  0.21612132295E+02 -0.36488929198E+03  0.38470204543E+03  0.00000000000E+00 0.  1.
         22    1    1    2    0    0 -0.24674742285E+02 -0.24227220588E+02  0.14794718365E+03  0.15193475664E+03  0.00000000000E+00 0.  1.
         22    1    1    2    0    0  0.58334073786E+02  0.97798912507E+02  0.33285323129E+03  0.35179363984E+03  0.00000000000E+00 0. -1.
</event>
<event>
 6    1  0.3624778E-005  0.2469566E+03  0.7818608E-02  0.1115652E+00
          2   -1    0    0  502    0  0.00000000000E+00  0.00000000000E+00  0.11183348855E+03  0.11183348855E+03  0.00000000000E+00 0.  1.
          1   -1    0    0  501    0 -0.00000000000E+00 -0.00000000000E+00 -0.77055700712E+03  0.77055700712E+03  0.00000000000E+00 0.  1.
          2    1    1    2  501    0 -0.23476909112E+03  0.36652266130E+02 -0.17665975281E+03  0.29608880935E+03  0.00000000000E+00 0.  1.
          1    1    1    2  502    0  0.20396583588E+02  0.18532950627E+02 -0.21689786380E+03  0.21864165706E+03  0.00000000000E+00 0.  1.
         22    1    1    2    0    0 -0.12889814653E+02  0.83012198294E+01 -0.43329140753E+01  0.15932097063E+02  0.00000000000E+00 0. -1.
         22    1    1    2    0    0  0.22726232219E+03 -0.63486436586E+02 -0.26083298789E+03  0.35172793219E+03  0.00000000000E+00 0.  1.
</event>
<event>
 6    1  0.3624778E-005  0.1943683E+03  0.7818608E-02  0.1223380E+00
          2   -1    0    0  502    0  0.00000000000E+00  0.00000000000E+00  0.37681738829E+03  0.37681738829E+03  0.00000000000E+00 0. -1.
          1   -1    0    0  501    0 -0.00000000000E+00 -0.00000000000E+00 -0.19411547165E+03  0.19411547165E+03  0.00000000000E+00 0. -1.
          2    1    1    2  501    0 -0.11929790661E+03  0.12745783559E+03  0.36279527171E+02  0.17830786429E+03  0.00000000000E+00 0. -1.
          1    1    1    2  502    0  0.13128603643E+03 -0.85460297561E+02 -0.41105228184E+02  0.16195408486E+03  0.00000000000E+00 0. -1.
         22    1    1    2    0    0  0.10484249987E+02 -0.61156239902E+01 -0.17511284860E+02  0.21306465029E+02  0.00000000000E+00 0.  1.
         22    1    1    2    0    0 -0.22472379805E+02 -0.35881914041E+02  0.20503890251E+03  0.20936444577E+03  0.00000000000E+00 0. -1.
</event>
<event>
 6    1  0.3624778E-005  0.7027917E+02  0.7818608E-02  0.1392562E+00
          2   -1    0    0  502    0  0.00000000000E+00  0.00000000000E+00  0.25498873809E+03  0.25498873809E+03  0.00000000000E+00 0. -1.
          1   -1    0    0  501    0 -0.00000000000E+00 -0.00000000000E+00 -0.78156734035E+02  0.78156734035E+02  0.00000000000E+00 0. -1.
          2    1    1    2  501    0 -0.55197304783E+02  0.20904717179E+02 -0.31551545085E+01  0.59107568514E+02  0.00000000000E+00 0. -1.
          1    1    1    2  502    0  0.35369447823E+02 -0.43625180679E+02  0.84508862587E+01  0.56794116836E+02  0.00000000000E+00 0. -1.
         22    1    1    2    0    0 -0.19775313761E+02  0.13736851855E+02 -0.13635667914E+02  0.27671204757E+02  0.00000000000E+00 0. -1.
         22    1    1    2    0    0  0.39603170721E+02  0.89836116448E+01  0.18517194022E+03  0.18957258202E+03  0.00000000000E+00 0. -1.
</event>
<event>
 6    1  0.3624778E-005  0.8985478E+02  0.7818608E-02  0.1335478E+00
          2   -1    0    0  502    0  0.00000000000E+00  0.00000000000E+00  0.19557362101E+03  0.19557362101E+03  0.00000000000E+00 0.  1.
          1   -1    0    0  501    0 -0.00000000000E+00 -0.00000000000E+00 -0.84165927603E+02  0.84165927603E+02  0.00000000000E+00 0.  1.
          2    1    1    2  501    0  0.68013640183E+02 -0.10697436734E+01  0.11207632615E+02  0.68939180669E+02  0.00000000000E+00 0.  1.
          1    1    1    2  502    0 -0.55625031773E+02  0.30837601014E+01  0.14148666475E+02  0.57479026602E+02  0.00000000000E+00 0.  1.
         22    1    1    2    0    0 -0.35414214478E+02 -0.35921371630E+02  0.98348205481E+02  0.11053000067E+03  0.00000000000E+00 0.  1.
         22    1    1    2    0    0  0.23025606068E+02  0.33907355202E+02 -0.12296811165E+02  0.42791340671E+02  0.00000000000E+00 0.  1.
</event>
<event>
 6    1  0.3624778E-005  0.7757245E+02  0.7818608E-02  0.1342560E+00
          2   -1    0    0  502    0  0.00000000000E+00  0.00000000000E+00  0.89110427543E+02  0.89110427543E+02  0.00000000000E+00 0. -1.
          1   -1    0    0  501    0 -0.00000000000E+00 -0.00000000000E+00 -0.15061490170E+03  0.15061490170E+03  0.00000000000E+00 0. -1.
          2    1    1    2  501    0  0.33237826810E+02 -0.85887375841E+01  0.32509956289E+01  0.34483162803E+02  0.00000000000E+00 0. -1.
          1    1    1    2  502    0  0.41683612880E+01  0.33710411769E+02 -0.61131225180E+02  0.69934210437E+02  0.00000000000E+00 0. -1.
         22    1    1    2    0    0 -0.69738592729E+02 -0.42696019435E+02 -0.33042757348E+02  0.88194360390E+02  0.00000000000E+00 0. -1.
         22    1    1    2    0    0  0.32332404631E+02  0.17574345250E+02  0.29418512739E+02  0.47113595617E+02  0.00000000000E+00 0.  1.
</event>
<event>
 6    1  0.3624778E-005  0.1407448E+03  0.7818608E-02  0.1317530E+00
          2   -1    0    0  502    0  0.00000000000E+00  0.00000000000E+00  0.10894885088E+03  0.10894885088E+03  0.00000000000E+00 0. -1.
          1   -1    0    0  501    0 -0.00000000000E+00 -0.00000000000E+00 -0.50459981815E+03  0.50459981815E+03  0.00000000000E+00 0. -1.
          2    1    1    2  501    0 -0.45750484283E+02  0.13436981290E+02 -0.31900070619E+03  0.32254474081E+03  0.00000000000E+00 0. -1.
          1    1    1    2  502    0  0.89456953658E+01  0.18618111356E+02 -0.14345735517E+03  0.14493678722E+03  0.00000000000E+00 0. -1.
         22    1    1    2    0    0  0.20282306445E+02 -0.39274037980E+02 -0.26163080594E+02  0.51364664899E+02  0.00000000000E+00 0. -1.
         22    1    1    2    0    0  0.16522482472E+02  0.72189453330E+01  0.92970174683E+02  0.94702476100E+02  0.00000000000E+00 0. -1.
</event>
<event>
 6    1  0.3624778E-005  0.2388326E+03  0.7818608E-02  0.1160926E+00
          2   -1    0    0  502    0  0.00000000000E+00  0.00000000000E+00  0.50749989571E+03  0.50749989571E+03  0.00000000000E+00 0.  1.
          1   -1    0    0  501    0 -0.00000000000E+00 -0.00000000000E+00 -0.24034287004E+03  0.24034287004E+03  0.00000000000E+00 0.  1.
          2    1    1    2  501    0  0.66642002276E+02  0.11707748659E+03  0.15838919566E+03  0.20793131471E+03  0.00000000000E+00 0.  1.
          1    1    1    2  502    0 -0.21079567960E+03 -0.11263488712E+03 -0.99842826296E+02  0.25901742470E+03  0.00000000000E+00 0.  1.
         22    1    1    2    0    0  0.78652750100E+02  0.57751209777E+02  0.10182467684E+03  0.14103092619E+03  0.00000000000E+00 0.  1.
         22    1    1    2    0    0  0.65500927222E+02 -0.62193809248E+02  0.10678597947E+03  0.13986310016E+03  0.00000000000E+00 0.  1.
</event>
<event>
 6    1  0.3624778E-005  0.7644553E+02  0.7818608E-02  0.1343986E+00
          2   -1    0    0  502    0  0.00000000000E+00  0.00000000000E+00  0.11192023146E+03  0.11192023146E+03  0.00000000000E+00 0. -1.
          1   -1    0    0  501    0 -0.00000000000E+00 -0.00000000000E+00 -0.33649946713E+03  0.33649946713E+03  0.00000000000E+00 0.  1.
          2    1    1    2  501    0  0.17416421288E+01 -0.39988546642E+02  0.60850592141E+02  0.72834825076E+02  0.00000000000E+00 0. -1.
          1    1    1    2  502    0  0.24241227831E+02 -0.60079636214E+01 -0.23020617409E+03  0.23155693758E+03  0.00000000000E+00 0.  1.
         22    1    1    2    0    0 -0.13552190425E+02 -0.29340132163E+02  0.19043011824E+02  0.37511885050E+02  0.00000000000E+00 0.  1.
         22    1    1    2    0    0 -0.12430679534E+02  0.75336642426E+02 -0.74266665544E+02  0.10651605089E+03  0.00000000000E+00 0.  1.
</event>
<event>
 6    1  0.3624778E-005  0.2590284E+03  0.7818608E-02  0.1183060E+00
          2   -1    0    0  502    0  0.00000000000E+00  0.00000000000E+00  0.50090147514E+02  0.50090147514E+02  0.00000000000E+00 0. -1.
          1   -1    0    0  501    0 -0.00000000000E+00 -0.00000000000E+00 -0.20368557019E+04  0.20368557019E+04  0.00000000000E+00 0. -1.
          2    1    1    2  501    0  0.28126086135E+02  0.24781701383E+02 -0.36715345620E+03  0.36906214903E+03  0.00000000000E+00 0. -1.
          1    1    1    2  502    0 -0.19650436588E+02  0.32535901807E+02 -0.15664974820E+04  0.15669585463E+04  0.00000000000E+00 0. -1.
         22    1    1    2    0    0  0.29125278347E+02 -0.40125196194E+02  0.30101846793E+02  0.58003744609E+02  0.00000000000E+00 0. -1.
         22    1    1    2    0    0 -0.37600927894E+02 -0.17192406996E+02 -0.83216462943E+02  0.92921409490E+02  0.00000000000E+00 0. -1.
</event>
<event>
 6    1  0.3624778E-005  0.1001729E+03  0.7818608E-02  0.1331248E+00
          2   -1    0    0  502    0  0.00000000000E+00  0.00000000000E+00  0.27533349581E+03  0.27533349581E+03  0.00000000000E+00 0. -1.
          1   -1    0    0  501    0 -0.00000000000E+00 -0.00000000000E+00 -0.19908033308E+04  0.19908033308E+04  0.00000000000E+00 0. -1.
          2    1    1    2  501    0 -0.18925315221E+02 -0.61359982148E+02  0.15550727716E+02  0.66068450095E+02  0.00000000000E+00 0. -1.
          1    1    1    2  502    0  0.30708962166E+02  0.82743296768E+02 -0.19467085494E+04  0.19487082054E+04  0.00000000000E+00 0. -1.
         22    1    1    2    0    0 -0.37185973949E+02  0.12414816084E+02  0.20366522794E+03  0.20740407274E+03  0.00000000000E+00 0. -1.
         22    1    1    2    0    0  0.25402327004E+02 -0.33798130705E+02  0.12022758742E+02  0.43956098372E+02  0.00000000000E+00 0. -1.
</event>
<event>
 6    1  0.3624778E-005  0.7114526E+02  0.7818608E-02  0.1364316E+00
          2   -1    0    0  502    0  0.00000000000E+00  0.00000000000E+00  0.77054651286E+03  0.77054651286E+03  0.00000000000E+00 0. -1.
          1   -1    0    0  501    0 -0.00000000000E+00 -0.00000000000E+00 -0.13601647352E+02  0.13601647352E+02  0.00000000000E+00 0. -1.
          2    1    1    2  501    0  0.91212885193E+01  0.52417972004E+02  0.13059822420E+03  0.14102034555E+03  0.00000000000E+00 0. -1.
          1    1    1    2  502    0 -0.50472228297E+01 -0.19929049182E+02  0.93237963349E+02  0.95477532798E+02  0.00000000000E+00 0. -1.
         22    1    1    2    0    0 -0.62162957631E+02 -0.22165278535E+02  0.30231489662E+03  0.30943469358E+03  0.00000000000E+00 0. -1.
         22    1    1    2    0    0  0.58088891941E+02 -0.10323644287E+02  0.23079378134E+03  0.23821558829E+03  0.00000000000E+00 0. -1.
</event>
<event>
 6    1  0.3624778E-005  0.1349454E+03  0.7818608E-02  0.1277890E+00
          2   -1    0    0  502    0  0.00000000000E+00  0.00000000000E+00  0.86797736945E+02  0.86797736945E+02  0.00000000000E+00 0. -1.
          1   -1    0    0  501    0 -0.00000000000E+00 -0.00000000000E+00 -0.60774100335E+03  0.60774100335E+03  0.00000000000E+00 0. -1.
          2    1    1    2  501    0  0.32729702236E+02  0.16464916515E+01 -0.76669008775E+02  0.83379141575E+02  0.00000000000E+00 0. -1.
          1    1    1    2  502    0 -0.64078655317E+02  0.50677150336E+02 -0.46643705898E+03  0.47353751449E+03  0.00000000000E+00 0. -1.
         22    1    1    2    0    0 -0.10743348436E+01 -0.79959777355E+02 -0.14673518324E+02  0.81302105324E+02  0.00000000000E+00 0. -1.
         22    1    1    2    0    0  0.32423287924E+02  0.27636135368E+02  0.36836319672E+02  0.56319978914E+02  0.00000000000E+00 0. -1.
</event>
<event>
 6    1  0.3624778E-005  0.1604115E+03  0.7818608E-02  0.1229309E+00
          2   -1    0    0  502    0  0.00000000000E+00  0.00000000000E+00  0.12135997713E+03  0.12135997713E+03  0.00000000000E+00 0.  1.
          1   -1    0    0  501    0 -0.00000000000E+00 -0.00000000000E+00 -0.31351155918E+03  0.31351155918E+03  0.00000000000E+00 0.  1.
          2    1    1    2  501    0 -0.22408414685E+02 -0.76042511376E+01 -0.24103577174E+02  0.33777864300E+02  0.00000000000E+00 0.  1.
          1    1    1    2  502    0  0.15168402840E+03  0.73621820026E+02 -0.10428595830E+03  0.19825180441E+03  0.00000000000E+00 0.  1.
         22    1    1    2    0    0 -0.12564793362E+03  0.47204913481E+00 -0.36059779321E+02  0.13072082366E+03  0.00000000000E+00 0.  1.
         22    1    1    2    0    0 -0.36276800874E+01 -0.66489618023E+02 -0.27702267247E+02  0.72121043935E+02  0.00000000000E+00 0.  1.
</event>
<event>
 6    1  0.3624778E-005  0.8702595E+02  0.7818608E-02  0.1431052E+00
          2   -1    0    0  502    0  0.00000000000E+00  0.00000000000E+00  0.76141676789E+02  0.76141676789E+02  0.00000000000E+00 0.  1.
          1   -1    0    0  501    0 -0.00000000000E+00 -0.00000000000E+00 -0.45071307015E+03  0.45071307015E+03  0.00000000000E+00 0.  1.
          2    1    1    2  501    0  0.41358824188E+02  0.26955422853E-01 -0.23963053152E+02  0.47799382645E+02  0.00000000000E+00 0.  1.
          1    1    1    2  502    0 -0.32466145141E+02 -0.42318309656E+02 -0.34271526662E+03  0.34684094897E+03  0.00000000000E+00 0.  1.
         22    1    1    2    0    0 -0.87480168354E+01 -0.78398886904E+01  0.52458455339E+02  0.53757615179E+02  0.00000000000E+00 0.  1.
         22    1    1    2    0    0 -0.14466221197E+00  0.50131242924E+02 -0.60351528935E+02  0.78456800145E+02  0.00000000000E+00 0.  1.
</event>
<event>
 6    1  0.3624778E-005  0.6169728E+03  0.7818608E-02  0.1094209E+00
          2   -1    0    0  502    0  0.00000000000E+00  0.00000000000E+00  0.53330079084E+03  0.53330079084E+03  0.00000000000E+00 0. -1.
          1   -1    0    0  501    0 -0.00000000000E+00 -0.00000000000E+00 -0.28786814739E+03  0.28786814739E+03  0.00000000000E+00 0. -1.
          2    1    1    2  501    0 -0.58978059078E+02 -0.13898183293E+03 -0.14167323335E+03  0.20704025306E+03  0.00000000000E+00 0. -1.
          1    1    1    2  502    0 -0.22394988431E+02 -0.94317455302E+01 -0.89812834569E+02  0.93042133380E+02  0.00000000000E+00 0. -1.
         22    1    1    2    0    0  0.10612076421E+03  0.13842427474E+03  0.45234623878E+03  0.48480925752E+03  0.00000000000E+00 0. -1.
         22    1    1    2    0    0 -0.24747716701E+02  0.99893037204E+01  0.24572472590E+02  0.36277294275E+02  0.00000000000E+00 0.  1.
</event>
<event>
 6    1  0.3624778E-005  0.4267180E+03  0.7818608E-02  0.1081032E+00
          2   -1    0    0  502    0  0.00000000000E+00  0.00000000000E+00  0.16183445120E+04  0.16183445120E+04  0.00000000000E+00 0.  1.
          1   -1    0    0  501    0 -0.00000000000E+00 -0.00000000000E+00 -0.36315387601E+03  0.36315387601E+03  0.00000000000E+00 0.  1.
          2    1    1    2  501    0  0.47695113830E+03  0.11348504323E+03  0.92551462705E+03  0.10473483510E+04  0.00000000000E+00 0.  1.
          1    1    1    2  502    0 -0.39464175499E+03 -0.10367038354E+03 -0.14694192294E+03  0.43368374644E+03  0.00000000000E+00 0.  1.
         22    1    1    2    0    0  0.34345858534E+02 -0.72213483979E+01  0.89134185392E+02  0.95795035762E+02  0.00000000000E+00 0.  1.
         22    1    1    2    0    0 -0.11665524185E+03 -0.25933112882E+01  0.38748374644E+03  0.40467125481E+03  0.00000000000E+00 0. -1.
</event>
<event>
 6    1  0.3624778E-005  0.1128544E+03  0.7818608E-02  0.1280827E+00
          2   -1    0    0  502    0  0.00000000000E+00  0.00000000000E+00  0.55361391294E+03  0.55361391294E+03  0.00000000000E+00 0.  1.
          1   -1    0    0  501    0 -0.00000000000E+00 -0.00000000000E+00 -0.19475383880E+03  0.19475383880E+03  0.00000000000E+00 0. -1.
          2    1    1    2  501    0  0.22686282063E+02 -0.18646425243E+02  0.20914549850E+02  0.36052391927E+02  0.00000000000E+00 0.  1.
          1    1    1    2  502    0 -0.63469901930E+02  0.65991011918E+02 -0.16640108648E+03  0.18992778545E+03  0.00000000000E+00 0. -1.
         22    1    1    2    0    0  0.68585270221E+02  0.63025184841E+01  0.34843777074E+03  0.35517958994E+03  0.00000000000E+00 0.  1.
         22    1    1    2    0    0 -0.27801650355E+02 -0.53647105159E+02  0.15590884004E+03  0.16720798443E+03  0.00000000000E+00 0.  1.
</event>
<event>
 6    1  0.3624778E-005  0.1646754E+03  0.7818608E-02  0.1222320E+00
          2   -1    0    0  502    0  0.00000000000E+00  0.00000000000E+00  0.35676080178E+03  0.35676080178E+03  0.00000000000E+00 0. -1.
          1   -1    0    0  501    0 -0.00000000000E+00 -0.00000000000E+00 -0.18195787653E+03  0.18195787653E+03  0.00000000000E+00 0. -1.
          2    1    1    2  501    0 -0.49491939171E+02  0.10761211383E+03  0.19469604134E+02  0.12003701334E+03  0.00000000000E+00 0. -1.
          1    1    1    2  502    0  0.23581033628E+02 -0.12171677479E+03 -0.81463453280E+02  0.14834868598E+03  0.00000000000E+00 0. -1.
         22    1    1    2    0    0 -0.38464789884E+02  0.44467403782E+02  0.96156199263E+02  0.11270716356E+03  0.00000000000E+00 0. -1.
         22    1    1    2    0    0  0.64375695428E+02 -0.30362742824E+02  0.14064057514E+03  0.15762581543E+03  0.00000000000E+00 0.  1.
</event>
<event>
 6    1  0.3624778E-005  0.1226986E+03  0.7818608E-02  0.1315297E+00
          2   -1    0    0  502    0  0.00000000000E+00  0.00000000000E+00  0.10172777845E+03  0.10172777845E+03  0.00000000000E+00 0. -1.
          1   -1    0    0  501    0 -0.00000000000E+00 -0.00000000000E+00 -0.28233752905E+03  0.28233752905E+03  0.00000000000E+00 0. -1.
          2    1    1    2  501    0 -0.41414031560E+02 -0.69963382730E+01 -0.29087509229E+02  0.51089665809E+02  0.00000000000E+00 0. -1.
          1    1    1    2  502    0  0.74001220386E+02 -0.49396043797E+02  0.36306431582E+02  0.96095300279E+02  0.00000000000E+00 0. -1.
         22    1    1    2    0    0 -0.52441449410E+02  0.36186170034E+02 -0.19704553079E+03  0.20709052543E+03  0.00000000000E+00 0. -1.
         22    1    1    2    0    0  0.19854260585E+02  0.20206212036E+02  0.92168578373E+01  0.29789815988E+02  0.00000000000E+00 0. -1.
</event>
<event>
 6    1  0.3624778E-005  0.1539317E+03  0.7818608E-02  0.1267872E+00
          2   -1    0    0  502    0  0.00000000000E+00  0.00000000000E+00  0.11566255300E+03  0.11566255300E+03  0.00000000000E+00 0.  1.
          1   -1    0    0  501    0 -0.00000000000E+00 -0.00000000000E+00 -0.39641415784E+03  0.39641415784E+03  0.00000000000E+00 0.  1.
          2    1    1    2  501    0  0.61017783892E+02  0.27233383383E+02 -0.25616118001E+02  0.71561250849E+02  0.00000000000E+00 0.  1.
          1    1    1    2  502    0  0.22359980577E+02  0.26869955808E+00 -0.28238994640E+03  0.28327393590E+03  0.00000000000E+00 0.  1.
         22    1    1    2    0    0 -0.64311622217E+02 -0.57243627830E+02 -0.28968506668E+02  0.90840475879E+02  0.00000000000E+00 0.  1.
         22    1    1    2    0    0 -0.19066142252E+02  0.29741544888E+02  0.56222966230E+02  0.66401048218E+02  0.00000000000E+00 0.  1.
</event>
<event>
 6    1  0.3624778E-005  0.1452481E+03  0.7818608E-02  0.1211156E+00
          2   -1    0    0  502    0  0.00000000000E+00  0.00000000000E+00  0.34346978364E+03  0.34346978364E+03  0.00000000000E+00 0. -1.
          1   -1    0    0  501    0 -0.00000000000E+00 -0.00000000000E+00 -0.19607246244E+03  0.19607246244E+03  0.00000000000E+00 0.  1.
          2    1    1    2  501    0  0.65509069823E+02  0.12770979094E+03  0.14099411770E+03  0.20119783835E+03  0.00000000000E+00 0. -1.
          1    1    1    2  502    0 -0.66212435317E+02 -0.49913387248E+02 -0.11971565924E+03  0.14562716740E+03  0.00000000000E+00 0.  1.
         22    1    1    2    0    0  0.14404426953E+02 -0.10873407325E+03  0.81147555976E+02  0.13643867502E+03  0.00000000000E+00 0.  1.
         22    1    1    2    0    0 -0.13701061458E+02  0.30937669556E+02  0.44971306759E+02  0.56278565318E+02  0.00000000000E+00 0.  1.
</event>
<event>
 6    1  0.3624778E-005  0.7823155E+02  0.7818608E-02  0.1336672E+00
          2   -1    0    0  502    0  0.00000000000E+00  0.00000000000E+00  0.39313870087E+02  0.39313870087E+02  0.00000000000E+00 0. -1.
          1   -1    0    0  501    0 -0.00000000000E+00 -0.00000000000E+00 -0.43850622495E+03  0.43850622495E+03  0.00000000000E+00 0.  1.
          2    1    1    2  501    0  0.38424833997E+02  0.74879093563E+01 -0.47807651645E+02  0.61790842444E+02  0.00000000000E+00 0. -1.
          1    1    1    2  502    0 -0.20145044255E+02 -0.74122412664E+02 -0.11191496846E+03  0.13573840663E+03  0.00000000000E+00 0.  1.
         22    1    1    2    0    0  0.38222094939E+02 -0.10184457748E+02 -0.28449101952E+02  0.48723742909E+02  0.00000000000E+00 0.  1.
         22    1    1    2    0    0 -0.56501884681E+02  0.76818961056E+02 -0.21102063280E+03  0.23156710306E+03  0.00000000000E+00 0. -1.
</event>
<event>
 6    1  0.3624778E-005  0.1800415E+03  0.7818608E-02  0.1203295E+00
          2   -1    0    0  502    0  0.00000000000E+00  0.00000000000E+00  0.41451942567E+02  0.41451942567E+02  0.00000000000E+00 0. -1.
          1   -1    0    0  501    0 -0.00000000000E+00 -0.00000000000E+00 -0.11796962933E+04  0.11796962933E+04  0.00000000000E+00 0. -1.
          2    1    1    2  501    0  0.27303346448E+01  0.26304916423E+02 -0.23294360964E+03  0.23444003205E+03  0.00000000000E+00 0. -1.
          1    1    1    2  502    0  0.92125286638E+02 -0.31509131444E+02 -0.77869135731E+03  0.78475481761E+03  0.00000000000E+00 0. -1.
         22    1    1    2    0    0 -0.53514005628E+02  0.61606782141E+02 -0.94924153536E+02  0.12517882940E+03  0.00000000000E+00 0. -1.
         22    1    1    2    0    0 -0.41341615655E+02 -0.56402567121E+02 -0.31685230290E+02  0.76774556862E+02  0.00000000000E+00 0. -1.
</event>
<event>
 6    1  0.3624778E-005  0.1719793E+03  0.7818608E-02  0.1274034E+00
          2   -1    0    0  502    0  0.00000000000E+00  0.00000000000E+00  0.41067295615E+03  0.41067295615E+03  0.00000000000E+00 0.  1.
          1   -1    0    0  501    0 -0.00000000000E+00 -0.00000000000E+00 -0.41757929389E+03  0.41757929389E+03  0.00000000000E+00 0.  1.
          2    1    1    2  501    0 -0.98029665276E+01  0.44218654050E+02  0.31747333546E+02  0.55310764830E+02  0.00000000000E+00 0.  1.
          1    1    1    2  502    0  0.11538489183E+03 -0.43074357502E+02 -0.37718102832E+03  0.39678029395E+03  0.00000000000E+00 0.  1.
         22    1    1    2    0    0 -0.12049777229E+03  0.15243471271E+02  0.33128513717E+03  0.35284829410E+03  0.00000000000E+00 0.  1.
         22    1    1    2    0    0  0.14915846986E+02 -0.16387767820E+02  0.72422198652E+01  0.23312897160E+02  0.00000000000E+00 0. -1.
</event>
<event>
 6    1  0.3624778E-005  0.8511152E+02  0.7818608E-02  0.1398957E+00
          2   -1    0    0  502    0  0.00000000000E+00  0.00000000000E+00  0.16306823784E+03  0.16306823784E+03  0.00000000000E+00 0.  1.
          1   -1    0    0  501    0 -0.00000000000E+00 -0.00000000000E+00 -0.87502304439E+02  0.87502304439E+02  0.00000000000E+00 0.  1.
          2    1    1    2  501    0 -0.32898537007E+02 -0.16588294451E+02 -0.16198333385E+02  0.40247624209E+02  0.00000000000E+00 0.  1.
          1    1    1    2  502    0  0.61740081111E+02 -0.26810736208E+01  0.15059476366E+02  0.63606710336E+02  0.00000000000E+00 0.  1.
         22    1    1    2    0    0  0.17674493320E+02 -0.10675561430E+02  0.87883688962E+02  0.90276786117E+02  0.00000000000E+00 0.  1.
         22    1    1    2    0    0 -0.46516037424E+02  0.29944929502E+02 -0.11178898538E+02  0.56439421622E+02  0.00000000000E+00 0.  1.
</event>
<event>
 6    1  0.3624778E-005  0.1091209E+03  0.7818608E-02  0.1313896E+00
          2   -1    0    0  502    0  0.00000000000E+00  0.00000000000E+00  0.35465654397E+03  0.35465654397E+03  0.00000000000E+00 0. -1.
          1   -1    0    0  501    0 -0.00000000000E+00 -0.00000000000E+00 -0.66577251946E+02  0.66577251946E+02  0.00000000000E+00 0.  1.
          2    1    1    2  501    0  0.41656904422E+02  0.25813851943E+02  0.73982889845E+02  0.88741876405E+02  0.00000000000E+00 0. -1.
          1    1    1    2  502    0 -0.87822856566E+02 -0.26032037781E+02  0.13284059372E+02  0.92558021586E+02  0.00000000000E+00 0.  1.
         22    1    1    2    0    0 -0.37139554768E+02  0.18069789058E+02  0.37743100231E+02  0.55950026095E+02  0.00000000000E+00 0.  1.
         22    1    1    2    0    0  0.83305506912E+02 -0.17851603220E+02  0.16306924257E+03  0.18398387183E+03  0.00000000000E+00 0. -1.
</event>
<event>
 6    1  0.3624778E-005  0.3624129E+02  0.7818608E-02  0.1546144E+00
          2   -1    0    0  502    0  0.00000000000E+00  0.00000000000E+00  0.50475000938E+03  0.50475000938E+03  0.00000000000E+00 0. -1.
          1   -1    0    0  501    0 -0.00000000000E+00 -0.00000000000E+00 -0.88180375877E+02  0.88180375877E+02  0.00000000000E+00 0. -1.
          2    1    1    2  501    0 -0.29138654877E+02  0.17376235101E+02 -0.41121247732E+02  0.53309959383E+02  0.00000000000E+00 0. -1.
          1    1    1    2  502    0  0.66551880126E+01 -0.31089911246E+02  0.38968575470E+03  0.39098064086E+03  0.00000000000E+00 0. -1.
         22    1    1    2    0    0 -0.95323817131E+01  0.17512458986E+02 -0.35233551742E+02  0.40484017701E+02  0.00000000000E+00 0.  1.
         22    1    1    2    0    0  0.32015848577E+02 -0.37987828411E+01  0.10323867827E+03  0.10815576731E+03  0.00000000000E+00 0.  1.
</event>
<event>
 6    1  0.3624778E-005  0.9926685E+02  0.7818608E-02  0.1283704E+00
          2   -1    0    0  502    0  0.00000000000E+00  0.00000000000E+00  0.16628383468E+03  0.16628383468E+03  0.00000000000E+00 0. -1.
          1   -1    0    0  501    0 -0.00000000000E+00 -0.00000000000E+00 -0.61531398046E+03  0.61531398046E+03  0.00000000000E+00 0.  1.
          2    1    1    2  501    0  0.30143425569E+02 -0.73933212699E+02  0.69286907547E+02  0.10571386665E+03  0.00000000000E+00 0. -1.
          1    1    1    2  502    0  0.73950592962E+01  0.64250544820E+02 -0.53643761058E+03  0.54032224594E+03  0.00000000000E+00 0.  1.
         22    1    1    2    0    0 -0.54066807242E+02  0.37171107911E+02 -0.34353345392E+02  0.74061212847E+02  0.00000000000E+00 0. -1.
         22    1    1    2    0    0  0.16528322377E+02 -0.27488440033E+02  0.52473902642E+02  0.61500489709E+02  0.00000000000E+00 0. -1.
</event>
<event>
 6    1  0.3624778E-005  0.9018619E+02  0.7818608E-02  0.1398854E+00
          2   -1    0    0  502    0  0.00000000000E+00  0.00000000000E+00  0.24029812863E+02  0.24029812863E+02  0.00000000000E+00 0.  1.
          1   -1    0    0  501    0 -0.00000000000E+00 -0.00000000000E+00 -0.11830423810E+04  0.11830423810E+04  0.00000000000E+00 0.  1.
          2    1    1    2  501    0 -0.15295827270E+02  0.36184534829E+02 -0.16398964356E+03  0.16862943423E+03  0.00000000000E+00 0.  1.
          1    1    1    2  502    0 -0.16836784237E+02 -0.17082235788E+02 -0.81380609100E+03  0.81415946462E+03  0.00000000000E+00 0.  1.
         22    1    1    2    0    0  0.33757179873E+02 -0.36409815745E+02 -0.19554863516E+03  0.20175353922E+03  0.00000000000E+00 0. -1.
         22    1    1    2    0    0 -0.16245683655E+01  0.17307516704E+02  0.14331801619E+02  0.22529755757E+02  0.00000000000E+00 0.  1.
</event>
<event>
 6    1  0.3624778E-005  0.1486384E+03  0.7818608E-02  0.1214103E+00
          2   -1    0    0  502    0  0.00000000000E+00  0.00000000000E+00  0.46789760294E+03  0.46789760294E+03  0.00000000000E+00 0. -1.
          1   -1    0    0  501    0 -0.00000000000E+00 -0.00000000000E+00 -0.14513529205E+03  0.14513529205E+03  0.00000000000E+00 0. -1.
          2    1    1    2  501    0 -0.11934005191E+03 -0.75074659338E+02 -0.17953320800E+01  0.14100168680E+03  0.00000000000E+00 0. -1.
          1    1    1    2  502    0  0.40298421929E+02  0.12611236944E+03  0.27549815262E+02  0.13523048790E+03  0.00000000000E+00 0. -1.
         22    1    1    2    0    0  0.91466013623E+02 -0.69833063041E+02  0.29180613247E+03  0.31367739366E+03  0.00000000000E+00 0. -1.
         22    1    1    2    0    0 -0.12424383643E+02  0.18795352934E+02  0.52016952354E+01  0.23123326624E+02  0.00000000000E+00 0.  1.
</event>
<event>
 6    1  0.3624778E-005  0.1295771E+03  0.7818608E-02  0.1282480E+00
          2   -1    0    0  502    0  0.00000000000E+00  0.00000000000E+00  0.31586385832E+03  0.31586385832E+03  0.00000000000E+00 0. -1.
          1   -1    0    0  501    0 -0.00000000000E+00 -0.00000000000E+00 -0.15820958269E+03  0.15820958269E+03  0.00000000000E+00 0. -1.
          2    1    1    2  501    0 -0.26649397764E+02  0.21403468095E+02  0.58658190894E+02  0.67890221731E+02  0.00000000000E+00 0. -1.
          1    1    1    2  502    0  0.10947679493E+03 -0.10606323564E+02 -0.10462719266E+03  0.15180419023E+03  0.00000000000E+00 0. -1.
         22    1    1    2    0    0 -0.84229595984E+02 -0.54871339404E+02  0.17496675807E+03  0.20178913538E+03  0.00000000000E+00 0. -1.
         22    1    1    2    0    0  0.14021988170E+01  0.44074194872E+02  0.28656519328E+02  0.52589893660E+02  0.00000000000E+00 0. -1.
</event>
<event>
 6    1  0.3624778E-005  0.6063738E+02  0.7818608E-02  0.1408037E+00
          2   -1    0    0  502    0  0.00000000000E+00  0.00000000000E+00  0.45205960472E+02  0.45205960472E+02  0.00000000000E+00 0. -1.
          1   -1    0    0  501    0 -0.00000000000E+00 -0.00000000000E+00 -0.22459903846E+04  0.22459903846E+04  0.00000000000E+00 0.  1.
          2    1    1    2  501    0 -0.12225496359E+02  0.22117341362E+02 -0.48954817080E+02  0.55092773260E+02  0.00000000000E+00 0. -1.
          1    1    1    2  502    0  0.22573251505E+02 -0.35310987143E+02 -0.20939269592E+04  0.20943463247E+04  0.00000000000E+00 0.  1.
         22    1    1    2    0    0  0.46809397412E+02  0.92069731892E+00  0.14207876657E+02  0.48926793566E+02  0.00000000000E+00 0. -1.
         22    1    1    2    0    0 -0.57157152558E+02  0.12272948462E+02 -0.72110524488E+02  0.92830453486E+02  0.00000000000E+00 0. -1.
</event>
<event>
 6    1  0.3624778E-005  0.2628492E+03  0.7818608E-02  0.1201791E+00
          2   -1    0    0  502    0  0.00000000000E+00  0.00000000000E+00  0.10044755466E+03  0.10044755466E+03  0.00000000000E+00 0. -1.
          1   -1    0    0  501    0 -0.00000000000E+00 -0.00000000000E+00 -0.11492438720E+04  0.11492438720E+04  0.00000000000E+00 0. -1.
          2    1    1    2  501    0  0.50146096021E+02 -0.39022089914E+02 -0.63257109871E+02  0.89659446779E+02  0.00000000000E+00 0. -1.
          1    1    1    2  502    0 -0.24957063455E+03  0.44515430887E+02 -0.84891979697E+03  0.88596385192E+03  0.00000000000E+00 0. -1.
         22    1    1    2    0    0 -0.25780911590E+01  0.26968631561E+02  0.16348244867E+01  0.27140860219E+02  0.00000000000E+00 0.  1.
         22    1    1    2    0    0  0.20200262969E+03 -0.32461972534E+02 -0.13825423495E+03  0.24692726772E+03  0.00000000000E+00 0. -1.
</event>
<event>
 6    1  0.3624778E-005  0.1010539E+03  0.7818608E-02  0.1281184E+00
          2   -1    0    0  502    0  0.00000000000E+00  0.00000000000E+00  0.57311969015E+03  0.57311969015E+03  0.00000000000E+00 0.  1.
          1   -1    0    0  501    0 -0.00000000000E+00 -0.00000000000E+00 -0.13096535330E+03  0.13096535330E+03  0.00000000000E+00 0. -1.
          2    1    1    2  501    0  0.14332711076E+03  0.14589047686E+02  0.15491470582E+03  0.21155157071E+03  0.00000000000E+00 0.  1.
          1    1    1    2  502    0 -0.82735927038E+02 -0.71187318234E+01 -0.70188971083E+02  0.10873086787E+03  0.00000000000E+00 0. -1.
         22    1    1    2    0    0  0.23127170168E+02  0.75167414642E+01  0.10304216417E+02  0.26411063556E+02  0.00000000000E+00 0.  1.
         22    1    1    2    0    0 -0.83718353887E+02 -0.14987057327E+02  0.34712438569E+03  0.35739154132E+03  0.00000000000E+00 0. -1.
</event>
<event>
 6    1  0.3624778E-005  0.8063357E+02  0.7818608E-02  0.1329413E+00
          2   -1    0    0  502    0  0.00000000000E+00  0.00000000000E+00  0.11179057969E+03  0.11179057969E+03  0.00000000000E+00 0. -1.
          1   -1    0    0  501    0 -0.00000000000E+00 -0.00000000000E+00 -0.53947510805E+03  0.53947510805E+03  0.00000000000E+00 0. -1.
          2    1    1    2  501    0 -0.34820628840E+02  0.39358655765E+02 -0.13203533835E+01  0.52567321689E+02  0.00000000000E+00 0. -1.
          1    1    1    2  502    0  0.46331676741E+01 -0.25954516375E+02 -0.46043650119E+03  0.46119071412E+03  0.00000000000E+00 0. -1.
         22    1    1    2    0    0 -0.21891913097E+02  0.37131455506E+02 -0.19497171153E+02  0.47308989949E+02  0.00000000000E+00 0. -1.
         22    1    1    2    0    0  0.52079374263E+02 -0.50535594896E+02  0.53569497366E+02  0.90198661981E+02  0.00000000000E+00 0. -1.
</event>
<event>
 6    1  0.3624778E-005  0.1508013E+03  0.7818608E-02  0.1202910E+00
          2   -1    0    0  502    0  0.00000000000E+00  0.00000000000E+00  0.80816061395E+03  0.80816061395E+03  0.00000000000E+00 0. -1.
          1   -1    0    0  501    0 -0.00000000000E+00 -0.00000000000E+00 -0.37970612098E+02  0.37970612098E+02  0.00000000000E+00 0.  1.
          2    1    1    2  501    0 -0.59007747135E+02  0.11294139243E+03  0.27986579713E+03  0.30751022219E+03  0.00000000000E+00 0. -1.
          1    1    1    2  502    0  0.25585887755E+02 -0.10705502329E+02  0.68328050020E+01  0.28564534943E+02  0.00000000000E+00 0.  1.
         22    1    1    2    0    0 -0.27659063593E+01  0.24611663445E+02  0.13870217114E+03  0.14089597757E+03  0.00000000000E+00 0.  1.
         22    1    1    2    0    0  0.36187765740E+02 -0.12684755355E+03  0.34478922858E+03  0.36916049135E+03  0.00000000000E+00 0.  1.
</event>
<event>
 6    1  0.3624778E-005  0.1608876E+03  0.7818608E-02  0.1308062E+00
          2   -1    0    0  502    0  0.00000000000E+00  0.00000000000E+00  0.17389502713E+03  0.17389502713E+03  0.00000000000E+00 0. -1.
          1   -1    0    0  501    0 -0.00000000000E+00 -0.00000000000E+00 -0.14425768401E+03  0.14425768401E+03  0.00000000000E+00 0.  1.
          2    1    1    2  501    0  0.64490852783E+02 -0.20523025792E+02  0.15545746578E+02  0.69440153492E+02  0.00000000000E+00 0. -1.
          1    1    1    2  502    0  0.15784979306E+02  0.24063928818E+02 -0.69896778600E+02  0.75589667948E+02  0.00000000000E+00 0.  1.
         22    1    1    2    0    0  0.14298802118E+02 -0.83639962361E+00  0.76924104921E+02  0.78246234570E+02  0.00000000000E+00 0. -1.
         22    1    1    2    0    0 -0.94574634207E+02 -0.27045034022E+01  0.70642702168E+01  0.94876655125E+02  0.00000000000E+00 0.  1.
</event>
<event>
 6    1  0.3624778E-005  0.2040029E+03  0.7818608E-02  0.1222941E+00
          2   -1    0    0  502    0  0.00000000000E+00  0.00000000000E+00  0.31352161632E+03  0.31352161632E+03  0.00000000000E+00 0. -1.
          1   -1    0    0  501    0 -0.00000000000E+00 -0.00000000000E+00 -0.60373132103E+03  0.60373132103E+03  0.00000000000E+00 0. -1.
          2    1    1    2  501    0 -0.84959861730E+02  0.40936956437E+02  0.10222056889E+03  0.13907931986E+03  0.00000000000E+00 0. -1.
          1    1    1    2  502    0  0.12615210547E+02 -0.12310955102E+03 -0.53974329440E+03  0.55374897647E+03  0.00000000000E+00 0. -1.
         22    1    1    2    0    0  0.60978757283E+02  0.11733693780E+03  0.11163604166E+03  0.17305771179E+03  0.00000000000E+00 0. -1.
         22    1    1    2    0    0  0.11365893899E+02 -0.35164343220E+02  0.35676979136E+02  0.51366929230E+02  0.00000000000E+00 0. -1.
</event>
<event>
 6    1  0.3624778E-005  0.1626722E+03  0.7818608E-02  0.1260440E+00
          2   -1    0    0  502    0  0.00000000000E+00  0.00000000000E+00  0.18391347785E+03  0.18391347785E+03  0.00000000000E+00 0.  1.
          1   -1    0    0  501    0 -0.00000000000E+00 -0.00000000000E+00 -0.24850964035E+03  0.24850964035E+03  0.00000000000E+00 0. -1.
          2    1    1    2  501    0  0.16702030970E+02 -0.12024066136E+02 -0.31661028973E+02  0.37761842653E+02  0.00000000000E+00 0.  1.
          1    1    1    2  502    0  0.63480179096E+02 -0.41665726492E+01 -0.17576925026E+03  0.18692758706E+03  0.00000000000E+00 0. -1.
         22    1    1    2    0    0  0.33816216421E+02 -0.43805035737E+01  0.42458245324E+02  0.54455742586E+02  0.00000000000E+00 0. -1.
         22    1    1    2    0    0 -0.11399842649E+03  0.20571142359E+02  0.10037587141E+03  0.15327794591E+03  0.00000000000E+00 0.  1.
</event>
<event>
 6    1  0.3624778E-005  0.1305964E+03  0.7818608E-02  0.1228617E+00
          2   -1    0    0  502    0  0.00000000000E+00  0.00000000000E+00  0.53778832842E+03  0.53778832842E+03  0.00000000000E+00 0. -1.
          1   -1    0    0  501    0 -0.00000000000E+00 -0.00000000000E+00 -0.72414274720E+02  0.72414274720E+02  0.00000000000E+00 0.  1.
          2    1    1    2  501    0  0.81044789283E+02 -0.79939581852E+02  0.25009669234E+03  0.27478528006E+03  0.00000000000E+00 0. -1.
          1    1    1    2  502    0 -0.50569883047E+02  0.10595742931E+02 -0.21058572685E+02  0.55794680062E+02  0.00000000000E+00 0.  1.
         22    1    1    2    0    0  0.18650556216E+02 -0.21608587964E+02  0.12281623978E+03  0.12608966284E+03  0.00000000000E+00 0.  1.
         22    1    1    2    0    0 -0.49125462452E+02  0.90952426885E+02  0.11351969426E+03  0.15353298018E+03  0.00000000000E+00 0. -1.
</event>
<event>
 6    1  0.3624778E-005  0.1227699E+03  0.7818608E-02  0.1245831E+00
          2   -1    0    0  502    0  0.00000000000E+00  0.00000000000E+00  0.45572219464E+03  0.45572219464E+03  0.00000000000E+00 0. -1.
          1   -1    0    0  501    0 -0.00000000000E+00 -0.00000000000E+00 -0.97217562482E+02  0.97217562482E+02  0.00000000000E+00 0. -1.
          2    1    1    2  501    0  0.71578894029E+02 -0.58299537153E+02  0.91106553653E+02  0.12970265310E+03  0.00000000000E+00 0. -1.
          1    1    1    2  502    0 -0.24679739680E+02  0.23888555369E+02 -0.60054170907E+02  0.69182772940E+02  0.00000000000E+00 0. -1.
         22    1    1    2    0    0  0.34911100642E+02 -0.14777228461E+02  0.11640242850E+03  0.12242008327E+03  0.00000000000E+00 0.  1.
         22    1    1    2    0    0 -0.81810254991E+02  0.49188210245E+02  0.21104982092E+03  0.23163424781E+03  0.00000000000E+00 0. -1.
</event>
<event>
 6    1  0.3624778E-005  0.7676824E+02  0.7818608E-02  0.1351989E+00
          2   -1    0    0  502    0  0.00000000000E+00  0.00000000000E+00  0.66060505674E+02  0.66060505674E+02  0.00000000000E+00 0.  1.
          1   -1    0    0  501    0 -0.00000000000E+00 -0.00000000000E+00 -0.50597017663E+03  0.50597017663E+03  0.00000000000E+00 0.  1.
          2    1    1    2  501    0  0.56267371836E+02 -0.46375866822E+02 -0.20644073342E+03  0.21893952264E+03  0.00000000000E+00 0.  1.
          1    1    1    2  502    0  0.85313786341E+01  0.48311955262E+02 -0.20450950969E+03  0.21031159977E+03  0.00000000000E+00 0.  1.
         22    1    1    2    0    0 -0.76267714598E+01 -0.21381521614E+02 -0.67449888134E+02  0.71167580531E+02  0.00000000000E+00 0.  1.
         22    1    1    2    0    0 -0.57171979010E+02  0.19445433175E+02  0.38490460292E+02  0.71611979367E+02  0.00000000000E+00 0.  1.
</event>
<event>
 6    1  0.3624778E-005  0.9944467E+02  0.7818608E-02  0.1287222E+00
          2   -1    0    0  502    0  0.00000000000E+00  0.00000000000E+00  0.24664895013E+03  0.24664895013E+03  0.00000000000E+00 0. -1.
          1   -1    0    0  501    0 -0.00000000000E+00 -0.00000000000E+00 -0.51311103945E+02  0.51311103945E+02  0.00000000000E+00 0. -1.
          2    1    1    2  501    0 -0.28006269889E+02  0.79575137046E+01  0.18509367442E+02  0.34500287833E+02  0.00000000000E+00 0. -1.
          1    1    1    2  502    0  0.48363383135E+02  0.34926229242E+02  0.47887609138E+02  0.76498898203E+02  0.00000000000E+00 0. -1.
         22    1    1    2    0    0 -0.31573768097E+02 -0.81688204906E+02  0.57115333791E+02  0.10455633413E+03  0.00000000000E+00 0. -1.
         22    1    1    2    0    0  0.11216654851E+02  0.38804461960E+02  0.71825535816E+02  0.82404533912E+02  0.00000000000E+00 0. -1.
</event>
<event>
 6    1  0.3624778E-005  0.1003213E+03  0.7818608E-02  0.1319699E+00
          2   -1    0    0  502    0  0.00000000000E+00  0.00000000000E+00  0.28371503428E+02  0.28371503428E+02  0.00000000000E+00 0. -1.
          1   -1    0    0  501    0 -0.00000000000E+00 -0.00000000000E+00 -0.54838577697E+03  0.54838577697E+03  0.00000000000E+00 0. -1.
          2    1    1    2  501    0  0.17612498378E+02 -0.31053632301E+02 -0.69583450300E+02  0.78207318927E+02  0.00000000000E+00 0. -1.
          1    1    1    2  502    0 -0.24488219241E+02  0.17660998869E+02 -0.30761431394E+03  0.30909246174E+03  0.00000000000E+00 0. -1.
         22    1    1    2    0    0  0.18590872299E+02  0.61578128003E+02 -0.11708371636E+03  0.13358923241E+03  0.00000000000E+00 0. -1.
         22    1    1    2    0    0 -0.11715151436E+02 -0.48185494571E+02 -0.25732792945E+02  0.55868267317E+02  0.00000000000E+00 0. -1.
</event>
<event>
 6    1  0.3624778E-005  0.1154535E+03  0.7818608E-02  0.1332874E+00
          2   -1    0    0  502    0  0.00000000000E+00  0.00000000000E+00  0.25188948078E+03  0.25188948078E+03  0.00000000000E+00 0. -1.
          1   -1    0    0  501    0 -0.00000000000E+00 -0.00000000000E+00 -0.21065728257E+03  0.21065728257E+03  0.00000000000E+00 0. -1.
          2    1    1    2  501    0  0.29742964348E+02  0.23999275731E+02  0.24504041450E+02  0.45398867950E+02  0.00000000000E+00 0. -1.
          1    1    1    2  502    0 -0.82739685124E+02 -0.40633107186E+02 -0.16698031883E+03  0.19073366711E+03  0.00000000000E+00 0. -1.
         22    1    1    2    0    0  0.72118442443E+02  0.70472635500E+00  0.18781850693E+03  0.20118985542E+03  0.00000000000E+00 0. -1.
         22    1    1    2    0    0 -0.19121721667E+02  0.15929105100E+02 -0.41100313404E+01  0.25224372865E+02  0.00000000000E+00 0. -1.
</event>
<event>
 6    1  0.3624778E-005  0.1650543E+03  0.7818608E-02  0.1302461E+00
          2   -1    0    0  502    0  0.00000000000E+00  0.00000000000E+00  0.19228859273E+03  0.19228859273E+03  0.00000000000E+00 0. -1.
          1   -1    0    0  501    0 -0.00000000000E+00 -0.00000000000E+00 -0.31912281947E+04  0.31912281947E+04  0.00000000000E+00 0.  1.
          2    1    1    2  501    0 -0.48515092970E+02 -0.19749853477E+02  0.23453128175E+02  0.57391812826E+02  0.00000000000E+00 0. -1.
          1    1    1    2  502    0  0.10114671047E+03  0.12104518773E+03 -0.31252738011E+04  0.31292521353E+04  0.00000000000E+00 0.  1.
         22    1    1    2    0    0 -0.67228815619E+02 -0.99593112834E+02  0.31811813580E+02  0.12430001310E+03  0.00000000000E+00 0. -1.
         22    1    1    2    0    0  0.14597198115E+02 -0.17022214225E+01  0.71069257402E+02  0.72572826170E+02  0.00000000000E+00 0. -1.
</event>
<event>
 6    1  0.3624778E-005  0.1281392E+03  0.7818608E-02  0.1264967E+00
          2   -1    0    0  502    0  0.00000000000E+00  0.00000000000E+00  0.47429263509E+03  0.47429263509E+03  0.00000000000E+00 0. -1.
          1   -1    0    0  501    0 -0.00000000000E+00 -0.00000000000E+00 -0.37365270644E+02  0.37365270644E+02  0.00000000000E+00 0. -1.
          2    1    1    2  501    0  0.50618388811E+02 -0.17477958678E+02  0.34259281126E+02  0.63571995947E+02  0.00000000000E+00 0. -1.
          1    1    1    2  502    0 -0.20992104228E+02  0.20029443671E+02  0.52530621399E+01  0.29486297080E+02  0.00000000000E+00 0. -1.
         22    1    1    2    0    0 -0.22080219519E+01  0.60445917339E+02  0.22530341166E+03  0.23328140001E+03  0.00000000000E+00 0. -1.
         22    1    1    2    0    0 -0.27418262631E+02 -0.62997402331E+02  0.17211160951E+03  0.18531821269E+03  0.00000000000E+00 0. -1.
</event>
<event>
 6    1  0.3624778E-005  0.6440076E+02  0.7818608E-02  0.1383945E+00
          2   -1    0    0  502    0  0.00000000000E+00  0.00000000000E+00  0.13695893693E+03  0.13695893693E+03  0.00000000000E+00 0.  1.
          1   -1    0    0  501    0 -0.00000000000E+00 -0.00000000000E+00 -0.24944716795E+03  0.24944716795E+03  0.00000000000E+00 0. -1.
          2    1    1    2  501    0 -0.32732534432E+02 -0.11517246398E+02  0.44589072465E+02  0.56500010250E+02  0.00000000000E+00 0.  1.
          1    1    1    2  502    0 -0.14298510458E+02  0.47772544172E+02 -0.18468273153E+03  0.19129656218E+03  0.00000000000E+00 0. -1.
         22    1    1    2    0    0 -0.18465479419E+02 -0.24682004494E+02  0.57845938597E+02  0.65546379673E+02  0.00000000000E+00 0.  1.
         22    1    1    2    0    0  0.65496524308E+02 -0.11573293279E+02 -0.30240510556E+02  0.73063152769E+02  0.00000000000E+00 0. -1.
</event>
<event>
 6    1  0.3624778E-005  0.1160294E+03  0.7818608E-02  0.1316997E+00
          2   -1    0    0  502    0  0.00000000000E+00  0.00000000000E+00  0.46337479872E+03  0.46337479872E+03  0.00000000000E+00 0.  1.
          1   -1    0    0  501    0 -0.00000000000E+00 -0.00000000000E+00 -0.47671721009E+02  0.47671721009E+02  0.00000000000E+00 0.  1.
          2    1    1    2  501    0  0.15171640034E+02 -0.30857781820E+02  0.73673727205E+02  0.81303133030E+02  0.00000000000E+00 0.  1.
          1    1    1    2  502    0 -0.35401713526E+02  0.96941465539E+02  0.79147896168E+02  0.13005890408E+03  0.00000000000E+00 0.  1.
         22    1    1    2    0    0  0.75674375640E+01 -0.96005635451E+02  0.12373539923E+03  0.15679539908E+03  0.00000000000E+00 0.  1.
         22    1    1    2    0    0  0.12662635927E+02  0.29921951732E+02  0.13914605511E+03  0.14288908354E+03  0.00000000000E+00 0.  1.
</event>
<event>
 6    1  0.3624778E-005  0.7457340E+02  0.7818608E-02  0.1402628E+00
          2   -1    0    0  502    0  0.00000000000E+00  0.00000000000E+00  0.14547602299E+03  0.14547602299E+03  0.00000000000E+00 0. -1.
          1   -1    0    0  501    0 -0.00000000000E+00 -0.00000000000E+00 -0.29115518086E+03  0.29115518086E+03  0.00000000000E+00 0. -1.
          2    1    1    2  501    0  0.30058485878E+02  0.11184397572E+02 -0.84975258202E+02  0.90826195720E+02  0.00000000000E+00 0. -1.
          1    1    1    2  502    0 -0.41046687241E+02 -0.19376385047E+02 -0.17207825254E+03  0.17796404083E+03  0.00000000000E+00 0. -1.
         22    1    1    2    0    0 -0.27310682119E+01  0.33702495263E+02 -0.15862429565E+02  0.37348809783E+02  0.00000000000E+00 0.  1.
         22    1    1    2    0    0  0.13719269574E+02 -0.25510507788E+02  0.12723678244E+03  0.13049215751E+03  0.00000000000E+00 0. -1.
</event>
<event>
 6    1  0.3624778E-005  0.1986065E+03  0.7818608E-02  0.1218877E+00
          2   -1    0    0  502    0  0.00000000000E+00  0.00000000000E+00  0.84997356782E+03  0.84997356782E+03  0.00000000000E+00 0. -1.
          1   -1    0    0  501    0 -0.00000000000E+00 -0.00000000000E+00 -0.61642356684E+03  0.61642356684E+03  0.00000000000E+00 0.  1.
          2    1    1    2  501    0  0.62754380019E+02  0.48552585616E+02  0.21748826028E+03  0.23150941480E+03  0.00000000000E+00 0. -1.
          1    1    1    2  502    0 -0.18195136399E+03 -0.64754631500E+02 -0.58143035797E+03  0.61266689345E+03  0.00000000000E+00 0.  1.
         22    1    1    2    0    0  0.15029355653E+02 -0.40940420629E+02  0.78483773605E+02  0.89786982864E+02  0.00000000000E+00 0. -1.
         22    1    1    2    0    0  0.10416762831E+03  0.57142466513E+02  0.51900832507E+03  0.53243384355E+03  0.00000000000E+00 0. -1.
</event>
<event>
 6    1  0.3624778E-005  0.8246395E+02  0.7818608E-02  0.1331878E+00
          2   -1    0    0  502    0  0.00000000000E+00  0.00000000000E+00  0.18952304099E+02  0.18952304099E+02  0.00000000000E+00 0. -1.
          1   -1    0    0  501    0 -0.00000000000E+00 -0.00000000000E+00 -0.16390001251E+04  0.16390001251E+04  0.00000000000E+00 0. -1.
          2    1    1    2  501    0  0.56982876514E+01 -0.22566809347E+02 -0.11827506898E+03  0.12054344988E+03  0.00000000000E+00 0. -1.
          1    1    1    2  502    0 -0.81944127049E+01  0.21131226106E+02 -0.13049966740E+04  0.13051934709E+04  0.00000000000E+00 0. -1.
         22    1    1    2    0    0  0.74608741417E+01 -0.60575404690E+02 -0.93865573482E+02  0.11196334303E+03  0.00000000000E+00 0. -1.
         22    1    1    2    0    0 -0.49647490882E+01  0.62010987931E+02 -0.10291050454E+03  0.12025216548E+03  0.00000000000E+00 0. -1.
</event>
<event>
 6    1  0.3624778E-005  0.7007131E+02  0.7818608E-02  0.1372722E+00
          2   -1    0    0  502    0  0.00000000000E+00  0.00000000000E+00  0.61442238704E+03  0.61442238704E+03  0.00000000000E+00 0.  1.
          1   -1    0    0  501    0 -0.00000000000E+00 -0.00000000000E+00 -0.20546446498E+02  0.20546446498E+02  0.00000000000E+00 0.  1.
          2    1    1    2  501    0  0.79702712960E+01  0.18825548708E+02  0.23260734548E+02  0.30967535911E+02  0.00000000000E+00 0.  1.
          1    1    1    2  502    0  0.24738135388E+01 -0.63422992112E+02  0.14778727623E+03  0.16084052567E+03  0.00000000000E+00 0.  1.
         22    1    1    2    0    0 -0.56401023256E+02  0.41756563697E+01  0.30690774421E+03  0.31207511113E+03  0.00000000000E+00 0. -1.
         22    1    1    2    0    0  0.45956938421E+02  0.40421787035E+02  0.11592018555E+03  0.13108566083E+03  0.00000000000E+00 0.  1.
</event>
<event>
 6    1  0.3624778E-005  0.2336797E+03  0.7818608E-02  0.1167446E+00
          2   -1    0    0  502    0  0.00000000000E+00  0.00000000000E+00  0.17805754193E+04  0.17805754193E+04  0.00000000000E+00 0.  1.
          1   -1    0    0  501    0 -0.00000000000E+00 -0.00000000000E+00 -0.46511279872E+02  0.46511279872E+02  0.00000000000E+00 0.  1.
          2    1    1    2  501    0 -0.56356130764E+02  0.94383876176E+01  0.78331199206E+00  0.57146392827E+02  0.00000000000E+00 0.  1.
          1    1    1    2  502    0  0.17571360537E+03 -0.24760196093E+02  0.99692549461E+03  0.10125950722E+04  0.00000000000E+00 0.  1.
         22    1    1    2    0    0 -0.44156639008E+02  0.70213132425E+02  0.38768522591E+03  0.39645873319E+03  0.00000000000E+00 0.  1.
         22    1    1    2    0    0 -0.75200835603E+02 -0.54891323949E+02  0.34867010692E+03  0.36088650097E+03  0.00000000000E+00 0.  1.
</event>
<event>
 6    1  0.3624778E-005  0.2305978E+03  0.7818608E-02  0.1256619E+00
          2   -1    0    0  502    0  0.00000000000E+00  0.00000000000E+00  0.23306618662E+03  0.23306618662E+03  0.00000000000E+00 0.  1.
          1   -1    0    0  501    0 -0.00000000000E+00 -0.00000000000E+00 -0.13277565302E+04  0.13277565302E+04  0.00000000000E+00 0. -1.
          2    1    1    2  501    0  0.28296177941E+02 -0.75879849580E+02  0.35638267535E+02  0.88478875283E+02  0.00000000000E+00 0.  1.
          1    1    1    2  502    0 -0.13960956360E+03  0.17069180338E+03 -0.12323594142E+04  0.12519330045E+04  0.00000000000E+00 0. -1.
         22    1    1    2    0    0 -0.10436303958E+02 -0.75934719293E+01  0.64817702678E+02  0.66090179578E+02  0.00000000000E+00 0.  1.
         22    1    1    2    0    0  0.12174968962E+03 -0.87218481870E+02  0.37213100347E+02  0.15432065753E+03  0.00000000000E+00 0.  1.
</event>
<event>
 6    1  0.3624778E-005  0.1318295E+03  0.7818608E-02  0.1255676E+00
          2   -1    0    0  502    0  0.00000000000E+00  0.00000000000E+00  0.77373370264E+03  0.77373370264E+03  0.00000000000E+00 0.  1.
          1   -1    0    0  501    0 -0.00000000000E+00 -0.00000000000E+00 -0.29284525687E+03  0.29284525687E+03  0.00000000000E+00 0. -1.
          2    1    1    2  501    0 -0.99006266468E+02  0.46725196775E+02  0.47934801575E+03  0.49169096496E+03  0.00000000000E+00 0.  1.
          1    1    1    2  502    0  0.11218957075E+03  0.23449743688E+02 -0.25457027791E+03  0.27918169112E+03  0.00000000000E+00 0. -1.
         22    1    1    2    0    0  0.45784278085E+02 -0.53449759476E+02  0.68003865954E+02  0.97865227187E+02  0.00000000000E+00 0.  1.
         22    1    1    2    0    0 -0.58967582369E+02 -0.16725180988E+02  0.18810684197E+03  0.19784107624E+03  0.00000000000E+00 0.  1.
</event>
<event>
 6    1  0.3624778E-005  0.9141078E+02  0.7818608E-02  0.1304955E+00
          2   -1    0    0  502    0  0.00000000000E+00  0.00000000000E+00  0.10727647524E+04  0.10727647524E+04  0.00000000000E+00 0.  1.
          1   -1    0    0  501    0 -0.00000000000E+00 -0.00000000000E+00 -0.13078810526E+02  0.13078810526E+02  0.00000000000E+00 0.  1.
          2    1    1    2  501    0 -0.45723750867E+02 -0.19834195261E+02  0.30146862771E+03  0.30556077986E+03  0.00000000000E+00 0.  1.
          1    1    1    2  502    0  0.26626854664E+02  0.41549448169E+02  0.14260426202E+03  0.15090169508E+03  0.00000000000E+00 0.  1.
         22    1    1    2    0    0  0.50322286928E+02  0.37606732186E+02  0.25795825045E+03  0.26549775487E+03  0.00000000000E+00 0.  1.
         22    1    1    2    0    0 -0.31225390725E+02 -0.59321985094E+02  0.35765480174E+03  0.36388333315E+03  0.00000000000E+00 0.  1.
</event>
<event>
 6    1  0.3624778E-005  0.1389306E+03  0.7818608E-02  0.1251791E+00
          2   -1    0    0  502    0  0.00000000000E+00  0.00000000000E+00  0.83334238956E+03  0.83334238956E+03  0.00000000000E+00 0.  1.
          1   -1    0    0  501    0 -0.00000000000E+00 -0.00000000000E+00 -0.19588645074E+02  0.19588645074E+02  0.00000000000E+00 0.  1.
          2    1    1    2  501    0  0.55592686894E+02 -0.24846229915E+02  0.26320900124E+03  0.27016080455E+03  0.00000000000E+00 0.  1.
          1    1    1    2  502    0 -0.18831697478E+02  0.11061034006E+02  0.28460103328E+03  0.28543778210E+03  0.00000000000E+00 0.  1.
         22    1    1    2    0    0 -0.36611502386E+02 -0.52527232980E+02  0.16013907469E+03  0.17246459217E+03  0.00000000000E+00 0.  1.
         22    1    1    2    0    0 -0.14948702927E+00  0.66312428889E+02  0.10580463527E+03  0.12486785582E+03  0.00000000000E+00 0.  1.
</event>
<event>
 6    1  0.3624778E-005  0.5564522E+02  0.7818608E-02  0.1472637E+00
          2   -1    0    0  502    0  0.00000000000E+00  0.00000000000E+00  0.92512488791E+02  0.92512488791E+02  0.00000000000E+00 0. -1.
          1   -1    0    0  501    0 -0.00000000000E+00 -0.00000000000E+00 -0.39605898086E+03  0.39605898086E+03  0.00000000000E+00 0. -1.
          2    1    1    2  501    0  0.20633495594E+02  0.23162787273E+02 -0.22591112527E+02  0.38374655958E+02  0.00000000000E+00 0. -1.
          1    1    1    2  502    0 -0.38496922295E+02  0.25759673661E+01 -0.31600608113E+03  0.31835277907E+03  0.00000000000E+00 0. -1.
         22    1    1    2    0    0 -0.20249715195E+02 -0.13585560304E+02  0.72840212699E+02  0.76813507928E+02  0.00000000000E+00 0. -1.
         22    1    1    2    0    0  0.38113141897E+02 -0.12153194335E+02 -0.37789511116E+02  0.55030526694E+02  0.00000000000E+00 0. -1.
</event>
<event>
 6    1  0.3624778E-005  0.2106489E+03  0.7818608E-02  0.1245898E+00
          2   -1    0    0  502    0  0.00000000000E+00  0.00000000000E+00  0.25710940568E+03  0.25710940568E+03  0.00000000000E+00 0. -1.
          1   -1    0    0  501    0 -0.00000000000E+00 -0.00000000000E+00 -0.19204556696E+03  0.19204556696E+03  0.00000000000E+00 0.  1.
          2    1    1    2  501    0  0.72516627738E+02 -0.51185333699E+02  0.29420980482E+01  0.88810222527E+02  0.00000000000E+00 0. -1.
          1    1    1    2  502    0 -0.29910881612E+02  0.14797780164E+03 -0.55619939710E+02  0.16089023684E+03  0.00000000000E+00 0.  1.
         22    1    1    2    0    0  0.20540041904E+02  0.42060051322E+01  0.66606725272E+02  0.69828644925E+02  0.00000000000E+00 0. -1.
         22    1    1    2    0    0 -0.63145788031E+02 -0.10099847307E+03  0.51134955112E+02  0.12962586834E+03  0.00000000000E+00 0. -1.
</event>
<event>
 6    1  0.3624778E-005  0.1807679E+03  0.7818608E-02  0.1222689E+00
          2   -1    0    0  502    0  0.00000000000E+00  0.00000000000E+00  0.11235008926E+04  0.11235008926E+04  0.00000000000E+00 0. -1.
          1   -1    0    0  501    0 -0.00000000000E+00 -0.00000000000E+00 -0.21736311975E+03  0.21736311975E+03  0.00000000000E+00 0. -1.
          2    1    1    2  501    0 -0.74836623874E+02  0.95154017885E+02 -0.15533595299E+03  0.19693670477E+03  0.00000000000E+00 0. -1.
          1    1    1    2  502    0  0.82310991781E+02 -0.18028607190E+03  0.90773416962E+03  0.92911758663E+03  0.00000000000E+00 0. -1.
         22    1    1    2    0    0 -0.27231811856E+02  0.35526178424E+02 -0.71149342807E+01  0.45324421896E+02  0.00000000000E+00 0. -1.
         22    1    1    2    0    0  0.19757443949E+02  0.49605875592E+02  0.16085449051E+03  0.16948529907E+03  0.00000000000E+00 0. -1.
</event>
<event>
 6    1  0.3624778E-005  0.9615436E+02  0.7818608E-02  0.1301726E+00
          2   -1    0    0  502    0  0.00000000000E+00  0.00000000000E+00  0.23776469676E+03  0.23776469676E+03  0.00000000000E+00 0. -1.
          1   -1    0    0  501    0 -0.00000000000E+00 -0.00000000000E+00 -0.20927240007E+03  0.20927240007E+03  0.00000000000E+00 0. -1.
          2    1    1    2  501    0  0.34089304704E+02  0.12468875423E+02  0.80223003715E+01  0.37174061559E+02  0.00000000000E+00 0. -1.
          1    1    1    2  502    0 -0.12788027069E+02 -0.63464813351E+02 -0.16681167944E+03  0.17893421296E+03  0.00000000000E+00 0. -1.
         22    1    1    2    0    0 -0.61939337556E+02  0.62483320618E+02  0.95222630900E+02  0.12964565680E+03  0.00000000000E+00 0. -1.
         22    1    1    2    0    0  0.40638059920E+02 -0.11487382690E+02  0.92059044859E+02  0.10128316551E+03  0.00000000000E+00 0. -1.
</event>
<event>
 6    1  0.3624778E-005  0.2969814E+03  0.7818608E-02  0.1225804E+00
          2   -1    0    0  502    0  0.00000000000E+00  0.00000000000E+00  0.88767461368E+02  0.88767461368E+02  0.00000000000E+00 0.  1.
          1   -1    0    0  501    0 -0.00000000000E+00 -0.00000000000E+00 -0.12865030162E+04  0.12865030162E+04  0.00000000000E+00 0. -1.
          2    1    1    2  501    0  0.19810926336E+02 -0.42830003998E+01 -0.23353297025E+02  0.30922376633E+02  0.00000000000E+00 0.  1.
          1    1    1    2  502    0 -0.12222181845E+03 -0.25506639564E+03 -0.86577639050E+03  0.91080502713E+03  0.00000000000E+00 0. -1.
         22    1    1    2    0    0  0.91850113906E+02  0.25537352227E+03 -0.31856514611E+03  0.41849233161E+03  0.00000000000E+00 0.  1.
         22    1    1    2    0    0  0.10560778206E+02  0.39758737687E+01  0.99592787590E+01  0.15050742239E+02  0.00000000000E+00 0. -1.
</event>
<event>
 6    1  0.3624778E-005  0.2032844E+03  0.7818608E-02  0.1151918E+00
          2   -1    0    0  502    0  0.00000000000E+00  0.00000000000E+00  0.13734603765E+04  0.13734603765E+04  0.00000000000E+00 0.  1.
          1   -1    0    0  501    0 -0.00000000000E+00 -0.00000000000E+00 -0.18036197478E+04  0.18036197478E+04  0.00000000000E+00 0. -1.
          2    1    1    2  501    0 -0.87380100655E+02  0.18898689977E+03  0.26597224715E+03  0.33777591170E+03  0.00000000000E+00 0.  1.
          1    1    1    2  502    0  0.57611318473E+02 -0.10839422269E+02 -0.17558567255E+04  0.17568350513E+04  0.00000000000E+00 0. -1.
         22    1    1    2    0    0  0.12267365644E+02 -0.93695394694E+00  0.57919309426E+01  0.13598257483E+02  0.00000000000E+00 0.  1.
         22    1    1    2    0    0  0.17501416538E+02 -0.17721052355E+03  0.10539331761E+04  0.10688709038E+04  0.00000000000E+00 0.  1.
</event>
<event>
 6    1  0.3624778E-005  0.2250861E+03  0.7818608E-02  0.1218136E+00
          2   -1    0    0  502    0  0.00000000000E+00  0.00000000000E+00  0.15445536362E+04  0.15445536362E+04  0.00000000000E+00 0.  1.
          1   -1    0    0  501    0 -0.00000000000E+00 -0.00000000000E+00 -0.38619566828E+02  0.38619566828E+02  0.00000000000E+00 0.  1.
          2    1    1    2  501    0 -0.18637694960E+02  0.19751703979E+03  0.90460823800E+03  0.92610820584E+03  0.00000000000E+00 0.  1.
          1    1    1    2  502    0  0.30974892642E+02 -0.87590190706E+02  0.30235870944E+03  0.31631040871E+03  0.00000000000E+00 0.  1.
         22    1    1    2    0    0 -0.39670028595E+02 -0.12330457258E+03  0.21007550215E+03  0.24679839017E+03  0.00000000000E+00 0.  1.
         22    1    1    2    0    0  0.27332830913E+02  0.13377723501E+02  0.88891619807E+02  0.93956198325E+02  0.00000000000E+00 0.  1.
</event>
<event>
 6    1  0.3624778E-005  0.1917642E+03  0.7818608E-02  0.1203592E+00
          2   -1    0    0  502    0  0.00000000000E+00  0.00000000000E+00  0.82305004499E+03  0.82305004499E+03  0.00000000000E+00 0.  1.
          1   -1    0    0  501    0 -0.00000000000E+00 -0.00000000000E+00 -0.15973118786E+03  0.15973118786E+03  0.00000000000E+00 0.  1.
          2    1    1    2  501    0  0.70298314611E+02 -0.91557659174E+02  0.28857236523E+03  0.31080326247E+03  0.00000000000E+00 0.  1.
          1    1    1    2  502    0 -0.76863143739E+02  0.20928023398E+01 -0.12596337710E+03  0.14757742055E+03  0.00000000000E+00 0.  1.
         22    1    1    2    0    0 -0.58437442114E+02  0.35807661869E+02  0.27660412425E+03  0.28496835761E+03  0.00000000000E+00 0.  1.
         22    1    1    2    0    0  0.65002271242E+02  0.53657194966E+02  0.22410574476E+03  0.23943219222E+03  0.00000000000E+00 0.  1.
</event>
<event>
 6    1  0.3624778E-005  0.1169255E+03  0.7818608E-02  0.1292176E+00
          2   -1    0    0  502    0  0.00000000000E+00  0.00000000000E+00  0.15755750217E+03  0.15755750217E+03  0.00000000000E+00 0. -1.
          1   -1    0    0  501    0 -0.00000000000E+00 -0.00000000000E+00 -0.15995869643E+03  0.15995869643E+03  0.00000000000E+00 0.  1.
          2    1    1    2  501    0  0.25768061339E+01  0.28301701211E+02 -0.27819584301E+02  0.39768775339E+02  0.00000000000E+00 0. -1.
          1    1    1    2  502    0 -0.39782922224E+02  0.75812479526E+01 -0.88659831031E+02  0.97471646440E+02  0.00000000000E+00 0.  1.
         22    1    1    2    0    0 -0.44905080592E+02 -0.10607096131E+02  0.69670353850E+02  0.83563957283E+02  0.00000000000E+00 0. -1.
         22    1    1    2    0    0  0.82111196682E+02 -0.25275853032E+02  0.44407867217E+02  0.96711819535E+02  0.00000000000E+00 0. -1.
</event>
<event>
 6    1  0.3624778E-005  0.1487057E+03  0.7818608E-02  0.1206115E+00
          2   -1    0    0  502    0  0.00000000000E+00  0.00000000000E+00  0.64896307665E+03  0.64896307665E+03  0.00000000000E+00 0. -1.
          1   -1    0    0  501    0 -0.00000000000E+00 -0.00000000000E+00 -0.17255326964E+03  0.17255326964E+03  0.00000000000E+00 0.  1.
          2    1    1    2  501    0  0.65195639883E+02  0.28265418595E+02  0.12551989997E+03  0.14423817330E+03  0.00000000000E+00 0. -1.
          1    1    1    2  502    0 -0.10842934404E+03  0.11277973447E+03 -0.10100873261E+03  0.18622286438E+03  0.00000000000E+00 0.  1.
         22    1    1    2    0    0  0.10968986538E+02 -0.15494487276E+03  0.34070366448E+03  0.37444254466E+03  0.00000000000E+00 0. -1.
         22    1    1    2    0    0  0.32264717618E+02  0.13899719694E+02  0.11119497518E+03  0.11661276395E+03  0.00000000000E+00 0. -1.
</event>
<event>
 6    1  0.3624778E-005  0.1721421E+03  0.7818608E-02  0.1179734E+00
          2   -1    0    0  502    0  0.00000000000E+00  0.00000000000E+00  0.11446565347E+04  0.11446565347E+04  0.00000000000E+00 0.  1.
          1   -1    0    0  501    0 -0.00000000000E+00 -0.00000000000E+00 -0.11214747622E+03  0.11214747622E+03  0.00000000000E+00 0.  1.
          2    1    1    2  501    0  0.18415182080E+03 -0.52041554612E+02  0.23748034804E+03  0.30498710172E+03  0.00000000000E+00 0.  1.
          1    1    1    2  502    0 -0.11038490776E+03 -0.47570468618E+02 -0.16213946820E+02  0.12128754848E+03  0.00000000000E+00 0.  1.
         22    1    1    2    0    0  0.25808700437E+02 -0.10967031298E+02  0.98223137773E+02  0.10214768518E+03  0.00000000000E+00 0. -1.
         22    1    1    2    0    0 -0.99575613482E+02  0.11057905453E+03  0.71301951951E+03  0.72838167557E+03  0.00000000000E+00 0.  1.
</event>
<event>
 6    1  0.3624778E-005  0.2094867E+03  0.7818608E-02  0.1280030E+00
          2   -1    0    0  502    0  0.00000000000E+00  0.00000000000E+00  0.12670164567E+03  0.12670164567E+03  0.00000000000E+00 0.  1.
          1   -1    0    0  501    0 -0.00000000000E+00 -0.00000000000E+00 -0.99102195470E+03  0.99102195470E+03  0.00000000000E+00 0.  1.
          2    1    1    2  501    0  0.70085462539E+01 -0.18771224437E+02  0.12807088680E+02  0.23780246170E+02  0.00000000000E+00 0.  1.
          1    1    1    2  502    0 -0.20571161727E+02  0.20026944738E+03 -0.84856907833E+03  0.87212413391E+03  0.00000000000E+00 0.  1.
         22    1    1    2    0    0  0.23519884501E+02 -0.17698396727E+03 -0.60141589925E+02  0.18839724116E+03  0.00000000000E+00 0.  1.
         22    1    1    2    0    0 -0.99572690281E+01 -0.45142556645E+01  0.31583270540E+02  0.33421979126E+02  0.00000000000E+00 0.  1.
</event>
<event>
 6    1  0.3624778E-005  0.9521507E+02  0.7818608E-02  0.1361734E+00
          2   -1    0    0  502    0  0.00000000000E+00  0.00000000000E+00  0.23255162312E+03  0.23255162312E+03  0.00000000000E+00 0.  1.
          1   -1    0    0  501    0 -0.00000000000E+00 -0.00000000000E+00 -0.22952911214E+03  0.22952911214E+03  0.00000000000E+00 0.  1.
          2    1    1    2  501    0  0.45616545528E+02  0.37067937953E+02  0.32207914850E+02  0.67024257019E+02  0.00000000000E+00 0.  1.
          1    1    1    2  502    0 -0.79912472412E+02 -0.16937889027E+02 -0.17724716089E+03  0.19516518997E+03  0.00000000000E+00 0.  1.
         22    1    1    2    0    0 -0.17381911818E+02 -0.20738061778E+02  0.14566216991E+03  0.14815419606E+03  0.00000000000E+00 0.  1.
         22    1    1    2    0    0  0.51677838702E+02  0.60801285109E+00  0.23995871117E+01  0.51737092214E+02  0.00000000000E+00 0.  1.
</event>
<event>
 6    1  0.3624778E-005  0.7041513E+02  0.7818608E-02  0.1409360E+00
          2   -1    0    0  502    0  0.00000000000E+00  0.00000000000E+00  0.44439805609E+02  0.44439805609E+02  0.00000000000E+00 0.  1.
          1   -1    0    0  501    0 -0.00000000000E+00 -0.00000000000E+00 -0.15923027722E+04  0.15923027722E+04  0.00000000000E+00 0. -1.
          2    1    1    2  501    0 -0.10577346983E+02  0.32207740166E+02 -0.41753507703E+02  0.53782657068E+02  0.00000000000E+00 0.  1.
          1    1    1    2  502    0  0.41388227693E+02 -0.51847442008E+02 -0.14227667993E+04  0.14243126440E+04  0.00000000000E+00 0. -1.
         22    1    1    2    0    0  0.74704050776E+01 -0.30040626508E+02  0.20646122588E+02  0.37208985083E+02  0.00000000000E+00 0.  1.
         22    1    1    2    0    0 -0.38281285788E+02  0.49680328350E+02 -0.10398878222E+03  0.12143829171E+03  0.00000000000E+00 0.  1.
</event>
<event>
 6    1  0.3624778E-005  0.1942169E+03  0.7818608E-02  0.1237922E+00
          2   -1    0    0  502    0  0.00000000000E+00  0.00000000000E+00  0.21616376588E+03  0.21616376588E+03  0.00000000000E+00 0. -1.
          1   -1    0    0  501    0 -0.00000000000E+00 -0.00000000000E+00 -0.12727529708E+04  0.12727529708E+04  0.00000000000E+00 0. -1.
          2    1    1    2  501    0  0.18804120015E+02  0.12585738888E+03 -0.48727349223E+02  0.13626456556E+03  0.00000000000E+00 0. -1.
          1    1    1    2  502    0  0.19811943876E+02 -0.19079084030E+03 -0.11382179255E+04  0.11542676049E+04  0.00000000000E+00 0. -1.
         22    1    1    2    0    0 -0.30909934888E+02  0.57444208123E+01  0.13490779721E+03  0.13852269198E+03  0.00000000000E+00 0. -1.
         22    1    1    2    0    0 -0.77061290032E+01  0.59189030600E+02 -0.45517274685E+01  0.59861874265E+02  0.00000000000E+00 0. -1.
</event>
<event>
 6    1  0.3624778E-005  0.1023704E+03  0.7818608E-02  0.1334020E+00
          2   -1    0    0  502    0  0.00000000000E+00  0.00000000000E+00  0.27889421898E+03  0.27889421898E+03  0.00000000000E+00 0.  1.
          1   -1    0    0  501    0 -0.00000000000E+00 -0.00000000000E+00 -0.28482796253E+03  0.28482796253E+03  0.00000000000E+00 0. -1.
          2    1    1    2  501    0  0.19109353884E+02 -0.13816583417E+02  0.28688837797E+02  0.37136434903E+02  0.00000000000E+00 0.  1.
          1    1    1    2  502    0 -0.90911349128E+02  0.33822158698E+02 -0.24827662351E+03  0.26655223429E+03  0.00000000000E+00 0. -1.
         22    1    1    2    0    0  0.10320835699E+03 -0.45769910382E+01  0.11127037186E+03  0.15183546836E+03  0.00000000000E+00 0.  1.
         22    1    1    2    0    0 -0.31406361742E+02 -0.15428584243E+02  0.10238367031E+03  0.10819804396E+03  0.00000000000E+00 0.  1.
</event>
<event>
 6    1  0.3624778E-005  0.1166102E+03  0.7818608E-02  0.1341890E+00
          2   -1    0    0  502    0  0.00000000000E+00  0.00000000000E+00  0.15295094574E+03  0.15295094574E+03  0.00000000000E+00 0. -1.
          1   -1    0    0  501    0 -0.00000000000E+00 -0.00000000000E+00 -0.19201740360E+03  0.19201740360E+03  0.00000000000E+00 0. -1.
          2    1    1    2  501    0 -0.24449058885E+02  0.23241031402E+02  0.41378147985E+02  0.53385889069E+02  0.00000000000E+00 0. -1.
          1    1    1    2  502    0 -0.13799318912E+01  0.23401848010E+02 -0.14142060689E+03  0.14335040550E+03  0.00000000000E+00 0. -1.
         22    1    1    2    0    0  0.46473551730E+02 -0.46275604896E+02 -0.16849929936E+02  0.67713682205E+02  0.00000000000E+00 0. -1.
         22    1    1    2    0    0 -0.20644560953E+02 -0.36727451550E+00  0.77825930983E+02  0.80518372568E+02  0.00000000000E+00 0. -1.
</event>
<event>
 6    1  0.3624778E-005  0.1072170E+03  0.7818608E-02  0.1389107E+00
          2   -1    0    0  502    0  0.00000000000E+00  0.00000000000E+00  0.30967283264E+02  0.30967283264E+02  0.00000000000E+00 0. -1.
          1   -1    0    0  501    0 -0.00000000000E+00 -0.00000000000E+00 -0.54994096428E+03  0.54994096428E+03  0.00000000000E+00 0. -1.
          2    1    1    2  501    0 -0.11699855470E+02  0.17483345971E+02 -0.59407556868E+02  0.63022312060E+02  0.00000000000E+00 0. -1.
          1    1    1    2  502    0 -0.59864703769E+02  0.21721199966E+02 -0.27146742794E+03  0.27883715268E+03  0.00000000000E+00 0. -1.
         22    1    1    2    0    0  0.72189502948E+02 -0.51277553202E+02 -0.20204228926E+03  0.22059419405E+03  0.00000000000E+00 0. -1.
         22    1    1    2    0    0 -0.62494370939E+00  0.12073007266E+02  0.13943593047E+02  0.18454588756E+02  0.00000000000E+00 0. -1.
</event>
<event>
 6    1  0.3624778E-005  0.8471575E+02  0.7818608E-02  0.1319442E+00
          2   -1    0    0  502    0  0.00000000000E+00  0.00000000000E+00  0.18454270533E+03  0.18454270533E+03  0.00000000000E+00 0. -1.
          1   -1    0    0  501    0 -0.00000000000E+00 -0.00000000000E+00 -0.75144339032E+03  0.75144339032E+03  0.00000000000E+00 0.  1.
          2    1    1    2  501    0  0.50595725333E+02 -0.51974829516E+02 -0.34132905024E+02  0.80164615202E+02  0.00000000000E+00 0. -1.
          1    1    1    2  502    0 -0.34820854539E+02 -0.10589609157E+02 -0.66166088694E+03  0.66266112082E+03  0.00000000000E+00 0.  1.
         22    1    1    2    0    0  0.26503515846E+01 -0.15339037148E+02 -0.19259166367E+02  0.24763398662E+02  0.00000000000E+00 0.  1.
         22    1    1    2    0    0 -0.18425222378E+02  0.77903475820E+02  0.14815227335E+03  0.16839696097E+03  0.00000000000E+00 0. -1.
</event>
<event>
 6    1  0.3714656E-005  0.4002107E+02  0.7818608E-02  0.1544516E+00
          2   -1    0    0  502    0  0.00000000000E+00  0.00000000000E+00  0.80016849353E+02  0.80016849353E+02  0.00000000000E+00 0. -1.
          1   -1    0    0  501    0 -0.00000000000E+00 -0.00000000000E+00 -0.53606998688E+03  0.53606998688E+03  0.00000000000E+00 0. -1.
          2    1    1    2  501    0  0.22990451960E+02  0.13524562114E+02 -0.34764471722E+03  0.34866649404E+03  0.00000000000E+00 0. -1.
          1    1    1    2  502    0  0.86874381513E+01 -0.18191631386E+02 -0.13564897189E+03  0.13713880053E+03  0.00000000000E+00 0. -1.
         22    1    1    2    0    0 -0.71495159038E+01  0.76443948683E+01 -0.49016438513E+02  0.50121488356E+02  0.00000000000E+00 0. -1.
         22    1    1    2    0    0 -0.24528374207E+02 -0.29773255964E+01  0.76256990091E+02  0.80160053310E+02  0.00000000000E+00 0. -1.
</event>
<event>
 6    1  0.3624778E-005  0.4967602E+03  0.7818608E-02  0.1152030E+00
          2   -1    0    0  502    0  0.00000000000E+00  0.00000000000E+00  0.32637854671E+03  0.32637854671E+03  0.00000000000E+00 0. -1.
          1   -1    0    0  501    0 -0.00000000000E+00 -0.00000000000E+00 -0.26606265004E+04  0.26606265004E+04  0.00000000000E+00 0.  1.
          2    1    1    2  501    0 -0.81065390076E+02 -0.38542125233E+03 -0.46369560705E+02  0.39657442602E+03  0.00000000000E+00 0. -1.
          1    1    1    2  502    0  0.16498117068E+03  0.44351472890E+03 -0.23646523815E+04  0.24115358149E+04  0.00000000000E+00 0.  1.
         22    1    1    2    0    0 -0.86707586843E+02 -0.70137584377E+02  0.11108262895E+02  0.11207533120E+03  0.00000000000E+00 0. -1.
         22    1    1    2    0    0  0.27918062396E+01  0.12044107798E+02  0.65665725607E+02  0.66819474962E+02  0.00000000000E+00 0. -1.
</event>
<event>
 6    1  0.4430594E-005  0.2712426E+03  0.7818608E-02  0.1223133E+00
          2   -1    0    0  502    0  0.00000000000E+00  0.00000000000E+00  0.61168279326E+03  0.61168279326E+03  0.00000000000E+00 0. -1.
          1   -1    0    0  501    0 -0.00000000000E+00 -0.00000000000E+00 -0.71078254388E+03  0.71078254388E+03  0.00000000000E+00 0. -1.
          2    1    1    2  501    0 -0.66353460959E+02  0.42008291886E+02  0.20959045499E+03  0.22382054685E+03  0.00000000000E+00 0. -1.
          1    1    1    2  502    0 -0.10588060997E+03 -0.77860644689E+01 -0.66962558745E+03  0.67798949382E+03  0.00000000000E+00 0. -1.
         22    1    1    2    0    0 -0.14469218769E+02  0.59880281036E+01  0.76256314526E+02  0.77847545096E+02  0.00000000000E+00 0.  1.
         22    1    1    2    0    0  0.18670328970E+03 -0.40210255520E+02  0.28467906731E+03  0.34280775137E+03  0.00000000000E+00 0. -1.
</event>
<event>
 6    1  0.3624778E-005  0.1089730E+03  0.7818608E-02  0.1282456E+00
          2   -1    0    0  502    0  0.00000000000E+00  0.00000000000E+00  0.19020535837E+03  0.19020535837E+03  0.00000000000E+00 0. -1.
          1   -1    0    0  501    0 -0.00000000000E+00 -0.00000000000E+00 -0.12377389104E+04  0.12377389104E+04  0.00000000000E+00 0.  1.
          2    1    1    2  501    0 -0.49911599946E+02 -0.31729131797E+02  0.29860039431E+02  0.66253509859E+02  0.00000000000E+00 0. -1.
          1    1    1    2  502    0  0.28520880087E+02 -0.10387409491E+01 -0.11903052171E+04  0.11906473153E+04  0.00000000000E+00 0.  1.
         22    1    1    2    0    0 -0.37742649732E+02  0.24530991038E+02  0.10041840284E+03  0.11004604835E+03  0.00000000000E+00 0. -1.
         22    1    1    2    0    0  0.59133369591E+02  0.82368817088E+01  0.12493222755E+02  0.60997395307E+02  0.00000000000E+00 0. -1.
</event>
<event>
 6    1  0.3624778E-005  0.1464185E+03  0.7818608E-02  0.1236518E+00
          2   -1    0    0  502    0  0.00000000000E+00  0.00000000000E+00  0.27819161015E+03  0.27819161015E+03  0.00000000000E+00 0. -1.
          1   -1    0    0  501    0 -0.00000000000E+00 -0.00000000000E+00 -0.11036397019E+04  0.11036397019E+04  0.00000000000E+00 0. -1.
          2    1    1    2  501    0  0.80168639015E+02  0.54213088190E+02  0.10015680740E+03  0.13927474890E+03  0.00000000000E+00 0. -1.
          1    1    1    2  502    0 -0.25740443113E+02 -0.42915481866E+02 -0.10519633411E+04  0.10531529708E+04  0.00000000000E+00 0. -1.
         22    1    1    2    0    0 -0.41528480922E+02  0.38270032605E+02  0.12611781346E+03  0.13818434425E+03  0.00000000000E+00 0. -1.
         22    1    1    2    0    0 -0.12899714979E+02 -0.49567638929E+02  0.24062841199E+00  0.51219248116E+02  0.00000000000E+00 0.  1.
</event>
<event>
 6    1  0.3624778E-005  0.5901949E+02  0.7818608E-02  0.1423453E+00
          2   -1    0    0  502    0  0.00000000000E+00  0.00000000000E+00  0.31116615780E+03  0.31116615780E+03  0.00000000000E+00 0. -1.
          1   -1    0    0  501    0 -0.00000000000E+00 -0.00000000000E+00 -0.54362880905E+02  0.54362880905E+02  0.00000000000E+00 0. -1.
          2    1    1    2  501    0 -0.16614002463E+01  0.33918093895E+02 -0.58449225062E+01  0.34458097211E+02  0.00000000000E+00 0. -1.
          1    1    1    2  502    0 -0.25757931349E+02 -0.24322683719E+02 -0.50312434663E+01  0.35782361318E+02  0.00000000000E+00 0. -1.
         22    1    1    2    0    0  0.28927183449E+02  0.31355899731E+02  0.25573607294E+02  0.49739157414E+02  0.00000000000E+00 0. -1.
         22    1    1    2    0    0 -0.15078518539E+01 -0.40951309907E+02  0.24210583557E+03  0.24554942276E+03  0.00000000000E+00 0. -1.
</event>
<event>
 6    1  0.3624778E-005  0.1790116E+03  0.7818608E-02  0.1222410E+00
          2   -1    0    0  502    0  0.00000000000E+00  0.00000000000E+00  0.36302088411E+02  0.36302088411E+02  0.00000000000E+00 0.  1.
          1   -1    0    0  501    0 -0.00000000000E+00 -0.00000000000E+00 -0.20608172071E+04  0.20608172071E+04  0.00000000000E+00 0.  1.
          2    1    1    2  501    0 -0.12988904348E+03 -0.36159084549E+02 -0.69997224568E+03  0.71283924396E+03  0.00000000000E+00 0.  1.
          1    1    1    2  502    0  0.14797119937E+03  0.66087333196E+02 -0.11705335046E+04  0.11816986489E+04  0.00000000000E+00 0.  1.
         22    1    1    2    0    0  0.25347641741E+02 -0.49154356952E+02 -0.17441222436E+02  0.57990085267E+02  0.00000000000E+00 0.  1.
         22    1    1    2    0    0 -0.43429797632E+02  0.19226108305E+02 -0.13656814591E+03  0.14459131730E+03  0.00000000000E+00 0.  1.
</event>
<event>
 6    1  0.3624778E-005  0.1136350E+03  0.7818608E-02  0.1315958E+00
          2   -1    0    0  502    0  0.00000000000E+00  0.00000000000E+00  0.20466842811E+03  0.20466842811E+03  0.00000000000E+00 0. -1.
          1   -1    0    0  501    0 -0.00000000000E+00 -0.00000000000E+00 -0.93351670815E+03  0.93351670815E+03  0.00000000000E+00 0. -1.
          2    1    1    2  501    0  0.25060144323E+02  0.13506531098E+01 -0.86417525098E+01  0.26542701139E+02  0.00000000000E+00 0. -1.
          1    1    1    2  502    0  0.18412584536E+02  0.42843338761E+02 -0.89028538074E+03  0.89150582393E+03  0.00000000000E+00 0. -1.
         22    1    1    2    0    0 -0.51561800357E+02 -0.78493168410E+02  0.79854159479E+02  0.12327401806E+03  0.00000000000E+00 0. -1.
         22    1    1    2    0    0  0.80890714979E+01  0.34299176539E+02  0.90224693733E+02  0.96862593131E+02  0.00000000000E+00 0. -1.
</event>
<event>
 6    1  0.3624778E-005  0.6878684E+02  0.7818608E-02  0.1364386E+00
          2   -1    0    0  502    0  0.00000000000E+00  0.00000000000E+00  0.23576225766E+03  0.23576225766E+03  0.00000000000E+00 0.  1.
          1   -1    0    0  501    0 -0.00000000000E+00 -0.00000000000E+00 -0.38605502319E+03  0.38605502319E+03  0.00000000000E+00 0. -1.
          2    1    1    2  501    0 -0.26193275192E+02 -0.98029959096E+01 -0.15389046010E+02  0.31921922423E+02  0.00000000000E+00 0.  1.
          1    1    1    2  502    0 -0.13155897070E+01  0.78404177911E+02 -0.33516913895E+03  0.34421983905E+03  0.00000000000E+00 0. -1.
         22    1    1    2    0    0 -0.17404469003E+02 -0.16680377542E+02 -0.87721744321E+01  0.25653490610E+02  0.00000000000E+00 0.  1.
         22    1    1    2    0    0  0.44913333902E+02 -0.51920804459E+02  0.20903759386E+03  0.22002202877E+03  0.00000000000E+00 0.  1.
</event>
<event>
 6    1  0.3624778E-005  0.3824591E+03  0.7818608E-02  0.1128662E+00
          2   -1    0    0  502    0  0.00000000000E+00  0.00000000000E+00  0.20574741581E+03  0.20574741581E+03  0.00000000000E+00 0.  1.
          1   -1    0    0  501    0 -0.00000000000E+00 -0.00000000000E+00 -0.92629100901E+03  0.92629100901E+03  0.00000000000E+00 0.  1.
          2    1    1    2  501    0  0.14080808222E+03  0.30136808191E+03 -0.29630141194E+03  0.44547072129E+03  0.00000000000E+00 0.  1.
          1    1    1    2  502    0 -0.15740603902E+03 -0.31834862846E+03 -0.42937559626E+03  0.55721262820E+03  0.00000000000E+00 0.  1.
         22    1    1    2    0    0 -0.25439521485E+02 -0.40217663912E+02  0.27459714321E+02  0.54942384864E+02  0.00000000000E+00 0. -1.
         22    1    1    2    0    0  0.42037478292E+02  0.57198210471E+02 -0.22326299329E+02  0.74412690477E+02  0.00000000000E+00 0. -1.
</event>
<event>
 6    1  0.3624778E-005  0.1064390E+03  0.7818608E-02  0.1271251E+00
          2   -1    0    0  502    0  0.00000000000E+00  0.00000000000E+00  0.24579758441E+03  0.24579758441E+03  0.00000000000E+00 0.  1.
          1   -1    0    0  501    0 -0.00000000000E+00 -0.00000000000E+00 -0.22683907495E+03  0.22683907495E+03  0.00000000000E+00 0.  1.
          2    1    1    2  501    0 -0.33551424509E+02  0.32539465225E+02 -0.63747422723E+01  0.47171519190E+02  0.00000000000E+00 0.  1.
          1    1    1    2  502    0 -0.28033631592E+02  0.28026042430E+01 -0.17500402397E+03  0.17725729180E+03  0.00000000000E+00 0.  1.
         22    1    1    2    0    0 -0.19304805116E+02  0.32287406282E+02  0.31081624698E+02  0.48797740715E+02  0.00000000000E+00 0.  1.
         22    1    1    2    0    0  0.80889861216E+02 -0.67629475750E+02  0.16925565101E+03  0.19941010765E+03  0.00000000000E+00 0.  1.
</event>
<event>
 6    1  0.3624778E-005  0.6729882E+02  0.7818608E-02  0.1386319E+00
          2   -1    0    0  502    0  0.00000000000E+00  0.00000000000E+00  0.30869837154E+02  0.30869837154E+02  0.00000000000E+00 0. -1.
          1   -1    0    0  501    0 -0.00000000000E+00 -0.00000000000E+00 -0.58864537819E+03  0.58864537819E+03  0.00000000000E+00 0. -1.
          2    1    1    2  501    0 -0.26051587899E+02 -0.18464725944E+02 -0.37199625174E+02  0.49024926816E+02  0.00000000000E+00 0. -1.
          1    1    1    2  502    0  0.11813161287E+02  0.59993920595E+02 -0.35362538294E+03  0.35887286433E+03  0.00000000000E+00 0. -1.
         22    1    1    2    0    0  0.51118117969E+02  0.11584675852E+01 -0.14010417162E+03  0.14914282731E+03  0.00000000000E+00 0.  1.
         22    1    1    2    0    0 -0.36879691357E+02 -0.42687662236E+02 -0.26846361293E+02  0.62474596889E+02  0.00000000000E+00 0. -1.
</event>
<event>
 6    1  0.3624778E-005  0.1294634E+03  0.7818608E-02  0.1231423E+00
          2   -1    0    0  502    0  0.00000000000E+00  0.00000000000E+00  0.67547253386E+03  0.67547253386E+03  0.00000000000E+00 0. -1.
          1   -1    0    0  501    0 -0.00000000000E+00 -0.00000000000E+00 -0.10489063647E+03  0.10489063647E+03  0.00000000000E+00 0. -1.
          2    1    1    2  501    0 -0.11245598259E+03 -0.27031287054E+02  0.32522819083E+03  0.34518171245E+03  0.00000000000E+00 0. -1.
          1    1    1    2  502    0  0.71962781631E+02 -0.25454037676E+02 -0.60222985931E+02  0.97228380674E+02  0.00000000000E+00 0. -1.
         22    1    1    2    0    0 -0.42375101702E+02  0.15763361432E+02  0.16173185597E+03  0.16793250443E+03  0.00000000000E+00 0.  1.
         22    1    1    2    0    0  0.82868302657E+02  0.36721963298E+02  0.14384483653E+03  0.17002057278E+03  0.00000000000E+00 0. -1.
</event>
<event>
 6    1  0.3624778E-005  0.2109624E+03  0.7818608E-02  0.1156166E+00
          2   -1    0    0  502    0  0.00000000000E+00  0.00000000000E+00  0.34999021196E+03  0.34999021196E+03  0.00000000000E+00 0. -1.
          1   -1    0    0  501    0 -0.00000000000E+00 -0.00000000000E+00 -0.29780325032E+03  0.29780325032E+03  0.00000000000E+00 0. -1.
          2    1    1    2  501    0  0.21912917442E+03  0.10440196527E+03 -0.55105612310E+01  0.24279153964E+03  0.00000000000E+00 0. -1.
          1    1    1    2  502    0 -0.10656102339E+03 -0.14991437865E+03 -0.63068640943E+02  0.19444080359E+03  0.00000000000E+00 0. -1.
         22    1    1    2    0    0 -0.13794301478E+03  0.49213381986E+02  0.10759432924E+03  0.18173269375E+03  0.00000000000E+00 0. -1.
         22    1    1    2    0    0  0.25374863754E+02 -0.37009686096E+01  0.13171834583E+02  0.28828425304E+02  0.00000000000E+00 0.  1.
</event>
<event>
 6    1  0.3624778E-005  0.7438128E+02  0.7818608E-02  0.1351774E+00
          2   -1    0    0  502    0  0.00000000000E+00  0.00000000000E+00  0.20153550830E+03  0.20153550830E+03  0.00000000000E+00 0.  1.
          1   -1    0    0  501    0 -0.00000000000E+00 -0.00000000000E+00 -0.30383189393E+03  0.30383189393E+03  0.00000000000E+00 0. -1.
          2    1    1    2  501    0 -0.25480442280E+02  0.98085006895E+00 -0.26510285474E+01  0.25636750145E+02  0.00000000000E+00 0.  1.
          1    1    1    2  502    0  0.49593677307E+02 -0.55435027964E+02 -0.25791524683E+03  0.26842661884E+03  0.00000000000E+00 0. -1.
         22    1    1    2    0    0 -0.42729035102E+02 -0.18218664996E+02  0.13700545951E+02  0.48429279928E+02  0.00000000000E+00 0.  1.
         22    1    1    2    0    0  0.18615800075E+02  0.72672842891E+02  0.14456934379E+03  0.16287475333E+03  0.00000000000E+00 0.  1.
</event>
<event>
 6    1  0.3624778E-005  0.4209782E+02  0.7818608E-02  0.1496035E+00
          2   -1    0    0  502    0  0.00000000000E+00  0.00000000000E+00  0.21211270766E+03  0.21211270766E+03  0.00000000000E+00 0. -1.
          1   -1    0    0  501    0 -0.00000000000E+00 -0.00000000000E+00 -0.66826529448E+02  0.66826529448E+02  0.00000000000E+00 0. -1.
          2    1    1    2  501    0  0.20604641208E+02 -0.50505922513E+01 -0.17599798054E+02  0.27564698673E+02  0.00000000000E+00 0. -1.
          1    1    1    2  502    0 -0.16181904248E+01  0.25686461905E+02  0.10990768119E+03  0.11288096053E+03  0.00000000000E+00 0. -1.
         22    1    1    2    0    0 -0.39128171694E+02 -0.11975410558E+02  0.88072141844E+02  0.97113986877E+02  0.00000000000E+00 0. -1.
         22    1    1    2    0    0  0.20141720911E+02 -0.86604590958E+01 -0.35093846766E+02  0.41379591030E+02  0.00000000000E+00 0. -1.
</event>
<event>
 6    1  0.3624778E-005  0.8790608E+02  0.7818608E-02  0.1314778E+00
          2   -1    0    0  502    0  0.00000000000E+00  0.00000000000E+00  0.19205179743E+03  0.19205179743E+03  0.00000000000E+00 0.  1.
          1   -1    0    0  501    0 -0.00000000000E+00 -0.00000000000E+00 -0.13054576221E+03  0.13054576221E+03  0.00000000000E+00 0.  1.
          2    1    1    2  501    0 -0.17148448175E+02 -0.29825090810E+02  0.39723313353E+01  0.34632134396E+02  0.00000000000E+00 0.  1.
          1    1    1    2  502    0 -0.27020107095E+01  0.25794112934E+02 -0.88171292201E+02  0.91906549779E+02  0.00000000000E+00 0.  1.
         22    1    1    2    0    0 -0.49971179384E+02 -0.23589293159E+02  0.50974878454E+02  0.75179862691E+02  0.00000000000E+00 0.  1.
         22    1    1    2    0    0  0.69821638268E+02  0.27620271035E+02  0.94730117629E+02  0.12087901277E+03  0.00000000000E+00 0.  1.
</event>
<event>
 6    1  0.3624778E-005  0.2243906E+03  0.7818608E-02  0.1210468E+00
          2   -1    0    0  502    0  0.00000000000E+00  0.00000000000E+00  0.17167243811E+03  0.17167243811E+03  0.00000000000E+00 0. -1.
          1   -1    0    0  501    0 -0.00000000000E+00 -0.00000000000E+00 -0.38035108703E+03  0.38035108703E+03  0.00000000000E+00 0. -1.
          2    1    1    2  501    0 -0.16236525610E+02  0.68355714356E+02 -0.91749611082E+02  0.11556002589E+03  0.00000000000E+00 0. -1.
          1    1    1    2  502    0  0.70479465156E+02 -0.17449238004E+03 -0.17356802317E+03  0.25600938336E+03  0.00000000000E+00 0. -1.
         22    1    1    2    0    0 -0.84970528564E+02  0.87119105759E+02  0.10928559386E+02  0.12218495293E+03  0.00000000000E+00 0. -1.
         22    1    1    2    0    0  0.30727589018E+02  0.19017559926E+02  0.45710425951E+02  0.58269162968E+02  0.00000000000E+00 0. -1.
</event>
<event>
 6    1  0.3624778E-005  0.9363906E+02  0.7818608E-02  0.1314919E+00
          2   -1    0    0  502    0  0.00000000000E+00  0.00000000000E+00  0.15861873754E+03  0.15861873754E+03  0.00000000000E+00 0. -1.
          1   -1    0    0  501    0 -0.00000000000E+00 -0.00000000000E+00 -0.18110091241E+03  0.18110091241E+03  0.00000000000E+00 0. -1.
          2    1    1    2  501    0 -0.17160833619E+02 -0.10526542112E+02 -0.44067557305E+02  0.48448445859E+02  0.00000000000E+00 0. -1.
          1    1    1    2  502    0 -0.33507358974E+02  0.80756646053E+02  0.89352143373E+02  0.12501273740E+03  0.00000000000E+00 0. -1.
         22    1    1    2    0    0  0.49829742343E+02  0.18391316335E+02 -0.55443573131E+02  0.76780424198E+02  0.00000000000E+00 0. -1.
         22    1    1    2    0    0  0.83845025009E+00 -0.88621420276E+02 -0.12323187812E+02  0.89478042494E+02  0.00000000000E+00 0. -1.
</event>
<event>
 6    1  0.3624778E-005  0.7916637E+02  0.7818608E-02  0.1417808E+00
          2   -1    0    0  502    0  0.00000000000E+00  0.00000000000E+00  0.68959217233E+02  0.68959217233E+02  0.00000000000E+00 0. -1.
          1   -1    0    0  501    0 -0.00000000000E+00 -0.00000000000E+00 -0.80559769414E+03  0.80559769414E+03  0.00000000000E+00 0. -1.
          2    1    1    2  501    0 -0.24781320201E+02  0.18141004825E+02 -0.20335489174E+02  0.36833978972E+02  0.00000000000E+00 0. -1.
          1    1    1    2  502    0  0.64841957290E+02 -0.39155150631E+02 -0.69517657823E+03  0.69929112690E+03  0.00000000000E+00 0. -1.
         22    1    1    2    0    0 -0.63878950375E+01 -0.18005844616E+02  0.48313867798E+02  0.51954263203E+02  0.00000000000E+00 0. -1.
         22    1    1    2    0    0 -0.33672742051E+02  0.39019990422E+02 -0.69440277307E+02  0.86477542300E+02  0.00000000000E+00 0. -1.
</event>
<event>
 6    1  0.3624778E-005  0.2422748E+03  0.7818608E-02  0.1222245E+00
          2   -1    0    0  502    0  0.00000000000E+00  0.00000000000E+00  0.25617971475E+03  0.25617971475E+03  0.00000000000E+00 0. -1.
          1   -1    0    0  501    0 -0.00000000000E+00 -0.00000000000E+00 -0.12113149312E+04  0.12113149312E+04  0.00000000000E+00 0. -1.
          2    1    1    2  501    0  0.14607262093E+03 -0.10806827132E+03  0.12982114192E+02  0.18216612512E+03  0.00000000000E+00 0. -1.
          1    1    1    2  502    0 -0.16595493919E+03  0.16894722704E+03 -0.10798361378E+04  0.11055000190E+04  0.00000000000E+00 0. -1.
         22    1    1    2    0    0  0.21215761766E+02 -0.38532357795E+02 -0.18485776319E+02  0.47713468441E+02  0.00000000000E+00 0. -1.
         22    1    1    2    0    0 -0.13334435077E+01 -0.22346597922E+02  0.13020458346E+03  0.13211503346E+03  0.00000000000E+00 0. -1.
</event>
<event>
 6    1  0.3624778E-005  0.2656428E+03  0.7818608E-02  0.1179148E+00
          2   -1    0    0  502    0  0.00000000000E+00  0.00000000000E+00  0.73601947908E+03  0.73601947908E+03  0.00000000000E+00 0.  1.
          1   -1    0    0  501    0 -0.00000000000E+00 -0.00000000000E+00 -0.20480484954E+03  0.20480484954E+03  0.00000000000E+00 0. -1.
          2    1    1    2  501    0  0.14739835344E+03  0.90697379683E+02  0.24232574466E+03  0.29778189301E+03  0.00000000000E+00 0.  1.
          1    1    1    2  502    0 -0.17212674720E+03 -0.13764456457E+03 -0.91687273951E+02  0.23870525646E+03  0.00000000000E+00 0. -1.
         22    1    1    2    0    0  0.12464294187E+02  0.88441728804E+02  0.29820129480E+03  0.31128975287E+03  0.00000000000E+00 0.  1.
         22    1    1    2    0    0  0.12264099567E+02 -0.41494543919E+02  0.82374864040E+02  0.93047426288E+02  0.00000000000E+00 0.  1.
</event>
<event>
 6    1  0.3624778E-005  0.1005835E+03  0.7818608E-02  0.1283258E+00
          2   -1    0    0  502    0  0.00000000000E+00  0.00000000000E+00  0.34567983358E+03  0.34567983358E+03  0.00000000000E+00 0.  1.
          1   -1    0    0  501    0 -0.00000000000E+00 -0.00000000000E+00 -0.14321277061E+04  0.14321277061E+04  0.00000000000E+00 0. -1.
          2    1    1    2  501    0 -0.33752550706E+02 -0.30609707294E+02  0.33806592297E+02  0.56736888728E+02  0.00000000000E+00 0.  1.
          1    1    1    2  502    0 -0.28567594404E+02 -0.24510866367E+01 -0.14036136977E+04  0.14039065238E+04  0.00000000000E+00 0. -1.
         22    1    1    2    0    0 -0.77507576038E+01 -0.40018592280E+02  0.70045044122E+02  0.81042397408E+02  0.00000000000E+00 0.  1.
         22    1    1    2    0    0  0.70070902713E+02  0.73079386211E+02  0.21331418878E+03  0.23612172969E+03  0.00000000000E+00 0.  1.
</event>
<event>
 6    1  0.3624778E-005  0.5618309E+02  0.7818608E-02  0.1424129E+00
          2   -1    0    0  502    0  0.00000000000E+00  0.00000000000E+00  0.20379024100E+03  0.20379024100E+03  0.00000000000E+00 0.  1.
          1   -1    0    0  501    0 -0.00000000000E+00 -0.00000000000E+00 -0.17859838167E+03  0.17859838167E+03  0.00000000000E+00 0.  1.
          2    1    1    2  501    0 -0.26873413470E+02 -0.52118561350E+01  0.84921939946E+02  0.89224882629E+02  0.00000000000E+00 0.  1.
          1    1    1    2  502    0 -0.55481615621E+01  0.20912113999E+02 -0.14040201208E+03  0.14205922569E+03  0.00000000000E+00 0.  1.
         22    1    1    2    0    0  0.42383482117E+02  0.12305641606E+02 -0.18290914905E+02  0.47773904380E+02  0.00000000000E+00 0.  1.
         22    1    1    2    0    0 -0.99619070854E+01 -0.28005899470E+02  0.98962846358E+02  0.10333060997E+03  0.00000000000E+00 0.  1.
</event>
<event>
 6    1  0.4776439E-005  0.9421817E+02  0.7818608E-02  0.1325876E+00
          2   -1    0    0  502    0  0.00000000000E+00  0.00000000000E+00  0.30955310013E+03  0.30955310013E+03  0.00000000000E+00 0. -1.
          1   -1    0    0  501    0 -0.00000000000E+00 -0.00000000000E+00 -0.10853204617E+03  0.10853204617E+03  0.00000000000E+00 0. -1.
          2    1    1    2  501    0  0.34878492113E+02 -0.39193838118E+02 -0.64045197853E+02  0.82791627152E+02  0.00000000000E+00 0. -1.
          1    1    1    2  502    0 -0.38349989440E+02  0.45333197166E+01  0.17659591931E+03  0.18076888945E+03  0.00000000000E+00 0. -1.
         22    1    1    2    0    0 -0.46402295588E+02  0.20673673094E+02  0.89279887985E+02  0.10272035920E+03  0.00000000000E+00 0. -1.
         22    1    1    2    0    0  0.49873792915E+02  0.13986845307E+02 -0.80955548050E+00  0.51804270494E+02  0.00000000000E+00 0.  1.
</event>
<event>
 6    1  0.3624778E-005  0.1500913E+03  0.7818608E-02  0.1206620E+00
          2   -1    0    0  502    0  0.00000000000E+00  0.00000000000E+00  0.58681580636E+03  0.58681580636E+03  0.00000000000E+00 0. -1.
          1   -1    0    0  501    0 -0.00000000000E+00 -0.00000000000E+00 -0.10889090216E+04  0.10889090216E+04  0.00000000000E+00 0.  1.
          2    1    1    2  501    0  0.13588847864E+03  0.13932919613E+03  0.32525890469E+02  0.19732267248E+03  0.00000000000E+00 0. -1.
          1    1    1    2  502    0 -0.42798759834E+02 -0.10527105109E+03 -0.99021239743E+03  0.99671175375E+03  0.00000000000E+00 0.  1.
         22    1    1    2    0    0  0.23315349611E+02  0.81263847547E+01  0.32271185735E+02  0.40633398644E+02  0.00000000000E+00 0.  1.
         22    1    1    2    0    0 -0.11640506842E+03 -0.42184529793E+02  0.42332210601E+03  0.44105700306E+03  0.00000000000E+00 0. -1.
</event>
<event>
 6    1  0.3624778E-005  0.3391248E+03  0.7818608E-02  0.1096017E+00
          2   -1    0    0  502    0  0.00000000000E+00  0.00000000000E+00  0.41619203001E+03  0.41619203001E+03  0.00000000000E+00 0. -1.
          1   -1    0    0  501    0 -0.00000000000E+00 -0.00000000000E+00 -0.14944130578E+04  0.14944130578E+04  0.00000000000E+00 0. -1.
          2    1    1    2  501    0 -0.11577166193E+03 -0.61819260234E+02  0.17615154238E+03  0.21966807808E+03  0.00000000000E+00 0. -1.
          1    1    1    2  502    0  0.21768059680E+03  0.25711476301E+03 -0.13699921332E+04  0.14108051915E+04  0.00000000000E+00 0. -1.
         22    1    1    2    0    0 -0.93382532991E+02 -0.12527607729E+03  0.14611715453E+02  0.15693277299E+03  0.00000000000E+00 0. -1.
         22    1    1    2    0    0 -0.85264018783E+01 -0.70019425488E+02  0.10100784753E+03  0.12319904520E+03  0.00000000000E+00 0. -1.
</event>
<event>
 6    1  0.3624778E-005  0.1785400E+03  0.7818608E-02  0.1204133E+00
          2   -1    0    0  502    0  0.00000000000E+00  0.00000000000E+00  0.44350694625E+03  0.44350694625E+03  0.00000000000E+00 0. -1.
          1   -1    0    0  501    0 -0.00000000000E+00 -0.00000000000E+00 -0.17470600385E+03  0.17470600385E+03  0.00000000000E+00 0. -1.
          2    1    1    2  501    0 -0.90931010305E+02 -0.39925459932E+02  0.23594598421E+02  0.10207446331E+03  0.00000000000E+00 0. -1.
          1    1    1    2  502    0  0.37416506450E+02  0.52564385765E+02 -0.11368782575E+03  0.13072081445E+03  0.00000000000E+00 0. -1.
         22    1    1    2    0    0  0.51054605279E+02 -0.67128695530E+02  0.24559443954E+03  0.25967183755E+03  0.00000000000E+00 0. -1.
         22    1    1    2    0    0  0.24598985766E+01  0.54489769697E+02  0.11329973020E+03  0.12574583479E+03  0.00000000000E+00 0.  1.
</event>
<event>
 6    1  0.3624778E-005  0.1561181E+03  0.7818608E-02  0.1279856E+00
          2   -1    0    0  502    0  0.00000000000E+00  0.00000000000E+00  0.19674347469E+03  0.19674347469E+03  0.00000000000E+00 0.  1.
          1   -1    0    0  501    0 -0.00000000000E+00 -0.00000000000E+00 -0.57354255240E+03  0.57354255240E+03  0.00000000000E+00 0.  1.
          2    1    1    2  501    0  0.38218834411E+02 -0.13516783246E+02 -0.36822899438E+02  0.54765944309E+02  0.00000000000E+00 0.  1.
          1    1    1    2  502    0 -0.65437152787E+02  0.10161163858E+03 -0.48786652020E+03  0.50261385536E+03  0.00000000000E+00 0.  1.
         22    1    1    2    0    0  0.71705992613E+00 -0.87899955572E+02  0.31249120281E+02  0.93292142664E+02  0.00000000000E+00 0.  1.
         22    1    1    2    0    0  0.26501258451E+02 -0.19489976451E+00  0.11664122165E+03  0.11961408476E+03  0.00000000000E+00 0.  1.
</event>
<event>
 6    1  0.3624778E-005  0.2745472E+03  0.7818608E-02  0.1180417E+00
          2   -1    0    0  502    0  0.00000000000E+00  0.00000000000E+00  0.34879187432E+03  0.34879187432E+03  0.00000000000E+00 0.  1.
          1   -1    0    0  501    0 -0.00000000000E+00 -0.00000000000E+00 -0.67742461575E+03  0.67742461575E+03  0.00000000000E+00 0.  1.
          2    1    1    2  501    0  0.16026268034E+02 -0.10770689980E+03 -0.79720125296E+01  0.10918411292E+03  0.00000000000E+00 0.  1.
          1    1    1    2  502    0 -0.84172814803E+02  0.70253864039E+02 -0.59549332588E+03  0.60550224552E+03  0.00000000000E+00 0.  1.
         22    1    1    2    0    0 -0.96958480949E+01 -0.36836600963E+02  0.88700086383E+02  0.96533154746E+02  0.00000000000E+00 0.  1.
         22    1    1    2    0    0  0.77842394863E+02  0.74289636719E+02  0.18613251060E+03  0.21499697688E+03  0.00000000000E+00 0.  1.
</event>
<event>
 6    1  0.3624778E-005  0.7096607E+02  0.7818608E-02  0.1420786E+00
          2   -1    0    0  502    0  0.00000000000E+00  0.00000000000E+00  0.86952851880E+02  0.86952851880E+02  0.00000000000E+00 0. -1.
          1   -1    0    0  501    0 -0.00000000000E+00 -0.00000000000E+00 -0.14439947573E+03  0.14439947573E+03  0.00000000000E+00 0. -1.
          2    1    1    2  501    0 -0.29025950465E+02 -0.31583357758E+02 -0.65431570351E+02  0.78238767157E+02  0.00000000000E+00 0. -1.
          1    1    1    2  502    0  0.17479862003E+02  0.22006716287E+02  0.61017261448E+01  0.28758862969E+02  0.00000000000E+00 0. -1.
         22    1    1    2    0    0 -0.42339908680E+01  0.29396287802E+02 -0.54764782464E+02  0.62299677476E+02  0.00000000000E+00 0. -1.
         22    1    1    2    0    0  0.15780079331E+02 -0.19819646331E+02  0.56648002821E+02  0.62055020006E+02  0.00000000000E+00 0. -1.
</event>
<event>
 6    1  0.3624778E-005  0.4807075E+02  0.7818608E-02  0.1464404E+00
          2   -1    0    0  502    0  0.00000000000E+00  0.00000000000E+00  0.26289363603E+03  0.26289363603E+03  0.00000000000E+00 0. -1.
          1   -1    0    0  501    0 -0.00000000000E+00 -0.00000000000E+00 -0.13371193334E+03  0.13371193334E+03  0.00000000000E+00 0. -1.
          2    1    1    2  501    0 -0.16884745147E+02  0.15135090592E+02 -0.89046727509E+02  0.91888439240E+02  0.00000000000E+00 0. -1.
          1    1    1    2  502    0  0.62973703280E+02 -0.42004813575E+02  0.10230250486E+03  0.12726309037E+03  0.00000000000E+00 0. -1.
         22    1    1    2    0    0  0.39714547785E+01  0.16698974764E+02 -0.23421849105E+02  0.29038099572E+02  0.00000000000E+00 0. -1.
         22    1    1    2    0    0 -0.50060412911E+02  0.10170748219E+02  0.13934777444E+03  0.14841594019E+03  0.00000000000E+00 0. -1.
</event>
<event>
 6    1  0.3624778E-005  0.2633024E+03  0.7818608E-02  0.1182341E+00
          2   -1    0    0  502    0  0.00000000000E+00  0.00000000000E+00  0.57289910482E+03  0.57289910482E+03  0.00000000000E+00 0. -1.
          1   -1    0    0  501    0 -0.00000000000E+00 -0.00000000000E+00 -0.64158430856E+03  0.64158430856E+03  0.00000000000E+00 0. -1.
          2    1    1    2  501    0  0.15083921814E+03  0.11242521413E+03  0.28458679047E+03  0.34114738723E+03  0.00000000000E+00 0. -1.
          1    1    1    2  502    0 -0.12226085908E+03 -0.49345008122E+02 -0.58579102847E+03  0.60044464901E+03  0.00000000000E+00 0. -1.
         22    1    1    2    0    0  0.53313853673E+01 -0.86759199019E+02  0.92676826713E+02  0.12706130998E+03  0.00000000000E+00 0.  1.
         22    1    1    2    0    0 -0.33909744423E+02  0.23678993011E+02  0.13984220754E+03  0.14583006716E+03  0.00000000000E+00 0. -1.
</event>
<event>
 6    1  0.3624778E-005  0.1047255E+03  0.7818608E-02  0.1292204E+00
          2   -1    0    0  502    0  0.00000000000E+00  0.00000000000E+00  0.25955229063E+03  0.25955229063E+03  0.00000000000E+00 0. -1.
          1   -1    0    0  501    0 -0.00000000000E+00 -0.00000000000E+00 -0.23974820416E+03  0.23974820416E+03  0.00000000000E+00 0. -1.
          2    1    1    2  501    0 -0.48659676709E+01  0.71932796939E+02  0.84540820583E+02  0.11110875421E+03  0.00000000000E+00 0. -1.
          1    1    1    2  502    0 -0.29898422067E+02 -0.41953437141E+02 -0.19613976031E+03  0.20279253464E+03  0.00000000000E+00 0. -1.
         22    1    1    2    0    0 -0.20455361900E+02  0.10851467350E+02 -0.12234043668E+02  0.26188699826E+02  0.00000000000E+00 0. -1.
         22    1    1    2    0    0  0.55219751638E+02 -0.40830827148E+02  0.14363706987E+03  0.15921050612E+03  0.00000000000E+00 0. -1.
</event>
<event>
 6    1  0.3624778E-005  0.6435186E+02  0.7818608E-02  0.1434362E+00
          2   -1    0    0  502    0  0.00000000000E+00  0.00000000000E+00  0.54380252318E+02  0.54380252318E+02  0.00000000000E+00 0.  1.
          1   -1    0    0  501    0 -0.00000000000E+00 -0.00000000000E+00 -0.34083620618E+03  0.34083620618E+03  0.00000000000E+00 0.  1.
          2    1    1    2  501    0  0.95735624671E+01 -0.22620335480E+02 -0.31926678434E+02  0.40282073821E+02  0.00000000000E+00 0.  1.
          1    1    1    2  502    0 -0.47164524266E+02  0.40708469813E+02 -0.20121067946E+03  0.21063572677E+03  0.00000000000E+00 0.  1.
         22    1    1    2    0    0  0.23014516381E+02  0.53915063510E+01 -0.92991567292E+02  0.95948777441E+02  0.00000000000E+00 0.  1.
         22    1    1    2    0    0  0.14576445418E+02 -0.23479640684E+02  0.39672971322E+02  0.48349880467E+02  0.00000000000E+00 0.  1.
</event>
<event>
 6    1  0.5803501E-005  0.8677417E+02  0.7818608E-02  0.1312152E+00
          2   -1    0    0  502    0  0.00000000000E+00  0.00000000000E+00  0.55371460892E+03  0.55371460892E+03  0.00000000000E+00 0. -1.
          1   -1    0    0  501    0 -0.00000000000E+00 -0.00000000000E+00 -0.30029861920E+03  0.30029861920E+03  0.00000000000E+00 0. -1.
          2    1    1    2  501    0 -0.32427012530E+02  0.52999010348E+02  0.48837976457E+02  0.79028818692E+02  0.00000000000E+00 0. -1.
          1    1    1    2  502    0 -0.25402318579E+02 -0.17540968250E+02 -0.27384704920E+03  0.27558151192E+03  0.00000000000E+00 0. -1.
         22    1    1    2    0    0  0.73080446993E+02 -0.46290009049E+02  0.47163400138E+03  0.47950197907E+03  0.00000000000E+00 0. -1.
         22    1    1    2    0    0 -0.15251115884E+02  0.10831966951E+02  0.67910610865E+01  0.19900918432E+02  0.00000000000E+00 0. -1.
</event>
<event>
 6    1  0.3624778E-005  0.1204889E+03  0.7818608E-02  0.1306246E+00
          2   -1    0    0  502    0  0.00000000000E+00  0.00000000000E+00  0.61298525221E+02  0.61298525221E+02  0.00000000000E+00 0. -1.
          1   -1    0    0  501    0 -0.00000000000E+00 -0.00000000000E+00 -0.18487418245E+04  0.18487418245E+04  0.00000000000E+00 0. -1.
          2    1    1    2  501    0  0.32574139288E+02 -0.22680559750E+02 -0.17146936563E+01  0.39729365906E+02  0.00000000000E+00 0. -1.
          1    1    1    2  502    0  0.22689914361E+02 -0.14996528571E+02 -0.17086052544E+04  0.17088217120E+04  0.00000000000E+00 0. -1.
         22    1    1    2    0    0 -0.30338262499E+02 -0.19332587782E+02  0.23652115835E+02  0.43053242680E+02  0.00000000000E+00 0. -1.
         22    1    1    2    0    0 -0.24925791150E+02  0.57009676103E+02 -0.10077546706E+03  0.11843602913E+03  0.00000000000E+00 0. -1.
</event>
<event>
 6    1  0.3624778E-005  0.7330025E+02  0.7818608E-02  0.1442496E+00
          2   -1    0    0  502    0  0.00000000000E+00  0.00000000000E+00  0.10461838751E+03  0.10461838751E+03  0.00000000000E+00 0.  1.
          1   -1    0    0  501    0 -0.00000000000E+00 -0.00000000000E+00 -0.15659612867E+03  0.15659612867E+03  0.00000000000E+00 0.  1.
          2    1    1    2  501    0  0.86003103618E+01 -0.19827176177E+02 -0.43549241265E+02  0.48617061493E+02  0.00000000000E+00 0.  1.
          1    1    1    2  502    0 -0.45657161164E+02  0.20946860609E+02 -0.57604694025E+02  0.76430675181E+02  0.00000000000E+00 0.  1.
         22    1    1    2    0    0 -0.15343645190E+02  0.62165048583E+01  0.75341694048E+02  0.77139116163E+02  0.00000000000E+00 0.  1.
         22    1    1    2    0    0  0.52400495992E+02 -0.73361892903E+01 -0.26165499925E+02  0.59027663344E+02  0.00000000000E+00 0.  1.
</event>
<event>
 6    1  0.4952363E-005  0.1555302E+03  0.7818608E-02  0.1250268E+00
          2   -1    0    0  502    0  0.00000000000E+00  0.00000000000E+00  0.18508077137E+03  0.18508077137E+03  0.00000000000E+00 0.  1.
          1   -1    0    0  501    0 -0.00000000000E+00 -0.00000000000E+00 -0.14423559940E+04  0.14423559940E+04  0.00000000000E+00 0. -1.
          2    1    1    2  501    0  0.20379195717E+02  0.12370014181E+02 -0.32340062137E+02  0.40177213542E+02  0.00000000000E+00 0.  1.
          1    1    1    2  502    0 -0.32224930625E+02 -0.11115345230E+02 -0.13836404027E+04  0.13840602447E+04  0.00000000000E+00 0. -1.
         22    1    1    2    0    0 -0.69517000283E+01 -0.51396520375E+02  0.13503315573E+03  0.14465089556E+03  0.00000000000E+00 0.  1.
         22    1    1    2    0    0  0.18797434937E+02  0.50141851423E+02  0.23672086433E+02  0.58548411596E+02  0.00000000000E+00 0.  1.
</event>
<event>
 6    1  0.3624778E-005  0.1737654E+03  0.7818608E-02  0.1175979E+00
          2   -1    0    0  502    0  0.00000000000E+00  0.00000000000E+00  0.58742971344E+03  0.58742971344E+03  0.00000000000E+00 0.  1.
          1   -1    0    0  501    0 -0.00000000000E+00 -0.00000000000E+00 -0.44794152394E+03  0.44794152394E+03  0.00000000000E+00 0.  1.
          2    1    1    2  501    0 -0.11650964625E+03  0.15662209192E+03  0.20326249585E+03  0.28181664174E+03  0.00000000000E+00 0.  1.
          1    1    1    2  502    0  0.28073955640E+02 -0.78341615674E+02 -0.38268763316E+03  0.39163168961E+03  0.00000000000E+00 0.  1.
         22    1    1    2    0    0 -0.74775664448E+01  0.27297818891E+02  0.59163275260E+02  0.65584891977E+02  0.00000000000E+00 0. -1.
         22    1    1    2    0    0  0.95913257055E+02 -0.10557829514E+03  0.25975005155E+03  0.29633801404E+03  0.00000000000E+00 0.  1.
</event>
<event>
 6    1  0.3624778E-005  0.5024216E+02  0.7818608E-02  0.1508998E+00
          2   -1    0    0  502    0  0.00000000000E+00  0.00000000000E+00  0.24296009080E+02  0.24296009080E+02  0.00000000000E+00 0. -1.
          1   -1    0    0  501    0 -0.00000000000E+00 -0.00000000000E+00 -0.17615383635E+04  0.17615383635E+04  0.00000000000E+00 0. -1.
          2    1    1    2  501    0 -0.23134486673E+02 -0.15737719187E+02 -0.72379138707E+02  0.77599097925E+02  0.00000000000E+00 0. -1.
          1    1    1    2  502    0  0.36970884131E+02  0.20040812069E+02 -0.14940380055E+04  0.14946297341E+04  0.00000000000E+00 0. -1.
         22    1    1    2    0    0  0.19785676023E+02  0.27127262924E+01  0.14782575787E+02  0.24846657855E+02  0.00000000000E+00 0. -1.
         22    1    1    2    0    0 -0.33622073481E+02 -0.70158191750E+01 -0.18560778607E+03  0.18875888269E+03  0.00000000000E+00 0. -1.
</event>
<event>
 6    1  0.3624778E-005  0.9246362E+02  0.7818608E-02  0.1298278E+00
          2   -1    0    0  502    0  0.00000000000E+00  0.00000000000E+00  0.85464310739E+02  0.85464310739E+02  0.00000000000E+00 0.  1.
          1   -1    0    0  501    0 -0.00000000000E+00 -0.00000000000E+00 -0.32551280572E+03  0.32551280572E+03  0.00000000000E+00 0. -1.
          2    1    1    2  501    0  0.55060908907E+02  0.14801829927E+01  0.30185838378E+02  0.62809867616E+02  0.00000000000E+00 0.  1.
          1    1    1    2  502    0  0.18354379969E+02 -0.13100221126E+02 -0.16373930056E+03  0.16528477729E+03  0.00000000000E+00 0. -1.
         22    1    1    2    0    0 -0.10506713409E+03  0.11372920707E+02 -0.10811751626E+03  0.15118810573E+03  0.00000000000E+00 0. -1.
         22    1    1    2    0    0  0.31651845212E+02  0.24711742630E+00  0.16224834586E+01  0.31694365823E+02  0.00000000000E+00 0.  1.
</event>
<event>
 6    1  0.3624778E-005  0.4854204E+02  0.7818608E-02  0.1491717E+00
          2   -1    0    0  502    0  0.00000000000E+00  0.00000000000E+00  0.34861439138E+02  0.34861439138E+02  0.00000000000E+00 0.  1.
          1   -1    0    0  501    0 -0.00000000000E+00 -0.00000000000E+00 -0.37761317950E+03  0.37761317950E+03  0.00000000000E+00 0.  1.
          2    1    1    2  501    0 -0.14150538472E+02  0.23587207019E+02 -0.85009094314E+02  0.89348420188E+02  0.00000000000E+00 0.  1.
          1    1    1    2  502    0  0.35691708116E+01 -0.26028224644E+02 -0.17288719659E+03  0.17487192514E+03  0.00000000000E+00 0.  1.
         22    1    1    2    0    0 -0.15778500242E+02 -0.22462324370E+02  0.22149232336E+02  0.35271880856E+02  0.00000000000E+00 0.  1.
         22    1    1    2    0    0  0.26359867902E+02  0.24903341996E+02 -0.10700468180E+03  0.11298239245E+03  0.00000000000E+00 0.  1.
</event>
<event>
 6    1  0.3624778E-005  0.3022421E+03  0.7818608E-02  0.1177367E+00
          2   -1    0    0  502    0  0.00000000000E+00  0.00000000000E+00  0.13519430092E+04  0.13519430092E+04  0.00000000000E+00 0. -1.
          1   -1    0    0  501    0 -0.00000000000E+00 -0.00000000000E+00 -0.71071546527E+02  0.71071546527E+02  0.00000000000E+00 0. -1.
          2    1    1    2  501    0 -0.70656514803E+02 -0.10551167456E+03  0.84352567549E+03  0.85303025841E+03  0.00000000000E+00 0. -1.
          1    1    1    2  502    0  0.22447967121E+02  0.18657815078E+03  0.13683228726E+03  0.23246159341E+03  0.00000000000E+00 0. -1.
         22    1    1    2    0    0  0.76937997111E+02 -0.70589450220E+02  0.14297052658E+03  0.17703925370E+03  0.00000000000E+00 0. -1.
         22    1    1    2    0    0 -0.28729449429E+02 -0.10477025996E+02  0.15754297333E+03  0.16048345019E+03  0.00000000000E+00 0.  1.
</event>
<event>
 6    1  0.3624778E-005  0.6034507E+02  0.7818608E-02  0.1397766E+00
          2   -1    0    0  502    0  0.00000000000E+00  0.00000000000E+00  0.19382522639E+03  0.19382522639E+03  0.00000000000E+00 0. -1.
          1   -1    0    0  501    0 -0.00000000000E+00 -0.00000000000E+00 -0.21278961278E+03  0.21278961278E+03  0.00000000000E+00 0. -1.
          2    1    1    2  501    0  0.63570927811E+02 -0.25925837122E+02 -0.16227041884E+03  0.17619619952E+03  0.00000000000E+00 0. -1.
          1    1    1    2  502    0 -0.15187355418E+02  0.35471822605E+02  0.69216938504E+02  0.79245760387E+02  0.00000000000E+00 0. -1.
         22    1    1    2    0    0  0.10070245159E+02 -0.98384038089E+01 -0.29241499741E+02  0.32454111206E+02  0.00000000000E+00 0. -1.
         22    1    1    2    0    0 -0.58453817552E+02  0.29241832658E+00  0.10333059369E+03  0.11871876805E+03  0.00000000000E+00 0. -1.
</event>
<event>
 6    1  0.3624778E-005  0.7273263E+02  0.7818608E-02  0.1360145E+00
          2   -1    0    0  502    0  0.00000000000E+00  0.00000000000E+00  0.17513582150E+03  0.17513582150E+03  0.00000000000E+00 0.  1.
          1   -1    0    0  501    0 -0.00000000000E+00 -0.00000000000E+00 -0.18791914940E+03  0.18791914940E+03  0.00000000000E+00 0.  1.
          2    1    1    2  501    0  0.40274118317E+02  0.53337754273E+01 -0.46816776442E+02  0.61986001024E+02  0.00000000000E+00 0.  1.
          1    1    1    2  502    0 -0.11943395380E+03  0.24961596254E+02 -0.49275992106E+02  0.13158903452E+03  0.00000000000E+00 0.  1.
         22    1    1    2    0    0  0.11681354970E+02  0.99265461079E+01 -0.28777312313E+02  0.32605583502E+02  0.00000000000E+00 0.  1.
         22    1    1    2    0    0  0.67478480517E+02 -0.40221917789E+02  0.11208675296E+03  0.13687435184E+03  0.00000000000E+00 0.  1.
</event>
<event>
 6    1  0.3624778E-005  0.4616095E+02  0.7818608E-02  0.1537314E+00
          2   -1    0    0  502    0  0.00000000000E+00  0.00000000000E+00  0.57665711006E+02  0.57665711006E+02  0.00000000000E+00 0.  1.
          1   -1    0    0  501    0 -0.00000000000E+00 -0.00000000000E+00 -0.55053354390E+03  0.55053354390E+03  0.00000000000E+00 0.  1.
          2    1    1    2  501    0  0.21194285141E+02  0.12155478316E+02 -0.25367624731E+03  0.25485013601E+03  0.00000000000E+00 0.  1.
          1    1    1    2  502    0 -0.24132588812E+02 -0.67984813414E+01 -0.22266840294E+03  0.22407547581E+03  0.00000000000E+00 0.  1.
         22    1    1    2    0    0  0.20107512073E+02 -0.94947359525E+01 -0.69741902302E+02  0.73201058663E+02  0.00000000000E+00 0.  1.
         22    1    1    2    0    0 -0.17169208402E+02  0.41377389775E+01  0.53218719662E+02  0.56072584419E+02  0.00000000000E+00 0.  1.
</event>
<event>
 6    1  0.3624778E-005  0.7715833E+02  0.7818608E-02  0.1348197E+00
          2   -1    0    0  502    0  0.00000000000E+00  0.00000000000E+00  0.25753732698E+03  0.25753732698E+03  0.00000000000E+00 0.  1.
          1   -1    0    0  501    0 -0.00000000000E+00 -0.00000000000E+00 -0.15186567764E+04  0.15186567764E+04  0.00000000000E+00 0. -1.
          2    1    1    2  501    0  0.36759902308E+02 -0.10333103377E+02  0.55056628985E+02  0.67002207712E+02  0.00000000000E+00 0.  1.
          1    1    1    2  502    0 -0.68091906089E+01 -0.26816038426E+02 -0.14887061602E+04  0.14889632287E+04  0.00000000000E+00 0. -1.
         22    1    1    2    0    0  0.17554744150E+02 -0.19442971211E+02  0.13469206781E+03  0.13721571084E+03  0.00000000000E+00 0. -1.
         22    1    1    2    0    0 -0.47505455849E+02  0.56592113013E+02  0.37838013957E+02  0.83012956163E+02  0.00000000000E+00 0.  1.
</event>
<event>
 6    1  0.3624778E-005  0.8627803E+02  0.7818608E-02  0.1314484E+00
          2   -1    0    0  502    0  0.00000000000E+00  0.00000000000E+00  0.20203820720E+02  0.20203820720E+02  0.00000000000E+00 0. -1.
          1   -1    0    0  501    0 -0.00000000000E+00 -0.00000000000E+00 -0.14058209011E+04  0.14058209011E+04  0.00000000000E+00 0.  1.
          2    1    1    2  501    0 -0.44775284042E+01 -0.42148149430E+02 -0.77484020339E+02  0.88319240083E+02  0.00000000000E+00 0. -1.
          1    1    1    2  502    0  0.32469464200E+02 -0.10533665219E+01 -0.99000382921E+03  0.99053670176E+03  0.00000000000E+00 0.  1.
         22    1    1    2    0    0 -0.54922597014E+01  0.81841438881E+02 -0.26665659284E+03  0.27898731967E+03  0.00000000000E+00 0.  1.
         22    1    1    2    0    0 -0.22499676095E+02 -0.38639922930E+02 -0.51472638036E+02  0.68181460345E+02  0.00000000000E+00 0. -1.
</event>
<event>
 6    1  0.3624778E-005  0.1520834E+03  0.7818608E-02  0.1262191E+00
          2   -1    0    0  502    0  0.00000000000E+00  0.00000000000E+00  0.17621896566E+03  0.17621896566E+03  0.00000000000E+00 0. -1.
          1   -1    0    0  501    0 -0.00000000000E+00 -0.00000000000E+00 -0.40349796434E+03  0.40349796434E+03  0.00000000000E+00 0.  1.
          2    1    1    2  501    0  0.81868157773E+01  0.83723096165E+02 -0.85114830396E+01  0.84551913802E+02  0.00000000000E+00 0. -1.
          1    1    1    2  502    0 -0.72188827212E+02 -0.69743024828E+02 -0.30959374215E+03  0.32545906266E+03  0.00000000000E+00 0.  1.
         22    1    1    2    0    0 -0.25987712058E+02 -0.30827782081E+02  0.61559542517E+02  0.73588658100E+02  0.00000000000E+00 0.  1.
         22    1    1    2    0    0  0.89989723493E+02  0.16847710744E+02  0.29266683994E+02  0.96117295445E+02  0.00000000000E+00 0. -1.
</event>
<event>
 6    1  0.3624778E-005  0.1764270E+03  0.7818608E-02  0.1298337E+00
          2   -1    0    0  502    0  0.00000000000E+00  0.00000000000E+00  0.18422389903E+03  0.18422389903E+03  0.00000000000E+00 0.  1.
          1   -1    0    0  501    0 -0.00000000000E+00 -0.00000000000E+00 -0.12304176689E+03  0.12304176689E+03  0.00000000000E+00 0. -1.
          2    1    1    2  501    0  0.63048332600E+02  0.12703583720E+02  0.84259969114E+02  0.10600101734E+03  0.00000000000E+00 0.  1.
          1    1    1    2  502    0 -0.18530135368E+02  0.34308568554E+02 -0.47529442338E+02  0.61477570560E+02  0.00000000000E+00 0. -1.
         22    1    1    2    0    0 -0.21867329696E+01  0.12797918468E+02  0.57828930526E+02  0.59268488457E+02  0.00000000000E+00 0.  1.
         22    1    1    2    0    0 -0.42331464262E+02 -0.59810070742E+02 -0.33377325165E+02  0.80518589555E+02  0.00000000000E+00 0. -1.
</event>
<event>
 6    1  0.3624778E-005  0.1995241E+03  0.7818608E-02  0.1236968E+00
          2   -1    0    0  502    0  0.00000000000E+00  0.00000000000E+00  0.15913701794E+03  0.15913701794E+03  0.00000000000E+00 0. -1.
          1   -1    0    0  501    0 -0.00000000000E+00 -0.00000000000E+00 -0.29215828995E+03  0.29215828995E+03  0.00000000000E+00 0. -1.
          2    1    1    2  501    0  0.13134677049E+02 -0.96725826592E+02 -0.25637833399E+01  0.97647213253E+02  0.00000000000E+00 0. -1.
          1    1    1    2  502    0 -0.41569486005E+02  0.29042114472E+02 -0.18996296136E+03  0.19661483482E+03  0.00000000000E+00 0. -1.
         22    1    1    2    0    0  0.85643191245E+01 -0.28298484971E+02  0.50609554289E+02  0.58612957604E+02  0.00000000000E+00 0. -1.
         22    1    1    2    0    0  0.19870489832E+02  0.95982197091E+02  0.88959184070E+01  0.98420302219E+02  0.00000000000E+00 0. -1.
</event>
<event>
 6    1  0.3624778E-005  0.5755550E+02  0.7818608E-02  0.1412520E+00
          2   -1    0    0  502    0  0.00000000000E+00  0.00000000000E+00  0.20350324178E+03  0.20350324178E+03  0.00000000000E+00 0.  1.
          1   -1    0    0  501    0 -0.00000000000E+00 -0.00000000000E+00 -0.89846939261E+02  0.89846939261E+02  0.00000000000E+00 0.  1.
          2    1    1    2  501    0 -0.25721643372E+02 -0.14161562637E+02 -0.74038228062E+01  0.30281502377E+02  0.00000000000E+00 0.  1.
          1    1    1    2  502    0  0.31339947424E+02 -0.11544601151E+02 -0.44098518703E+02  0.55318617771E+02  0.00000000000E+00 0.  1.
         22    1    1    2    0    0  0.36502392740E+02  0.37589002017E+02  0.15387923472E+03  0.16255514949E+03  0.00000000000E+00 0.  1.
         22    1    1    2    0    0 -0.42120696792E+02 -0.11882838229E+02  0.11279409314E+02  0.45194911407E+02  0.00000000000E+00 0.  1.
</event>
<event>
 6    1  0.3624778E-005  0.3565788E+03  0.7818608E-02  0.1109443E+00
          2   -1    0    0  502    0  0.00000000000E+00  0.00000000000E+00  0.52231758100E+03  0.52231758100E+03  0.00000000000E+00 0. -1.
          1   -1    0    0  501    0 -0.00000000000E+00 -0.00000000000E+00 -0.38560667680E+03  0.38560667680E+03  0.00000000000E+00 0. -1.
          2    1    1    2  501    0 -0.18804344330E+03  0.20718302464E+03 -0.18010915729E+01  0.27980061865E+03  0.00000000000E+00 0. -1.
          1    1    1    2  502    0  0.23881832963E+03 -0.29246348324E+03 -0.49190417389E+02  0.38077392342E+03  0.00000000000E+00 0. -1.
         22    1    1    2    0    0  0.24165878092E+02  0.26830028432E+02 -0.93757020839E+00  0.36120895996E+02  0.00000000000E+00 0. -1.
         22    1    1    2    0    0 -0.74940764423E+02  0.58450430164E+02  0.18863998337E+03  0.21122881973E+03  0.00000000000E+00 0. -1.
</event>
<event>
 6    1  0.3624778E-005  0.7346937E+02  0.7818608E-02  0.1350081E+00
          2   -1    0    0  502    0  0.00000000000E+00  0.00000000000E+00  0.26478947298E+03  0.26478947298E+03  0.00000000000E+00 0.  1.
          1   -1    0    0  501    0 -0.00000000000E+00 -0.00000000000E+00 -0.88024692821E+02  0.88024692821E+02  0.00000000000E+00 0. -1.
          2    1    1    2  501    0  0.29195644145E+02  0.50326441619E+02  0.18259956513E+03  0.19164482135E+03  0.00000000000E+00 0.  1.
          1    1    1    2  502    0 -0.28312034994E+01 -0.21174546279E+02 -0.23352911013E+02  0.31650206574E+02  0.00000000000E+00 0. -1.
         22    1    1    2    0    0  0.14544660617E+02  0.87349971921E+01  0.58119306440E+02  0.60545033731E+02  0.00000000000E+00 0.  1.
         22    1    1    2    0    0 -0.40909101262E+02 -0.37886892532E+02 -0.40601180407E+02  0.68974104142E+02  0.00000000000E+00 0. -1.
</event>
<event>
 6    1  0.3624778E-005  0.2039173E+03  0.7818608E-02  0.1279623E+00
          2   -1    0    0  502    0  0.00000000000E+00  0.00000000000E+00  0.58884096674E+02  0.58884096674E+02  0.00000000000E+00 0. -1.
          1   -1    0    0  501    0 -0.00000000000E+00 -0.00000000000E+00 -0.56441917016E+03  0.56441917016E+03  0.00000000000E+00 0. -1.
          2    1    1    2  501    0  0.21539840787E+02  0.63315346659E+02 -0.32337211946E+03  0.33021557429E+03  0.00000000000E+00 0. -1.
          1    1    1    2  502    0 -0.16655705246E+02  0.20915597348E+02 -0.12896891946E+03  0.13171126343E+03  0.00000000000E+00 0. -1.
         22    1    1    2    0    0  0.12555140541E+01 -0.94477833234E+02 -0.85191947660E+02  0.12722148103E+03  0.00000000000E+00 0. -1.
         22    1    1    2    0    0 -0.61396495950E+01  0.10246889227E+02  0.31997913092E+02  0.34154948078E+02  0.00000000000E+00 0. -1.
</event>
<event>
 6    1  0.3624778E-005  0.3958165E+03  0.7818608E-02  0.1156207E+00
          2   -1    0    0  502    0  0.00000000000E+00  0.00000000000E+00  0.11620027265E+03  0.11620027265E+03  0.00000000000E+00 0.  1.
          1   -1    0    0  501    0 -0.00000000000E+00 -0.00000000000E+00 -0.72569449877E+03  0.72569449877E+03  0.00000000000E+00 0.  1.
          2    1    1    2  501    0  0.16268853877E+03  0.18519945361E+02 -0.29251536007E+03  0.33522497654E+03  0.00000000000E+00 0.  1.
          1    1    1    2  502    0 -0.18234164587E+02 -0.23416198021E+02 -0.31569297278E+03  0.31708493523E+03  0.00000000000E+00 0.  1.
         22    1    1    2    0    0  0.19050800588E+02 -0.11305929776E+02  0.11165495732E+02  0.24807767858E+02  0.00000000000E+00 0. -1.
         22    1    1    2    0    0 -0.16350517477E+03  0.16202182436E+02 -0.12451389001E+02  0.16477709179E+03  0.00000000000E+00 0.  1.
</event>
<event>
 6    1  0.3624778E-005  0.7586521E+02  0.7818608E-02  0.1467641E+00
          2   -1    0    0  502    0  0.00000000000E+00  0.00000000000E+00  0.24102877555E+02  0.24102877555E+02  0.00000000000E+00 0. -1.
          1   -1    0    0  501    0 -0.00000000000E+00 -0.00000000000E+00 -0.95384607599E+03  0.95384607599E+03  0.00000000000E+00 0.  1.
          2    1    1    2  501    0  0.24403722947E+02 -0.56718271390E+01 -0.52728787571E+02  0.58378389456E+02  0.00000000000E+00 0. -1.
          1    1    1    2  502    0  0.21677275694E+02 -0.10481949654E+02 -0.68545647102E+03  0.68587925265E+03  0.00000000000E+00 0.  1.
         22    1    1    2    0    0 -0.39816372166E+02  0.24374823496E+02 -0.20859979555E+03  0.21376002951E+03  0.00000000000E+00 0. -1.
         22    1    1    2    0    0 -0.62646264750E+01 -0.82210467031E+01  0.17041855702E+02  0.19931281934E+02  0.00000000000E+00 0. -1.
</event>
<event>
 6    1  0.3624778E-005  0.9722546E+02  0.7818608E-02  0.1297522E+00
          2   -1    0    0  502    0  0.00000000000E+00  0.00000000000E+00  0.36201781020E+03  0.36201781020E+03  0.00000000000E+00 0. -1.
          1   -1    0    0  501    0 -0.00000000000E+00 -0.00000000000E+00 -0.92941187109E+02  0.92941187109E+02  0.00000000000E+00 0. -1.
          2    1    1    2  501    0  0.24182264532E+01  0.21836851647E+02 -0.23388954023E+02  0.32089547821E+02  0.00000000000E+00 0. -1.
          1    1    1    2  502    0 -0.60745736683E+02 -0.11887040364E+03  0.13873249838E+03  0.19252772136E+03  0.00000000000E+00 0. -1.
         22    1    1    2    0    0 -0.11263654055E+02  0.60157517079E+02  0.42132196303E+01  0.61347762660E+02  0.00000000000E+00 0. -1.
         22    1    1    2    0    0  0.69591164284E+02  0.36876034913E+02  0.14951985910E+03  0.16899396547E+03  0.00000000000E+00 0. -1.
</event>
<event>
 6    1  0.3624778E-005  0.1513697E+03  0.7818608E-02  0.1320671E+00
          2   -1    0    0  502    0  0.00000000000E+00  0.00000000000E+00  0.72325356368E+02  0.72325356368E+02  0.00000000000E+00 0. -1.
          1   -1    0    0  501    0 -0.00000000000E+00 -0.00000000000E+00 -0.10038174767E+04  0.10038174767E+04  0.00000000000E+00 0. -1.
          2    1    1    2  501    0 -0.10796938640E+03 -0.36863491701E+02 -0.66871433732E+03  0.67837686455E+03  0.00000000000E+00 0. -1.
          1    1    1    2  502    0  0.15110676757E+03  0.49943657376E+02 -0.18908467483E+03  0.24714497440E+03  0.00000000000E+00 0. -1.
         22    1    1    2    0    0 -0.13229308923E+02 -0.35681570076E+01  0.34947717475E+02  0.37537838453E+02  0.00000000000E+00 0. -1.
         22    1    1    2    0    0 -0.29908072249E+02 -0.95120086678E+01 -0.10864082562E+03  0.11308315562E+03  0.00000000000E+00 0.  1.
</event>
<event>
 6    1  0.3624778E-005  0.3784720E+03  0.7818608E-02  0.1183124E+00
          2   -1    0    0  502    0  0.00000000000E+00  0.00000000000E+00  0.14939255607E+03  0.14939255607E+03  0.00000000000E+00 0. -1.
          1   -1    0    0  501    0 -0.00000000000E+00 -0.00000000000E+00 -0.54724957115E+03  0.54724957115E+03  0.00000000000E+00 0. -1.
          2    1    1    2  501    0 -0.13204605090E+03  0.11535850826E+03 -0.34489477469E+03  0.38690586787E+03  0.00000000000E+00 0. -1.
          1    1    1    2  502    0  0.50929310273E+02 -0.31479520516E+02 -0.11347095396E+03  0.12829813814E+03  0.00000000000E+00 0. -1.
         22    1    1    2    0    0  0.75821690732E+02 -0.96497688262E+02  0.34598823953E+01  0.12277093879E+03  0.00000000000E+00 0. -1.
         22    1    1    2    0    0  0.52950498932E+01  0.12618700518E+02  0.57048831170E+02  0.58667182428E+02  0.00000000000E+00 0. -1.
</event>
<event>
 6    1  0.3624778E-005  0.1270137E+03  0.7818608E-02  0.1235692E+00
          2   -1    0    0  502    0  0.00000000000E+00  0.00000000000E+00  0.72266254540E+03  0.72266254540E+03  0.00000000000E+00 0.  1.
          1   -1    0    0  501    0 -0.00000000000E+00 -0.00000000000E+00 -0.53913422310E+03  0.53913422310E+03  0.00000000000E+00 0. -1.
          2    1    1    2  501    0  0.37762013867E+02 -0.92070015543E+02  0.20977395625E+03  0.23218089967E+03  0.00000000000E+00 0.  1.
          1    1    1    2  502    0  0.44072362129E+01  0.20762233996E+02 -0.51603517718E+03  0.51647148826E+03  0.00000000000E+00 0. -1.
         22    1    1    2    0    0  0.33849289025E+02 -0.12766346313E+02  0.76981887937E+02  0.85058597660E+02  0.00000000000E+00 0. -1.
         22    1    1    2    0    0 -0.76018539104E+02  0.84074127861E+02  0.41280765529E+03  0.42808578291E+03  0.00000000000E+00 0.  1.
</event>
<event>
 6    1  0.3624778E-005  0.1403523E+03  0.7818608E-02  0.1351139E+00
          2   -1    0    0  502    0  0.00000000000E+00  0.00000000000E+00  0.62472210773E+02  0.62472210773E+02  0.00000000000E+00 0. -1.
          1   -1    0    0  501    0 -0.00000000000E+00 -0.00000000000E+00 -0.62254309118E+03  0.62254309118E+03  0.00000000000E+00 0. -1.
          2    1    1    2  501    0  0.20958004187E+02 -0.52925874109E+01 -0.13619969936E+03  0.13790434194E+03  0.00000000000E+00 0. -1.
          1    1    1    2  502    0 -0.11038424893E+03 -0.31342483078E+02 -0.36245078826E+03  0.38018101947E+03  0.00000000000E+00 0. -1.
         22    1    1    2    0    0  0.31329753799E+01  0.96067641832E+01  0.33999241708E+02  0.35469055379E+02  0.00000000000E+00 0. -1.
         22    1    1    2    0    0  0.86293269367E+02  0.27028306306E+02 -0.95419634504E+02  0.13146088517E+03  0.00000000000E+00 0. -1.
</event>
<event>
 6    1  0.3624778E-005  0.2197191E+03  0.7818608E-02  0.1154685E+00
          2   -1    0    0  502    0  0.00000000000E+00  0.00000000000E+00  0.79982114997E+03  0.79982114997E+03  0.00000000000E+00 0. -1.
          1   -1    0    0  501    0 -0.00000000000E+00 -0.00000000000E+00 -0.36938212284E+03  0.36938212284E+03  0.00000000000E+00 0. -1.
          2    1    1    2  501    0  0.14473659872E+03 -0.88064299442E+00  0.45188557711E+03  0.47449977170E+03  0.00000000000E+00 0. -1.
          1    1    1    2  502    0 -0.10706858423E+03  0.14760275894E+03 -0.30152812570E+03  0.35237688171E+03  0.00000000000E+00 0. -1.
         22    1    1    2    0    0 -0.13499016987E+02 -0.13354084841E+03  0.12046381456E+03  0.18035218954E+03  0.00000000000E+00 0. -1.
         22    1    1    2    0    0 -0.24168997504E+02 -0.13181267531E+02  0.15961776116E+03  0.16197442987E+03  0.00000000000E+00 0.  1.
</event>
<event>
 6    1  0.3624778E-005  0.8727080E+02  0.7818608E-02  0.1313285E+00
          2   -1    0    0  502    0  0.00000000000E+00  0.00000000000E+00  0.97510680088E+02  0.97510680088E+02  0.00000000000E+00 0. -1.
          1   -1    0    0  501    0 -0.00000000000E+00 -0.00000000000E+00 -0.12942082011E+04  0.12942082011E+04  0.00000000000E+00 0. -1.
          2    1    1    2  501    0  0.72523500255E+02  0.51422224621E+02 -0.68447863385E+02  0.11220077217E+03  0.00000000000E+00 0. -1.
          1    1    1    2  502    0 -0.27504647712E+02 -0.25113834493E+02 -0.11407263590E+04  0.11413342352E+04  0.00000000000E+00 0. -1.
         22    1    1    2    0    0  0.25275841278E+02  0.47568514809E+01 -0.38254523350E+02  0.46096684751E+02  0.00000000000E+00 0. -1.
         22    1    1    2    0    0 -0.70294693821E+02 -0.31065241609E+02  0.50731224763E+02  0.92087189020E+02  0.00000000000E+00 0. -1.
</event>
<event>
 6    1  0.3624778E-005  0.2345263E+03  0.7818608E-02  0.1251531E+00
          2   -1    0    0  502    0  0.00000000000E+00  0.00000000000E+00  0.84002065744E+02  0.84002065744E+02  0.00000000000E+00 0.  1.
          1   -1    0    0  501    0 -0.00000000000E+00 -0.00000000000E+00 -0.37002292520E+03  0.37002292520E+03  0.00000000000E+00 0. -1.
          2    1    1    2  501    0  0.87917384521E+02 -0.50695805304E+02 -0.20243984503E+03  0.22645401748E+03  0.00000000000E+00 0.  1.
          1    1    1    2  502    0  0.17199383916E+02  0.13947537789E+02 -0.54204003757E+02  0.58552768003E+02  0.00000000000E+00 0. -1.
         22    1    1    2    0    0 -0.11032465935E+03  0.24214978028E+02 -0.65403370967E+02  0.13052010020E+03  0.00000000000E+00 0. -1.
         22    1    1    2    0    0  0.52078909179E+01  0.12533289487E+02  0.36026360293E+02  0.38498105267E+02  0.00000000000E+00 0.  1.
</event>
<event>
 6    1  0.3624778E-005  0.1027870E+03  0.7818608E-02  0.1275076E+00
          2   -1    0    0  502    0  0.00000000000E+00  0.00000000000E+00  0.52117073184E+02  0.52117073184E+02  0.00000000000E+00 0. -1.
          1   -1    0    0  501    0 -0.00000000000E+00 -0.00000000000E+00 -0.13523070885E+04  0.13523070885E+04  0.00000000000E+00 0. -1.
          2    1    1    2  501    0  0.47057673557E+02 -0.78308539682E+00 -0.88508779052E+02  0.10024391170E+03  0.00000000000E+00 0. -1.
          1    1    1    2  502    0  0.46030136577E+02  0.73292118724E+02 -0.10965812544E+04  0.10999913434E+04  0.00000000000E+00 0. -1.
         22    1    1    2    0    0 -0.11259155374E+03 -0.66548052595E+02 -0.57102559202E+02  0.14271020827E+03  0.00000000000E+00 0. -1.
         22    1    1    2    0    0  0.19503743606E+02 -0.59609807318E+01 -0.57997422654E+02  0.61478698266E+02  0.00000000000E+00 0.  1.
</event>
<event>
 6    1  0.3624778E-005  0.7005732E+02  0.7818608E-02  0.1439675E+00
          2   -1    0    0  502    0  0.00000000000E+00  0.00000000000E+00  0.24024668090E+02  0.24024668090E+02  0.00000000000E+00 0. -1.
          1   -1    0    0  501    0 -0.00000000000E+00 -0.00000000000E+00 -0.60472494671E+03  0.60472494671E+03  0.00000000000E+00 0. -1.
          2    1    1    2  501    0  0.29525066748E+02  0.28525980456E+02 -0.17601381501E+03  0.18073827542E+03  0.00000000000E+00 0. -1.
          1    1    1    2  502    0 -0.36366931455E+02  0.92073678764E+01 -0.21741544941E+03  0.22062820982E+03  0.00000000000E+00 0. -1.
         22    1    1    2    0    0  0.23340018127E+02 -0.26826651948E+02 -0.20047430865E+03  0.20360347278E+03  0.00000000000E+00 0. -1.
         22    1    1    2    0    0 -0.16498153421E+02 -0.10906696384E+02  0.13203294446E+02  0.23779656779E+02  0.00000000000E+00 0. -1.
</event>
<event>
 6    1  0.3624778E-005  0.2307128E+03  0.7818608E-02  0.1206811E+00
          2   -1    0    0  502    0  0.00000000000E+00  0.00000000000E+00  0.25103428367E+03  0.25103428367E+03  0.00000000000E+00 0.  1.
          1   -1    0    0  501    0 -0.00000000000E+00 -0.00000000000E+00 -0.10807773174E+04  0.10807773174E+04  0.00000000000E+00 0. -1.
          2    1    1    2  501    0 -0.20362052647E+02  0.10327123574E+03 -0.41186693132E+02  0.11303054901E+03  0.00000000000E+00 0.  1.
          1    1    1    2  502    0  0.47316224023E+02 -0.57566116893E+02 -0.97926886818E+03  0.98209989260E+03  0.00000000000E+00 0. -1.
         22    1    1    2    0    0  0.93397052817E+01  0.34718985335E+02  0.11475702308E+03  0.12025727580E+03  0.00000000000E+00 0.  1.
         22    1    1    2    0    0 -0.36293876657E+02 -0.80424104179E+02  0.75955504515E+02  0.11642388364E+03  0.00000000000E+00 0. -1.
</event>
<event>
 6    1  0.3624778E-005  0.1367034E+03  0.7818608E-02  0.1247696E+00
          2   -1    0    0  502    0  0.00000000000E+00  0.00000000000E+00  0.57814073006E+03  0.57814073006E+03  0.00000000000E+00 0.  1.
          1   -1    0    0  501    0 -0.00000000000E+00 -0.00000000000E+00 -0.92771672411E+02  0.92771672411E+02  0.00000000000E+00 0.  1.
          2    1    1    2  501    0  0.54303284101E+02 -0.23143559159E+02  0.30663449576E+02  0.66518554814E+02  0.00000000000E+00 0.  1.
          1    1    1    2  502    0 -0.79616255126E+02  0.95071939038E+01 -0.42773899700E+02  0.90877617221E+02  0.00000000000E+00 0.  1.
         22    1    1    2    0    0  0.34335749416E+02  0.65543232593E+02  0.31575316566E+03  0.32430683103E+03  0.00000000000E+00 0.  1.
         22    1    1    2    0    0 -0.90227783909E+01 -0.51906867337E+02  0.18172634211E+03  0.18920939941E+03  0.00000000000E+00 0. -1.
</event>
<event>
 6    1  0.3624778E-005  0.6588786E+03  0.7818608E-02  0.1123782E+00
          2   -1    0    0  502    0  0.00000000000E+00  0.00000000000E+00  0.77135664895E+03  0.77135664895E+03  0.00000000000E+00 0.  1.
          1   -1    0    0  501    0 -0.00000000000E+00 -0.00000000000E+00 -0.55422967072E+03  0.55422967072E+03  0.00000000000E+00 0.  1.
          2    1    1    2  501    0  0.48371834121E+03 -0.17769455169E+03  0.12130037708E+03  0.52940775288E+03  0.00000000000E+00 0.  1.
          1    1    1    2  502    0 -0.59761213491E+03  0.10352627506E+03  0.82153961543E+02  0.61205165371E+03  0.00000000000E+00 0.  1.
         22    1    1    2    0    0  0.87598948045E+01  0.57913248648E+01  0.51951122723E+02  0.53001833486E+02  0.00000000000E+00 0. -1.
         22    1    1    2    0    0  0.10513389889E+03  0.68376951765E+02 -0.38278483118E+02  0.13112507959E+03  0.00000000000E+00 0.  1.
</event>
<event>
 6    1  0.3624778E-005  0.7775694E+02  0.7818608E-02  0.1344488E+00
          2   -1    0    0  502    0  0.00000000000E+00  0.00000000000E+00  0.41598749555E+03  0.41598749555E+03  0.00000000000E+00 0. -1.
          1   -1    0    0  501    0 -0.00000000000E+00 -0.00000000000E+00 -0.11117561668E+03  0.11117561668E+03  0.00000000000E+00 0. -1.
          2    1    1    2  501    0 -0.80701187209E+02  0.53722150644E+01 -0.68808310881E+02  0.10618910470E+03  0.00000000000E+00 0. -1.
          1    1    1    2  502    0  0.46216488733E+02  0.26267815006E+02  0.65164432138E+02  0.84097355201E+02  0.00000000000E+00 0. -1.
         22    1    1    2    0    0 -0.12889656474E+02  0.14400618868E+02 -0.20372561948E+01  0.19433771652E+02  0.00000000000E+00 0. -1.
         22    1    1    2    0    0  0.47374354950E+02 -0.46040648938E+02  0.31049301381E+03  0.31744288067E+03  0.00000000000E+00 0. -1.
</event>
<event>
 6    1  0.3624778E-005  0.1376411E+03  0.7818608E-02  0.1270484E+00
          2   -1    0    0  502    0  0.00000000000E+00  0.00000000000E+00  0.38494413581E+03  0.38494413581E+03  0.00000000000E+00 0. -1.
          1   -1    0    0  501    0 -0.00000000000E+00 -0.00000000000E+00 -0.12129406439E+03  0.12129406439E+03  0.00000000000E+00 0. -1.
          2    1    1    2  501    0 -0.52550563465E+02 -0.80595974070E+02  0.69130001981E+02  0.11847459614E+03  0.00000000000E+00 0. -1.
          1    1    1    2  502    0  0.88596714360E+02  0.96996597480E+02 -0.25160914178E+02  0.13375645525E+03  0.00000000000E+00 0. -1.
         22    1    1    2    0    0 -0.28521267221E+02  0.36455194155E+02  0.18414496927E+03  0.18987315126E+03  0.00000000000E+00 0. -1.
         22    1    1    2    0    0 -0.75248836742E+01 -0.52855817565E+02  0.35536014354E+02  0.64133997544E+02  0.00000000000E+00 0. -1.
</event>
<event>
 6    1  0.3624778E-005  0.8814040E+02  0.7818608E-02  0.1377067E+00
          2   -1    0    0  502    0  0.00000000000E+00  0.00000000000E+00  0.85125618493E+02  0.85125618493E+02  0.00000000000E+00 0.  1.
          1   -1    0    0  501    0 -0.00000000000E+00 -0.00000000000E+00 -0.32045208317E+03  0.32045208317E+03  0.00000000000E+00 0.  1.
          2    1    1    2  501    0  0.19801232784E+02  0.39577391668E+01 -0.22478323059E+03  0.22568839862E+03  0.00000000000E+00 0.  1.
          1    1    1    2  502    0  0.13006617172E+02 -0.35489452563E+02 -0.26532471034E+02  0.46180573325E+02  0.00000000000E+00 0.  1.
         22    1    1    2    0    0  0.42299075825E+01  0.26117652578E+02  0.66078390075E+02  0.71178490637E+02  0.00000000000E+00 0.  1.
         22    1    1    2    0    0 -0.37037757539E+02  0.54140608172E+01 -0.50089153133E+02  0.62530239082E+02  0.00000000000E+00 0.  1.
</event>
<event>
 6    1  0.3624778E-005  0.1377661E+03  0.7818608E-02  0.1258847E+00
          2   -1    0    0  502    0  0.00000000000E+00  0.00000000000E+00  0.24423561376E+03  0.24423561376E+03  0.00000000000E+00 0.  1.
          1   -1    0    0  501    0 -0.00000000000E+00 -0.00000000000E+00 -0.66901960237E+03  0.66901960237E+03  0.00000000000E+00 0.  1.
          2    1    1    2  501    0 -0.76780010381E+02  0.71091205495E+01 -0.38175348037E+01  0.77202870161E+02  0.00000000000E+00 0.  1.
          1    1    1    2  502    0 -0.32290359759E+01  0.67280519283E+02 -0.59163236478E+03  0.59545440631E+03  0.00000000000E+00 0.  1.
         22    1    1    2    0    0  0.24021133338E+02 -0.59541107340E+02  0.41987393146E+01  0.64341182162E+02  0.00000000000E+00 0.  1.
         22    1    1    2    0    0  0.55987913019E+02 -0.14848532492E+02  0.16646717166E+03  0.17625675749E+03  0.00000000000E+00 0.  1.
</event>
<event>
 6    1  0.3624778E-005  0.2033009E+03  0.7818608E-02  0.1185342E+00
          2   -1    0    0  502    0  0.00000000000E+00  0.00000000000E+00  0.27936833931E+03  0.27936833931E+03  0.00000000000E+00 0. -1.
          1   -1    0    0  501    0 -0.00000000000E+00 -0.00000000000E+00 -0.13505600373E+04  0.13505600373E+04  0.00000000000E+00 0. -1.
          2    1    1    2  501    0 -0.11827485478E+03  0.13127837065E+03  0.49186541913E+02  0.18341828638E+03  0.00000000000E+00 0. -1.
          1    1    1    2  502    0  0.65710761259E-01 -0.10951794284E+03 -0.12332747780E+04  0.12381279668E+04  0.00000000000E+00 0. -1.
         22    1    1    2    0    0  0.60182385022E+02 -0.58638946935E+02  0.11149687903E+03  0.13961375147E+03  0.00000000000E+00 0.  1.
         22    1    1    2    0    0  0.58026758995E+02  0.36878519123E+02  0.13996591011E+01  0.68768371929E+02  0.00000000000E+00 0.  1.
</event>
<event>
 6    1  0.3624778E-005  0.5008705E+03  0.7818608E-02  0.1136972E+00
          2   -1    0    0  502    0  0.00000000000E+00  0.00000000000E+00  0.27073818963E+03  0.27073818963E+03  0.00000000000E+00 0. -1.
          1   -1    0    0  501    0 -0.00000000000E+00 -0.00000000000E+00 -0.10742830692E+04  0.10742830692E+04  0.00000000000E+00 0. -1.
          2    1    1    2  501    0  0.33183466097E+03 -0.28490344897E+03 -0.37286731113E+03  0.57472971836E+03  0.00000000000E+00 0. -1.
          1    1    1    2  502    0 -0.35602477724E+03  0.33991938610E+03 -0.36790887022E+03  0.61453703537E+03  0.00000000000E+00 0. -1.
         22    1    1    2    0    0  0.22594435686E+02 -0.37796085456E+02 -0.10297045645E+03  0.11199092598E+03  0.00000000000E+00 0. -1.
         22    1    1    2    0    0  0.15956805831E+01 -0.17219851674E+02  0.40201758258E+02  0.43763579096E+02  0.00000000000E+00 0.  1.
</event>
<event>
 6    1  0.3624778E-005  0.2829958E+03  0.7818608E-02  0.1180258E+00
          2   -1    0    0  502    0  0.00000000000E+00  0.00000000000E+00  0.27357064809E+03  0.27357064809E+03  0.00000000000E+00 0. -1.
          1   -1    0    0  501    0 -0.00000000000E+00 -0.00000000000E+00 -0.16703986545E+03  0.16703986545E+03  0.00000000000E+00 0. -1.
          2    1    1    2  501    0 -0.14093085645E+03 -0.68257698519E+02  0.18238461736E+02  0.15764917124E+03  0.00000000000E+00 0. -1.
          1    1    1    2  502    0 -0.15756424309E+02  0.31161445448E+02 -0.31085578004E+02  0.46750548117E+02  0.00000000000E+00 0. -1.
         22    1    1    2    0    0  0.34864452223E+02  0.16755539580E+01  0.10243265314E+03  0.10821638480E+03  0.00000000000E+00 0. -1.
         22    1    1    2    0    0  0.12182282854E+03  0.35420699113E+02  0.16945245769E+02  0.12799440938E+03  0.00000000000E+00 0. -1.
</event>
<event>
 6    1  0.3624778E-005  0.7617430E+02  0.7818608E-02  0.1344163E+00
          2   -1    0    0  502    0  0.00000000000E+00  0.00000000000E+00  0.38817293903E+03  0.38817293903E+03  0.00000000000E+00 0.  1.
          1   -1    0    0  501    0 -0.00000000000E+00 -0.00000000000E+00 -0.12201118370E+03  0.12201118370E+03  0.00000000000E+00 0. -1.
          2    1    1    2  501    0 -0.18031047960E+02  0.36880764838E+02  0.13725146470E+03  0.14325946414E+03  0.00000000000E+00 0.  1.
          1    1    1    2  502    0 -0.23495333835E+02 -0.15140574499E+02 -0.98974742911E+02  0.10284584310E+03  0.00000000000E+00 0. -1.
         22    1    1    2    0    0  0.57184207133E+01  0.35588644529E+02  0.17383530603E+03  0.17753299856E+03  0.00000000000E+00 0.  1.
         22    1    1    2    0    0  0.35807961081E+02 -0.57328834868E+02  0.54049727517E+02  0.86545816934E+02  0.00000000000E+00 0.  1.
</event>
<event>
 6    1  0.3624778E-005  0.9585260E+02  0.7818608E-02  0.1290084E+00
          2   -1    0    0  502    0  0.00000000000E+00  0.00000000000E+00  0.12031272485E+03  0.12031272485E+03  0.00000000000E+00 0. -1.
          1   -1    0    0  501    0 -0.00000000000E+00 -0.00000000000E+00 -0.92528887250E+03  0.92528887250E+03  0.00000000000E+00 0.  1.
          2    1    1    2  501    0 -0.40802883906E+02  0.28346472057E+02  0.40936965704E+01  0.49851340651E+02  0.00000000000E+00 0. -1.
          1    1    1    2  502    0 -0.17354073017E+02  0.29473339390E+02 -0.84436656432E+03  0.84505901364E+03  0.00000000000E+00 0.  1.
         22    1    1    2    0    0  0.87389566396E+02 -0.71751945187E+02  0.19804211759E+02  0.11479322609E+03  0.00000000000E+00 0. -1.
         22    1    1    2    0    0 -0.29232609473E+02  0.13932133741E+02  0.15492508351E+02  0.35898016967E+02  0.00000000000E+00 0. -1.
</event>
<event>
 6    1  0.3624778E-005  0.3734825E+03  0.7818608E-02  0.1137645E+00
          2   -1    0    0  502    0  0.00000000000E+00  0.00000000000E+00  0.35053086283E+03  0.35053086283E+03  0.00000000000E+00 0.  1.
          1   -1    0    0  501    0 -0.00000000000E+00 -0.00000000000E+00 -0.22402212800E+03  0.22402212800E+03  0.00000000000E+00 0.  1.
          2    1    1    2  501    0  0.75299957578E+02  0.12532536097E+03  0.12657962462E+02  0.14675405864E+03  0.00000000000E+00 0.  1.
          1    1    1    2  502    0  0.87157940759E+02  0.66245031240E+01 -0.77263196699E+02  0.11666187142E+03  0.00000000000E+00 0.  1.
         22    1    1    2    0    0 -0.12831329929E+03 -0.15471317374E+03  0.17675161779E+03  0.26765949132E+03  0.00000000000E+00 0.  1.
         22    1    1    2    0    0 -0.34144599051E+02  0.22763309647E+02  0.14362351285E+02  0.43477569445E+02  0.00000000000E+00 0.  1.
</event>
<event>
 6    1  0.3624778E-005  0.1229353E+03  0.7818608E-02  0.1348104E+00
          2   -1    0    0  502    0  0.00000000000E+00  0.00000000000E+00  0.47211241679E+02  0.47211241679E+02  0.00000000000E+00 0.  1.
          1   -1    0    0  501    0 -0.00000000000E+00 -0.00000000000E+00 -0.90534399845E+03  0.90534399845E+03  0.00000000000E+00 0. -1.
          2    1    1    2  501    0  0.15586069083E+02  0.26237246546E+02 -0.47082550553E+03  0.47181349632E+03  0.00000000000E+00 0.  1.
          1    1    1    2  502    0 -0.11226688327E+02 -0.59312333427E+02 -0.34293281240E+03  0.34820526310E+03  0.00000000000E+00 0. -1.
         22    1    1    2    0    0 -0.75504976619E+01  0.48586733721E+02 -0.79800067999E+02  0.93732233309E+02  0.00000000000E+00 0.  1.
         22    1    1    2    0    0  0.31911169063E+01 -0.15511646839E+02  0.35425629160E+02  0.38804247398E+02  0.00000000000E+00 0.  1.
</event>
<event>
 6    1  0.3624778E-005  0.8750209E+02  0.7818608E-02  0.1345067E+00
          2   -1    0    0  502    0  0.00000000000E+00  0.00000000000E+00  0.24322790225E+03  0.24322790225E+03  0.00000000000E+00 0.  1.
          1   -1    0    0  501    0 -0.00000000000E+00 -0.00000000000E+00 -0.74762341675E+02  0.74762341675E+02  0.00000000000E+00 0.  1.
          2    1    1    2  501    0  0.23742856683E+02  0.95259468125E+01  0.37407513689E+02  0.45318748732E+02  0.00000000000E+00 0.  1.
          1    1    1    2  502    0  0.13408925655E+02 -0.61955083531E+02 -0.18336579691E+02  0.65988346072E+02  0.00000000000E+00 0.  1.
         22    1    1    2    0    0 -0.41751833154E+02 -0.19930428572E+02  0.11970478711E+03  0.12833422619E+03  0.00000000000E+00 0.  1.
         22    1    1    2    0    0  0.46000508155E+01  0.72359565291E+02  0.29689839462E+02  0.78348922927E+02  0.00000000000E+00 0.  1.
</event>
<event>
 6    1  0.3624778E-005  0.1414182E+03  0.7818608E-02  0.1282560E+00
          2   -1    0    0  502    0  0.00000000000E+00  0.00000000000E+00  0.55004237017E+03  0.55004237017E+03  0.00000000000E+00 0.  1.
          1   -1    0    0  501    0 -0.00000000000E+00 -0.00000000000E+00 -0.73856636023E+02  0.73856636023E+02  0.00000000000E+00 0.  1.
          2    1    1    2  501    0 -0.14015990543E+02  0.35489861868E+02  0.94673247651E+02  0.10207351325E+03  0.00000000000E+00 0.  1.
          1    1    1    2  502    0  0.27822524489E+02  0.59869610020E+02 -0.35800133982E+02  0.75100683526E+02  0.00000000000E+00 0.  1.
         22    1    1    2    0    0  0.31256276458E+02  0.13046848064E+02  0.16494961563E+03  0.16839106497E+03  0.00000000000E+00 0.  1.
         22    1    1    2    0    0 -0.45062810403E+02 -0.10840631995E+03  0.25236300484E+03  0.27833374445E+03  0.00000000000E+00 0.  1.
</event>
<event>
 6    1  0.3624778E-005  0.7354168E+02  0.7818608E-02  0.1379387E+00
          2   -1    0    0  502    0  0.00000000000E+00  0.00000000000E+00  0.43100236805E+02  0.43100236805E+02  0.00000000000E+00 0. -1.
          1   -1    0    0  501    0 -0.00000000000E+00 -0.00000000000E+00 -0.85308622421E+03  0.85308622421E+03  0.00000000000E+00 0.  1.
          2    1    1    2  501    0 -0.31649263702E+02  0.21048419285E+01 -0.10088244668E+02  0.33284815350E+02  0.00000000000E+00 0. -1.
          1    1    1    2  502    0  0.18485121535E+02  0.86385327792E+01 -0.70714135193E+03  0.70743566179E+03  0.00000000000E+00 0.  1.
         22    1    1    2    0    0  0.40163587107E+02 -0.13256857457E+02  0.14595449109E+02  0.44742431021E+02  0.00000000000E+00 0. -1.
         22    1    1    2    0    0 -0.26999444941E+02  0.25134827489E+01 -0.10735183992E+03  0.11072355285E+03  0.00000000000E+00 0.  1.
</event>
<event>
 6    1  0.3624778E-005  0.5731887E+02  0.7818608E-02  0.1411137E+00
          2   -1    0    0  502    0  0.00000000000E+00  0.00000000000E+00  0.10576747308E+03  0.10576747308E+03  0.00000000000E+00 0. -1.
          1   -1    0    0  501    0 -0.00000000000E+00 -0.00000000000E+00 -0.17051815835E+03  0.17051815835E+03  0.00000000000E+00 0. -1.
          2    1    1    2  501    0  0.11132738776E+02  0.20677163871E+02 -0.80964158096E+01  0.24840187748E+02  0.00000000000E+00 0. -1.
          1    1    1    2  502    0  0.13035282100E+02  0.16773453317E+02  0.66676958316E+02  0.69979168942E+02  0.00000000000E+00 0. -1.
         22    1    1    2    0    0  0.12122101050E+02  0.66383686883E+01  0.21627082048E+02  0.25666007687E+02  0.00000000000E+00 0.  1.
         22    1    1    2    0    0 -0.36290121926E+02 -0.44088985876E+02 -0.14495830983E+03  0.15580026705E+03  0.00000000000E+00 0. -1.
</event>
<event>
 6    1  0.3624778E-005  0.1696826E+03  0.7818608E-02  0.1179005E+00
          2   -1    0    0  502    0  0.00000000000E+00  0.00000000000E+00  0.14087509303E+04  0.14087509303E+04  0.00000000000E+00 0. -1.
          1   -1    0    0  501    0 -0.00000000000E+00 -0.00000000000E+00 -0.32951525919E+03  0.32951525919E+03  0.00000000000E+00 0. -1.
          2    1    1    2  501    0 -0.15157835140E+03 -0.53875470829E+01  0.84179576531E+03  0.85535088284E+03  0.00000000000E+00 0. -1.
          1    1    1    2  502    0  0.98273423399E+01  0.95503788562E+02 -0.29571448062E+03  0.31090931851E+03  0.00000000000E+00 0. -1.
         22    1    1    2    0    0  0.15642648838E+03 -0.99943146985E+02  0.44613770737E+03  0.48321499649E+03  0.00000000000E+00 0.  1.
         22    1    1    2    0    0 -0.14675479315E+02  0.98269055058E+01  0.87016679051E+02  0.88790991649E+02  0.00000000000E+00 0.  1.
</event>
<event>
 6    1  0.3624778E-005  0.7608633E+02  0.7818608E-02  0.1344712E+00
          2   -1    0    0  502    0  0.00000000000E+00  0.00000000000E+00  0.89688333734E+02  0.89688333734E+02  0.00000000000E+00 0. -1.
          1   -1    0    0  501    0 -0.00000000000E+00 -0.00000000000E+00 -0.11596522113E+03  0.11596522113E+03  0.00000000000E+00 0. -1.
          2    1    1    2  501    0 -0.24052241783E+02  0.33641372153E+02  0.84230525966E+01  0.42204266018E+02  0.00000000000E+00 0. -1.
          1    1    1    2  502    0  0.28651183884E+02 -0.24349471837E+02 -0.91948486740E+01  0.38708298320E+02  0.00000000000E+00 0. -1.
         22    1    1    2    0    0 -0.29804858712E+00 -0.51124931006E+02 -0.53672718339E+02  0.74125623756E+02  0.00000000000E+00 0. -1.
         22    1    1    2    0    0 -0.43008935142E+01  0.41833030691E+02  0.28167627016E+02  0.50615366773E+02  0.00000000000E+00 0. -1.
</event>
<event>
 6    1  0.3636154E-005  0.1087875E+03  0.7818608E-02  0.1325412E+00
          2   -1    0    0  502    0  0.00000000000E+00  0.00000000000E+00  0.18460952406E+03  0.18460952406E+03  0.00000000000E+00 0. -1.
          1   -1    0    0  501    0 -0.00000000000E+00 -0.00000000000E+00 -0.44120915545E+03  0.44120915545E+03  0.00000000000E+00 0. -1.
          2    1    1    2  501    0 -0.69340028459E+02 -0.58462329318E+02 -0.35375661295E+03  0.36519806230E+03  0.00000000000E+00 0. -1.
          1    1    1    2  502    0  0.77858194664E+02  0.23990904857E+02 -0.24608677740E+02  0.85106104436E+02  0.00000000000E+00 0. -1.
         22    1    1    2    0    0  0.76934230535E+01  0.33043484589E+02  0.14400999491E+03  0.14795248989E+03  0.00000000000E+00 0. -1.
         22    1    1    2    0    0 -0.16211589258E+02  0.14279398721E+01 -0.22244335604E+02  0.27562022876E+02  0.00000000000E+00 0. -1.
</event>
<event>
 6    1  0.3624778E-005  0.2186684E+03  0.7818608E-02  0.1136020E+00
          2   -1    0    0  502    0  0.00000000000E+00  0.00000000000E+00  0.87508848707E+03  0.87508848707E+03  0.00000000000E+00 0. -1.
          1   -1    0    0  501    0 -0.00000000000E+00 -0.00000000000E+00 -0.18216372257E+03  0.18216372257E+03  0.00000000000E+00 0.  1.
          2    1    1    2  501    0 -0.22283524404E+03  0.84015801746E+02  0.24975287104E+03  0.34509520067E+03  0.00000000000E+00 0. -1.
          1    1    1    2  502    0  0.13845716143E+03  0.98369363812E+02 -0.38806856215E+02  0.17422080639E+03  0.00000000000E+00 0.  1.
         22    1    1    2    0    0  0.11216819115E+03 -0.17607211308E+03  0.44219606500E+03  0.48899943968E+03  0.00000000000E+00 0. -1.
         22    1    1    2    0    0 -0.27790108537E+02 -0.63130524798E+01  0.39782684677E+02  0.48936762911E+02  0.00000000000E+00 0.  1.
</event>
<event>
 6    1  0.3624778E-005  0.6749952E+03  0.7818608E-02  0.1077639E+00
          2   -1    0    0  502    0  0.00000000000E+00  0.00000000000E+00  0.99120717575E+03  0.99120717575E+03  0.00000000000E+00 0.  1.
          1   -1    0    0  501    0 -0.00000000000E+00 -0.00000000000E+00 -0.30932098384E+03  0.30932098384E+03  0.00000000000E+00 0.  1.
          2    1    1    2  501    0  0.28166782922E+03  0.19206717975E+03  0.26242168073E+03  0.43022285629E+03  0.00000000000E+00 0.  1.
          1    1    1    2  502    0 -0.14626684905E+03  0.10906048661E+03 -0.12555928013E+03  0.22147982684E+03  0.00000000000E+00 0.  1.
         22    1    1    2    0    0 -0.32270454765E+02  0.14972448230E+01  0.48801841521E+02  0.58525581831E+02  0.00000000000E+00 0. -1.
         22    1    1    2    0    0 -0.10313052541E+03 -0.30262491118E+03  0.49622194979E+03  0.59029989462E+03  0.00000000000E+00 0.  1.
</event>
<event>
 6    1  0.3624778E-005  0.7732007E+02  0.7818608E-02  0.1337995E+00
          2   -1    0    0  502    0  0.00000000000E+00  0.00000000000E+00  0.36645456150E+03  0.36645456150E+03  0.00000000000E+00 0.  1.
          1   -1    0    0  501    0 -0.00000000000E+00 -0.00000000000E+00 -0.70396947238E+02  0.70396947238E+02  0.00000000000E+00 0. -1.
          2    1    1    2  501    0 -0.16354900849E+02 -0.39355552343E+02  0.11913034314E+03  0.12652423064E+03  0.00000000000E+00 0.  1.
          1    1    1    2  502    0 -0.39843066674E+02 -0.17534790158E+02 -0.30879157954E+02  0.53370977354E+02  0.00000000000E+00 0. -1.
         22    1    1    2    0    0  0.74150028177E+02  0.77273763466E+02  0.10263999206E+03  0.14833889972E+03  0.00000000000E+00 0.  1.
         22    1    1    2    0    0 -0.17952060654E+02 -0.20383420964E+02  0.10516643701E+03  0.10861740103E+03  0.00000000000E+00 0.  1.
</event>
<event>
 6    1  0.3624778E-005  0.2039914E+03  0.7818608E-02  0.1252683E+00
          2   -1    0    0  502    0  0.00000000000E+00  0.00000000000E+00  0.10223490697E+03  0.10223490697E+03  0.00000000000E+00 0.  1.
          1   -1    0    0  501    0 -0.00000000000E+00 -0.00000000000E+00 -0.63357927333E+03  0.63357927333E+03  0.00000000000E+00 0.  1.
          2    1    1    2  501    0 -0.38945430899E+02  0.20862334423E+02  0.13541413271E+02  0.46209884861E+02  0.00000000000E+00 0.  1.
          1    1    1    2  502    0 -0.71240093504E+02  0.67804893641E+02 -0.48079154665E+03  0.49074755818E+03  0.00000000000E+00 0.  1.
         22    1    1    2    0    0 -0.19599027209E+02 -0.47106620211E+01  0.15092223252E+02  0.25181092250E+02  0.00000000000E+00 0.  1.
         22    1    1    2    0    0  0.12978455161E+03 -0.83956566044E+02 -0.79186456231E+02  0.17367564501E+03  0.00000000000E+00 0.  1.
</event>
<event>
 6    1  0.3624778E-005  0.5520721E+02  0.7818608E-02  0.1497804E+00
          2   -1    0    0  502    0  0.00000000000E+00  0.00000000000E+00  0.52582012829E+02  0.52582012829E+02  0.00000000000E+00 0. -1.
          1   -1    0    0  501    0 -0.00000000000E+00 -0.00000000000E+00 -0.26249715145E+04  0.26249715145E+04  0.00000000000E+00 0.  1.
          2    1    1    2  501    0 -0.24278622612E+02  0.53630879164E+01 -0.48878775528E+02  0.54839300917E+02  0.00000000000E+00 0. -1.
          1    1    1    2  502    0  0.24704752837E+02 -0.25468723963E+02 -0.24856135673E+04  0.24858668079E+04  0.00000000000E+00 0.  1.
         22    1    1    2    0    0 -0.72177392149E+01 -0.15989844583E+02  0.43849469298E+02  0.47228665521E+02  0.00000000000E+00 0. -1.
         22    1    1    2    0    0  0.67916089902E+01  0.36095480630E+02 -0.81746628185E+02  0.89618753027E+02  0.00000000000E+00 0.  1.
</event>
<event>
 6    1  0.3624778E-005  0.1637720E+03  0.7818608E-02  0.1286189E+00
          2   -1    0    0  502    0  0.00000000000E+00  0.00000000000E+00  0.67348642143E+02  0.67348642143E+02  0.00000000000E+00 0. -1.
          1   -1    0    0  501    0 -0.00000000000E+00 -0.00000000000E+00 -0.75043213063E+03  0.75043213063E+03  0.00000000000E+00 0. -1.
          2    1    1    2  501    0 -0.13836322013E+02  0.75659084738E+02 -0.60948962832E+02  0.98135197461E+02  0.00000000000E+00 0. -1.
          1    1    1    2  502    0 -0.31786332041E+02 -0.13529170489E+03 -0.52264990976E+03  0.54081156098E+03  0.00000000000E+00 0. -1.
         22    1    1    2    0    0  0.59769095718E+02  0.44986636476E+02 -0.12531352921E+03  0.14594390315E+03  0.00000000000E+00 0. -1.
         22    1    1    2    0    0 -0.14146441664E+02  0.14645983680E+02  0.25828913320E+02  0.32890111174E+02  0.00000000000E+00 0.  1.
</event>
<event>
 6    1  0.3624778E-005  0.6244994E+02  0.7818608E-02  0.1393529E+00
          2   -1    0    0  502    0  0.00000000000E+00  0.00000000000E+00  0.26959941494E+02  0.26959941494E+02  0.00000000000E+00 0. -1.
          1   -1    0    0  501    0 -0.00000000000E+00 -0.00000000000E+00 -0.37088864943E+03  0.37088864943E+03  0.00000000000E+00 0.  1.
          2    1    1    2  501    0  0.17417387360E+02  0.12599880602E+02 -0.22045635844E+02  0.30791759180E+02  0.00000000000E+00 0. -1.
          1    1    1    2  502    0 -0.15134235685E+01  0.22718147042E+02 -0.13942479117E+03  0.14127164276E+03  0.00000000000E+00 0.  1.
         22    1    1    2    0    0  0.22904256369E+02  0.27178680391E+02 -0.13168994351E+03  0.13640207788E+03  0.00000000000E+00 0. -1.
         22    1    1    2    0    0 -0.38808220161E+02 -0.62496708035E+02 -0.50768337413E+02  0.89383111106E+02  0.00000000000E+00 0. -1.
</event>
<event>
 6    1  0.3624778E-005  0.8420222E+02  0.7818608E-02  0.1371303E+00
          2   -1    0    0  502    0  0.00000000000E+00  0.00000000000E+00  0.17444128576E+03  0.17444128576E+03  0.00000000000E+00 0. -1.
          1   -1    0    0  501    0 -0.00000000000E+00 -0.00000000000E+00 -0.40423416162E+03  0.40423416162E+03  0.00000000000E+00 0.  1.
          2    1    1    2  501    0  0.26862026401E+02 -0.33845696308E+02  0.17126025940E+02  0.46480107416E+02  0.00000000000E+00 0. -1.
          1    1    1    2  502    0 -0.13878256430E+02  0.34744322988E+02 -0.36260181710E+03  0.36452688754E+03  0.00000000000E+00 0.  1.
         22    1    1    2    0    0 -0.27263267252E+02  0.19234695316E+02 -0.13614363511E+02  0.36036233696E+02  0.00000000000E+00 0. -1.
         22    1    1    2    0    0  0.14279497280E+02 -0.20133321997E+02  0.12929727881E+03  0.13163221872E+03  0.00000000000E+00 0. -1.
</event>
<event>
 6    1  0.3624778E-005  0.6521566E+02  0.7818608E-02  0.1399611E+00
          2   -1    0    0  502    0  0.00000000000E+00  0.00000000000E+00  0.38058763426E+03  0.38058763426E+03  0.00000000000E+00 0. -1.
          1   -1    0    0  501    0 -0.00000000000E+00 -0.00000000000E+00 -0.41965823202E+02  0.41965823202E+02  0.00000000000E+00 0.  1.
          2    1    1    2  501    0  0.73407284372E+00  0.29984366255E+02  0.10517296741E+03  0.10936614722E+03  0.00000000000E+00 0. -1.
          1    1    1    2  502    0 -0.56780819531E+01 -0.58063987579E+02  0.14404913492E+02  0.60093001264E+02  0.00000000000E+00 0.  1.
         22    1    1    2    0    0  0.22589401705E+02 -0.39409331254E+02  0.38508642980E+02  0.59550751829E+02  0.00000000000E+00 0.  1.
         22    1    1    2    0    0 -0.17645392596E+02  0.67488952577E+02  0.18053528717E+03  0.19354355715E+03  0.00000000000E+00 0. -1.
</event>
<event>
 6    1  0.3624778E-005  0.2266096E+03  0.7818608E-02  0.1204518E+00
          2   -1    0    0  502    0  0.00000000000E+00  0.00000000000E+00  0.13409028666E+03  0.13409028666E+03  0.00000000000E+00 0.  1.
          1   -1    0    0  501    0 -0.00000000000E+00 -0.00000000000E+00 -0.15064047003E+04  0.15064047003E+04  0.00000000000E+00 0.  1.
          2    1    1    2  501    0 -0.37584853660E+02 -0.30819889881E+02 -0.88971991814E+02  0.10138294809E+03  0.00000000000E+00 0.  1.
          1    1    1    2  502    0 -0.20881937743E+02  0.21420062595E+02 -0.13718558210E+04  0.13721819369E+04  0.00000000000E+00 0.  1.
         22    1    1    2    0    0 -0.27173530655E+02 -0.29139829038E+02  0.30648870768E+01  0.39961530719E+02  0.00000000000E+00 0.  1.
         22    1    1    2    0    0  0.85640322058E+02  0.38539656325E+02  0.85448512061E+02  0.12696857125E+03  0.00000000000E+00 0.  1.
</event>
<event>
 6    1  0.3624778E-005  0.1194156E+03  0.7818608E-02  0.1245011E+00
          2   -1    0    0  502    0  0.00000000000E+00  0.00000000000E+00  0.16973124301E+03  0.16973124301E+03  0.00000000000E+00 0.  1.
          1   -1    0    0  501    0 -0.00000000000E+00 -0.00000000000E+00 -0.24232040451E+03  0.24232040451E+03  0.00000000000E+00 0.  1.
          2    1    1    2  501    0 -0.32390937454E+02  0.72176474296E+02  0.25484110549E+02  0.83114716876E+02  0.00000000000E+00 0.  1.
          1    1    1    2  502    0  0.51912038455E+02  0.27970678556E+02 -0.14591970331E+03  0.15738417459E+03  0.00000000000E+00 0.  1.
         22    1    1    2    0    0 -0.22538138000E+02  0.27099891177E+02 -0.88965380812E+00  0.35258520250E+02  0.00000000000E+00 0.  1.
         22    1    1    2    0    0  0.30170369984E+01 -0.12724704403E+03  0.48736085070E+02  0.13629423581E+03  0.00000000000E+00 0.  1.
</event>
<event>
 6    1  0.3624778E-005  0.1041694E+03  0.7818608E-02  0.1273189E+00
          2   -1    0    0  502    0  0.00000000000E+00  0.00000000000E+00  0.12824211185E+04  0.12824211185E+04  0.00000000000E+00 0. -1.
          1   -1    0    0  501    0 -0.00000000000E+00 -0.00000000000E+00 -0.60306989230E+02  0.60306989230E+02  0.00000000000E+00 0. -1.
          2    1    1    2  501    0 -0.48699032191E+02  0.52069623700E+02  0.52479834230E+03  0.52961886440E+03  0.00000000000E+00 0. -1.
          1    1    1    2  502    0  0.40413673676E+02  0.85541821845E+01 -0.43429604182E+02  0.59938047785E+02  0.00000000000E+00 0. -1.
         22    1    1    2    0    0 -0.36481583323E+02  0.21738086989E+02  0.22284146634E+03  0.22685186680E+03  0.00000000000E+00 0.  1.
         22    1    1    2    0    0  0.44766941838E+02 -0.82361892874E+02  0.51790392483E+03  0.52631932877E+03  0.00000000000E+00 0.  1.
</event>
<event>
 6    1  0.3624778E-005  0.1979202E+03  0.7818608E-02  0.1242100E+00
          2   -1    0    0  502    0  0.00000000000E+00  0.00000000000E+00  0.59790300699E+02  0.59790300699E+02  0.00000000000E+00 0.  1.
          1   -1    0    0  501    0 -0.00000000000E+00 -0.00000000000E+00 -0.65550718696E+03  0.65550718696E+03  0.00000000000E+00 0.  1.
          2    1    1    2  501    0  0.65745979660E+02  0.68458554014E+02 -0.15671815095E+03  0.18322032173E+03  0.00000000000E+00 0.  1.
          1    1    1    2  502    0 -0.64419348907E+02  0.32678359103E+02 -0.33739995920E+03  0.34504559138E+03  0.00000000000E+00 0.  1.
         22    1    1    2    0    0  0.25353455514E+02 -0.10098153066E+02  0.19248557399E+02  0.33395768651E+02  0.00000000000E+00 0. -1.
         22    1    1    2    0    0 -0.26680086268E+02 -0.91038760051E+02 -0.12084733352E+03  0.15363580589E+03  0.00000000000E+00 0.  1.
</event>
<event>
 6    1  0.3624778E-005  0.2292199E+03  0.7818608E-02  0.1150690E+00
          2   -1    0    0  502    0  0.00000000000E+00  0.00000000000E+00  0.17400860112E+03  0.17400860112E+03  0.00000000000E+00 0. -1.
          1   -1    0    0  501    0 -0.00000000000E+00 -0.00000000000E+00 -0.40111211789E+03  0.40111211789E+03  0.00000000000E+00 0. -1.
          2    1    1    2  501    0  0.11093652989E+03  0.60069565006E+02 -0.14972842207E+03  0.19579036412E+03  0.00000000000E+00 0. -1.
          1    1    1    2  502    0  0.23171431510E+02  0.10322565404E+02 -0.16193175056E+03  0.16390656617E+03  0.00000000000E+00 0. -1.
         22    1    1    2    0    0 -0.13357833996E+03 -0.85005864844E+01  0.72996805302E+02  0.15245972078E+03  0.00000000000E+00 0. -1.
         22    1    1    2    0    0 -0.52962144183E+00 -0.61891543925E+02  0.11559850558E+02  0.62964067953E+02  0.00000000000E+00 0. -1.
</event>
<event>
 6    1  0.3624778E-005  0.1438987E+03  0.7818608E-02  0.1345571E+00
          2   -1    0    0  502    0  0.00000000000E+00  0.00000000000E+00  0.79333773228E+02  0.79333773228E+02  0.00000000000E+00 0. -1.
          1   -1    0    0  501    0 -0.00000000000E+00 -0.00000000000E+00 -0.22481814959E+03  0.22481814959E+03  0.00000000000E+00 0. -1.
          2    1    1    2  501    0  0.51486586417E+02  0.44024761449E+02 -0.89072824629E+01  0.68325601954E+02  0.00000000000E+00 0. -1.
          1    1    1    2  502    0 -0.51489517565E+02  0.31191418445E+00 -0.60770715397E+02  0.79651412790E+02  0.00000000000E+00 0. -1.
         22    1    1    2    0    0 -0.93347363648E+01  0.43835137419E+01  0.34082124050E+02  0.35608196746E+02  0.00000000000E+00 0. -1.
         22    1    1    2    0    0  0.93376675127E+01 -0.48720189375E+02 -0.10988850255E+03  0.12056671133E+03  0.00000000000E+00 0. -1.
</event>
<event>
 6    1  0.3624778E-005  0.2976699E+03  0.7818608E-02  0.1189023E+00
          2   -1    0    0  502    0  0.00000000000E+00  0.00000000000E+00  0.22094492684E+03  0.22094492684E+03  0.00000000000E+00 0.  1.
          1   -1    0    0  501    0 -0.00000000000E+00 -0.00000000000E+00 -0.13537781065E+04  0.13537781065E+04  0.00000000000E+00 0. -1.
          2    1    1    2  501    0  0.16602575860E+03  0.13148472568E+03 -0.12798738697E+03  0.24745415096E+03  0.00000000000E+00 0.  1.
          1    1    1    2  502    0 -0.25674238103E+03 -0.11757895459E+03 -0.11055866399E+04  0.11410798741E+04  0.00000000000E+00 0. -1.
         22    1    1    2    0    0  0.75428944395E+02  0.54540849289E+01 -0.67287612724E+01  0.75924626593E+02  0.00000000000E+00 0.  1.
         22    1    1    2    0    0  0.15287678040E+02 -0.19359856019E+02  0.10746960847E+03  0.11026438169E+03  0.00000000000E+00 0.  1.
</event>
<event>
 6    1  0.3624778E-005  0.7147078E+02  0.7818608E-02  0.1356653E+00
          2   -1    0    0  502    0  0.00000000000E+00  0.00000000000E+00  0.41379442251E+03  0.41379442251E+03  0.00000000000E+00 0.  1.
          1   -1    0    0  501    0 -0.00000000000E+00 -0.00000000000E+00 -0.27271356875E+02  0.27271356875E+02  0.00000000000E+00 0.  1.
          2    1    1    2  501    0  0.37934882520E+02  0.77787476306E+01  0.17588606179E+03  0.18009850349E+03  0.00000000000E+00 0.  1.
          1    1    1    2  502    0 -0.15735228919E+02 -0.15686604475E+02  0.14070325531E+02  0.26299069368E+02  0.00000000000E+00 0.  1.
         22    1    1    2    0    0 -0.56877297944E+02  0.15950422764E+02  0.33807699321E+02  0.68061762695E+02  0.00000000000E+00 0.  1.
         22    1    1    2    0    0  0.34677644344E+02 -0.80425659202E+01  0.16275897899E+03  0.16660644383E+03  0.00000000000E+00 0. -1.
</event>
<event>
 6    1  0.3624778E-005  0.1052551E+03  0.7818608E-02  0.1282474E+00
          2   -1    0    0  502    0  0.00000000000E+00  0.00000000000E+00  0.71597402446E+03  0.71597402446E+03  0.00000000000E+00 0. -1.
          1   -1    0    0  501    0 -0.00000000000E+00 -0.00000000000E+00 -0.66393920167E+02  0.66393920167E+02  0.00000000000E+00 0. -1.
          2    1    1    2  501    0  0.56145011910E+02 -0.10967859674E+02  0.15804427721E+03  0.16807899889E+03  0.00000000000E+00 0. -1.
          1    1    1    2  502    0 -0.22671386075E+02  0.15701723255E+02 -0.50193504033E+02  0.57270618181E+02  0.00000000000E+00 0. -1.
         22    1    1    2    0    0 -0.53891407633E+02  0.46419607654E+02  0.24059176877E+03  0.25088535827E+03  0.00000000000E+00 0.  1.
         22    1    1    2    0    0  0.20417781798E+02 -0.51153471235E+02  0.30113756234E+03  0.30613296928E+03  0.00000000000E+00 0. -1.
</event>
<event>
 6    1  0.3624778E-005  0.1185513E+03  0.7818608E-02  0.1247781E+00
          2   -1    0    0  502    0  0.00000000000E+00  0.00000000000E+00  0.50939998636E+03  0.50939998636E+03  0.00000000000E+00 0.  1.
          1   -1    0    0  501    0 -0.00000000000E+00 -0.00000000000E+00 -0.32378946071E+03  0.32378946071E+03  0.00000000000E+00 0.  1.
          2    1    1    2  501    0  0.10346081076E+02  0.14775024575E+03  0.16919716059E+03  0.22486630620E+03  0.00000000000E+00 0.  1.
          1    1    1    2  502    0  0.69694001817E+01 -0.87515527073E+02 -0.27247573475E+03  0.28627009283E+03  0.00000000000E+00 0.  1.
         22    1    1    2    0    0 -0.25419601884E+01 -0.95707451726E+02  0.24849725842E+03  0.26630295778E+03  0.00000000000E+00 0.  1.
         22    1    1    2    0    0 -0.14773521069E+02  0.35472733048E+02  0.40391841386E+02  0.55750090271E+02  0.00000000000E+00 0.  1.
</event>
<event>
 6    1  0.3624778E-005  0.1219125E+03  0.7818608E-02  0.1264466E+00
          2   -1    0    0  502    0  0.00000000000E+00  0.00000000000E+00  0.16926901151E+03  0.16926901151E+03  0.00000000000E+00 0.  1.
          1   -1    0    0  501    0 -0.00000000000E+00 -0.00000000000E+00 -0.13842110023E+03  0.13842110023E+03  0.00000000000E+00 0.  1.
          2    1    1    2  501    0 -0.61792142584E+02  0.37931433488E+02  0.23197416991E+02  0.76126097277E+02  0.00000000000E+00 0.  1.
          1    1    1    2  502    0 -0.51533070179E+01 -0.20609297244E+02 -0.66483700777E+02  0.69795287629E+02  0.00000000000E+00 0.  1.
         22    1    1    2    0    0  0.57910432568E+02 -0.38595397581E+02 -0.13713472844E+02  0.70931532143E+02  0.00000000000E+00 0.  1.
         22    1    1    2    0    0  0.90350170339E+01  0.21273261336E+02  0.87847667916E+02  0.90837194689E+02  0.00000000000E+00 0. -1.
</event>
<event>
 6    1  0.3624778E-005  0.3633381E+03  0.7818608E-02  0.1135951E+00
          2   -1    0    0  502    0  0.00000000000E+00  0.00000000000E+00  0.25396203376E+03  0.25396203376E+03  0.00000000000E+00 0.  1.
          1   -1    0    0  501    0 -0.00000000000E+00 -0.00000000000E+00 -0.12307470257E+04  0.12307470257E+04  0.00000000000E+00 0.  1.
          2    1    1    2  501    0 -0.71921698819E+02  0.45778142282E+02 -0.13303326660E+03  0.15800702229E+03  0.00000000000E+00 0.  1.
          1    1    1    2  502    0  0.21407369931E+02 -0.26739362794E+01 -0.10645898178E+04  0.10648083891E+04  0.00000000000E+00 0.  1.
         22    1    1    2    0    0  0.54452706463E+02  0.30295209497E+01  0.20626473283E+03  0.21335279527E+03  0.00000000000E+00 0.  1.
         22    1    1    2    0    0 -0.39383775752E+01 -0.46133726953E+02  0.14573359595E+02  0.48540852798E+02  0.00000000000E+00 0. -1.
</event>
<event>
 6    1  0.3624778E-005  0.1495668E+03  0.7818608E-02  0.1238282E+00
          2   -1    0    0  502    0  0.00000000000E+00  0.00000000000E+00  0.96030667570E+03  0.96030667570E+03  0.00000000000E+00 0.  1.
          1   -1    0    0  501    0 -0.00000000000E+00 -0.00000000000E+00 -0.56929907227E+02  0.56929907227E+02  0.00000000000E+00 0.  1.
          2    1    1    2  501    0 -0.32881688622E+02 -0.12725486436E+03  0.41345369025E+03  0.43384209101E+03  0.00000000000E+00 0.  1.
          1    1    1    2  502    0  0.67037506924E+01  0.13809484113E+03  0.90736887585E+02  0.16537323904E+03  0.00000000000E+00 0.  1.
         22    1    1    2    0    0  0.60628377956E+02  0.31524344650E+02  0.19354626569E+03  0.20525530805E+03  0.00000000000E+00 0. -1.
         22    1    1    2    0    0 -0.34450440027E+02 -0.42364321427E+02  0.20563992495E+03  0.21276594484E+03  0.00000000000E+00 0.  1.
</event>
<event>
 6    1  0.3624778E-005  0.1401532E+03  0.7818608E-02  0.1262041E+00
          2   -1    0    0  502    0  0.00000000000E+00  0.00000000000E+00  0.67065423938E+03  0.67065423938E+03  0.00000000000E+00 0.  1.
          1   -1    0    0  501    0 -0.00000000000E+00 -0.00000000000E+00 -0.42883593554E+02  0.42883593554E+02  0.00000000000E+00 0.  1.
          2    1    1    2  501    0  0.67321993741E+02  0.38167946637E+02  0.12759528325E+03  0.14923002144E+03  0.00000000000E+00 0.  1.
          1    1    1    2  502    0 -0.10444747643E+03 -0.20241885588E+02  0.34447850916E+03  0.36053356645E+03  0.00000000000E+00 0.  1.
         22    1    1    2    0    0  0.73533395864E+02  0.18737109378E+02  0.67517617709E+02  0.10157198569E+03  0.00000000000E+00 0.  1.
         22    1    1    2    0    0 -0.36407913176E+02 -0.36663170426E+02  0.88179235697E+02  0.10220225935E+03  0.00000000000E+00 0.  1.
</event>
<event>
 6    1  0.3624778E-005  0.1523466E+03  0.7818608E-02  0.1256672E+00
          2   -1    0    0  502    0  0.00000000000E+00  0.00000000000E+00  0.14665765223E+03  0.14665765223E+03  0.00000000000E+00 0. -1.
          1   -1    0    0  501    0 -0.00000000000E+00 -0.00000000000E+00 -0.31754570096E+03  0.31754570096E+03  0.00000000000E+00 0. -1.
          2    1    1    2  501    0  0.13960404734E+03 -0.35997906598E+02  0.11583018288E+02  0.14463507744E+03  0.00000000000E+00 0. -1.
          1    1    1    2  502    0 -0.13535756048E+03  0.23911792341E+02 -0.12524900890E+03  0.18595902028E+03  0.00000000000E+00 0. -1.
         22    1    1    2    0    0 -0.33820763937E+02  0.29245157862E+02 -0.80612871155E+02  0.92182201794E+02  0.00000000000E+00 0.  1.
         22    1    1    2    0    0  0.29574277075E+02 -0.17159043605E+02  0.23390813043E+02  0.41427053682E+02  0.00000000000E+00 0. -1.
</event>
<event>
 6    1  0.3624778E-005  0.1686742E+03  0.7818608E-02  0.1298888E+00
          2   -1    0    0  502    0  0.00000000000E+00  0.00000000000E+00  0.11562895096E+03  0.11562895096E+03  0.00000000000E+00 0.  1.
          1   -1    0    0  501    0 -0.00000000000E+00 -0.00000000000E+00 -0.78223324298E+03  0.78223324298E+03  0.00000000000E+00 0. -1.
          2    1    1    2  501    0 -0.11378939589E+03 -0.32768942983E+01 -0.11654005557E+02  0.11443155378E+03  0.00000000000E+00 0.  1.
          1    1    1    2  502    0  0.78643733879E+02  0.38096685705E+02 -0.64328203668E+03  0.64919024411E+03  0.00000000000E+00 0. -1.
         22    1    1    2    0    0  0.14683796785E+02  0.81961135150E+00  0.54444593403E+02  0.56395916533E+02  0.00000000000E+00 0. -1.
         22    1    1    2    0    0  0.20461865229E+02 -0.35639402758E+02 -0.66112843186E+02  0.77844479520E+02  0.00000000000E+00 0. -1.
</event>
<event>
 6    1  0.3624778E-005  0.1269913E+03  0.7818608E-02  0.1273188E+00
          2   -1    0    0  502    0  0.00000000000E+00  0.00000000000E+00  0.25761628630E+03  0.25761628630E+03  0.00000000000E+00 0. -1.
          1   -1    0    0  501    0 -0.00000000000E+00 -0.00000000000E+00 -0.38914212643E+03  0.38914212643E+03  0.00000000000E+00 0.  1.
          2    1    1    2  501    0 -0.69288507838E+01 -0.73137161167E+02  0.68739774407E+02  0.10060919392E+03  0.00000000000E+00 0. -1.
          1    1    1    2  502    0  0.22670212181E+02  0.31071849027E+02 -0.34785421698E+03  0.34997421990E+03  0.00000000000E+00 0.  1.
         22    1    1    2    0    0 -0.63763294567E+02  0.24722929906E+02  0.45827470017E+02  0.82323374599E+02  0.00000000000E+00 0. -1.
         22    1    1    2    0    0  0.48021933170E+02  0.17342382234E+02  0.10176113242E+03  0.11385162431E+03  0.00000000000E+00 0. -1.
</event>
<event>
 6    1  0.3624778E-005  0.1054060E+03  0.7818608E-02  0.1289501E+00
          2   -1    0    0  502    0  0.00000000000E+00  0.00000000000E+00  0.97666594357E+02  0.97666594357E+02  0.00000000000E+00 0. -1.
          1   -1    0    0  501    0 -0.00000000000E+00 -0.00000000000E+00 -0.26164802197E+03  0.26164802197E+03  0.00000000000E+00 0. -1.
          2    1    1    2  501    0 -0.12038645998E+02 -0.55336585400E+02 -0.83807500271E+02  0.10114723814E+03  0.00000000000E+00 0. -1.
          1    1    1    2  502    0  0.49984182565E+02 -0.16656520440E+02 -0.94192251426E+02  0.10792607844E+03  0.00000000000E+00 0. -1.
         22    1    1    2    0    0  0.19887218375E+02  0.20362748325E+02 -0.44696855615E+02  0.52990111115E+02  0.00000000000E+00 0. -1.
         22    1    1    2    0    0 -0.57832754942E+02  0.51630357515E+02  0.58715179704E+02  0.97251188625E+02  0.00000000000E+00 0. -1.
</event>
<event>
 6    1  0.3624778E-005  0.1666583E+03  0.7818608E-02  0.1287325E+00
          2   -1    0    0  502    0  0.00000000000E+00  0.00000000000E+00  0.23129747155E+03  0.23129747155E+03  0.00000000000E+00 0. -1.
          1   -1    0    0  501    0 -0.00000000000E+00 -0.00000000000E+00 -0.15784024136E+04  0.15784024136E+04  0.00000000000E+00 0.  1.
          2    1    1    2  501    0  0.72733667381E+01 -0.11649692143E+03  0.56800676194E+02  0.12981044404E+03  0.00000000000E+00 0. -1.
          1    1    1    2  502    0 -0.47392397261E+01  0.15949247217E+03 -0.15058775219E+04  0.15143075712E+04  0.00000000000E+00 0.  1.
         22    1    1    2    0    0  0.86030307374E+01  0.16843860065E+02  0.10298404992E+03  0.10470645776E+03  0.00000000000E+00 0. -1.
         22    1    1    2    0    0 -0.11137157749E+02 -0.59839410803E+02 -0.10121462453E+01  0.60875412179E+02  0.00000000000E+00 0.  1.
</event>
<event>
 6    1  0.3624778E-005  0.1235428E+03  0.7818608E-02  0.1239299E+00
          2   -1    0    0  502    0  0.00000000000E+00  0.00000000000E+00  0.35047588971E+03  0.35047588971E+03  0.00000000000E+00 0.  1.
          1   -1    0    0  501    0 -0.00000000000E+00 -0.00000000000E+00 -0.20628199842E+03  0.20628199842E+03  0.00000000000E+00 0. -1.
          2    1    1    2  501    0  0.74559015877E+02  0.43514466936E+02  0.56514464608E+02  0.10318158940E+03  0.00000000000E+00 0.  1.
          1    1    1    2  502    0 -0.81662384424E+02  0.74639009789E+02 -0.13243916924E+03  0.17256842226E+03  0.00000000000E+00 0. -1.
         22    1    1    2    0    0  0.30962001901E+02  0.18021810420E+02  0.55220024013E+02  0.65823113452E+02  0.00000000000E+00 0.  1.
         22    1    1    2    0    0 -0.23858633353E+02 -0.13617528715E+03  0.16489857191E+03  0.21518476302E+03  0.00000000000E+00 0. -1.
</event>
<event>
 6    1  0.3624778E-005  0.1589958E+03  0.7818608E-02  0.1256693E+00
          2   -1    0    0  502    0  0.00000000000E+00  0.00000000000E+00  0.40892362134E+02  0.40892362134E+02  0.00000000000E+00 0.  1.
          1   -1    0    0  501    0 -0.00000000000E+00 -0.00000000000E+00 -0.24837201521E+04  0.24837201521E+04  0.00000000000E+00 0.  1.
          2    1    1    2  501    0 -0.88203116792E+02 -0.15898278325E+02 -0.16602152422E+03  0.18866820498E+03  0.00000000000E+00 0.  1.
          1    1    1    2  502    0  0.92446272574E+02 -0.56023477144E+02 -0.21218866363E+04  0.21246382846E+04  0.00000000000E+00 0.  1.
         22    1    1    2    0    0  0.36351168338E+02 -0.14980117775E+02 -0.15903156233E+02  0.42411339831E+02  0.00000000000E+00 0. -1.
         22    1    1    2    0    0 -0.40594324120E+02  0.86901873243E+02 -0.13901647329E+03  0.16889468485E+03  0.00000000000E+00 0.  1.
</event>
<event>
 6    1  0.3624778E-005  0.5474405E+03  0.7818608E-02  0.1138341E+00
          2   -1    0    0  502    0  0.00000000000E+00  0.00000000000E+00  0.35077399160E+02  0.35077399160E+02  0.00000000000E+00 0. -1.
          1   -1    0    0  501    0 -0.00000000000E+00 -0.00000000000E+00 -0.37707227951E+04  0.37707227951E+04  0.00000000000E+00 0. -1.
          2    1    1    2  501    0 -0.14723712397E+03 -0.16033218329E+02 -0.23446466754E+04  0.23493198733E+04  0.00000000000E+00 0. -1.
          1    1    1    2  502    0 -0.11325129387E+02 -0.12729033051E+03 -0.87207962533E+03  0.88139319246E+03  0.00000000000E+00 0. -1.
         22    1    1    2    0    0  0.17004373983E+03  0.14901123136E+03 -0.51369469663E+03  0.56124991036E+03  0.00000000000E+00 0. -1.
         22    1    1    2    0    0 -0.11481486476E+02 -0.56876825224E+01 -0.52243985547E+01  0.13837218089E+02  0.00000000000E+00 0.  1.
</event>
<event>
 6    1  0.3624778E-005  0.8127024E+02  0.7818608E-02  0.1400626E+00
          2   -1    0    0  502    0  0.00000000000E+00  0.00000000000E+00  0.53903433487E+02  0.53903433487E+02  0.00000000000E+00 0.  1.
          1   -1    0    0  501    0 -0.00000000000E+00 -0.00000000000E+00 -0.37420281922E+03  0.37420281922E+03  0.00000000000E+00 0. -1.
          2    1    1    2  501    0 -0.25605629088E+02 -0.54131182518E+01 -0.90552434937E+02  0.94258652458E+02  0.00000000000E+00 0.  1.
          1    1    1    2  502    0  0.69777727857E+02  0.30770750761E+02 -0.16699372602E+03  0.18358288302E+03  0.00000000000E+00 0. -1.
         22    1    1    2    0    0  0.10150468014E+02 -0.20748139882E+02  0.32880676726E+02  0.40182785013E+02  0.00000000000E+00 0.  1.
         22    1    1    2    0    0 -0.54322566783E+02 -0.46094926265E+01 -0.95633901497E+02  0.11008193221E+03  0.00000000000E+00 0.  1.
</event>
<event>
 6    1  0.3624778E-005  0.4634998E+03  0.7818608E-02  0.1084853E+00
          2   -1    0    0  502    0  0.00000000000E+00  0.00000000000E+00  0.45068619566E+03  0.45068619566E+03  0.00000000000E+00 0.  1.
          1   -1    0    0  501    0 -0.00000000000E+00 -0.00000000000E+00 -0.21790373121E+04  0.21790373121E+04  0.00000000000E+00 0.  1.
          2    1    1    2  501    0 -0.29194313238E+03 -0.28845785872E+03  0.23506796510E+03  0.47296477355E+03  0.00000000000E+00 0.  1.
          1    1    1    2  502    0  0.18861221080E+03  0.23429398196E+03 -0.19633730401E+04  0.19862784122E+04  0.00000000000E+00 0.  1.
         22    1    1    2    0    0  0.75577472939E+02 -0.23199235625E+02 -0.27687535629E+02  0.83766094445E+02  0.00000000000E+00 0. -1.
         22    1    1    2    0    0  0.27753448636E+02  0.77363112383E+02  0.27641494186E+02  0.86714227608E+02  0.00000000000E+00 0. -1.
</event>
<event>
 6    1  0.3624778E-005  0.4665984E+02  0.7818608E-02  0.1503500E+00
          2   -1    0    0  502    0  0.00000000000E+00  0.00000000000E+00  0.56637807245E+02  0.56637807245E+02  0.00000000000E+00 0. -1.
          1   -1    0    0  501    0 -0.00000000000E+00 -0.00000000000E+00 -0.25451128383E+04  0.25451128383E+04  0.00000000000E+00 0. -1.
          2    1    1    2  501    0  0.23563295149E+02 -0.28061708292E+02 -0.30425403804E+03  0.30645261952E+03  0.00000000000E+00 0. -1.
          1    1    1    2  502    0 -0.41046373911E+01  0.28945342926E+02 -0.21628554301E+04  0.21630530027E+04  0.00000000000E+00 0. -1.
         22    1    1    2    0    0 -0.28807574075E+01 -0.22033153411E+02 -0.71766460377E+02  0.75127780797E+02  0.00000000000E+00 0. -1.
         22    1    1    2    0    0 -0.16577900351E+02  0.21149518777E+02  0.50400897486E+02  0.57117242510E+02  0.00000000000E+00 0. -1.
</event>
<event>
 6    1  0.3624778E-005  0.1263833E+03  0.7818608E-02  0.1236592E+00
          2   -1    0    0  502    0  0.00000000000E+00  0.00000000000E+00  0.11013570828E+03  0.11013570828E+03  0.00000000000E+00 0.  1.
          1   -1    0    0  501    0 -0.00000000000E+00 -0.00000000000E+00 -0.32044800285E+03  0.32044800285E+03  0.00000000000E+00 0.  1.
          2    1    1    2  501    0  0.41641333232E+02  0.28874180990E+02 -0.57265730574E+02  0.76466220381E+02  0.00000000000E+00 0.  1.
          1    1    1    2  502    0 -0.56671078995E+02  0.70352315516E+02  0.44292072526E+02  0.10061236098E+03  0.00000000000E+00 0.  1.
         22    1    1    2    0    0 -0.26654725647E+02  0.12306193261E+02 -0.90388523512E+01  0.30718360043E+02  0.00000000000E+00 0.  1.
         22    1    1    2    0    0  0.41684471409E+02 -0.11153268977E+03 -0.18829978418E+03  0.22278676972E+03  0.00000000000E+00 0.  1.
</event>
<event>
 6    1  0.3624778E-005  0.1434292E+03  0.7818608E-02  0.1241426E+00
          2   -1    0    0  502    0  0.00000000000E+00  0.00000000000E+00  0.10124981150E+04  0.10124981150E+04  0.00000000000E+00 0. -1.
          1   -1    0    0  501    0 -0.00000000000E+00 -0.00000000000E+00 -0.39678686415E+02  0.39678686415E+02  0.00000000000E+00 0. -1.
          2    1    1    2  501    0 -0.12933041781E+02 -0.55092699408E+02  0.18938880256E+03  0.19766281297E+03  0.00000000000E+00 0. -1.
          1    1    1    2  502    0  0.21918897188E+02 -0.42809558689E+02 -0.60553125884E+01  0.48474355896E+02  0.00000000000E+00 0. -1.
         22    1    1    2    0    0  0.58690100254E+02  0.44528826505E+02  0.29247556683E+03  0.30161117594E+03  0.00000000000E+00 0. -1.
         22    1    1    2    0    0 -0.67675955660E+02  0.53373431591E+02  0.49701037179E+03  0.50442845661E+03  0.00000000000E+00 0. -1.
</event>
<event>
 6    1  0.4662676E-005  0.8943523E+02  0.7818608E-02  0.1345944E+00
          2   -1    0    0  502    0  0.00000000000E+00  0.00000000000E+00  0.44532815361E+03  0.44532815361E+03  0.00000000000E+00 0.  1.
          1   -1    0    0  501    0 -0.00000000000E+00 -0.00000000000E+00 -0.42491060992E+04  0.42491060992E+04  0.00000000000E+00 0. -1.
          2    1    1    2  501    0 -0.71113874160E+02  0.24494172628E+02  0.17934104016E+03  0.19447456460E+03  0.00000000000E+00 0.  1.
          1    1    1    2  502    0  0.73381383226E+02 -0.31012225758E+01 -0.42250634979E+04  0.42257018360E+04  0.00000000000E+00 0. -1.
         22    1    1    2    0    0 -0.41363058415E+02 -0.42694888297E+01  0.22421915299E+03  0.22804245154E+03  0.00000000000E+00 0.  1.
         22    1    1    2    0    0  0.39095549349E+02 -0.17123461223E+02  0.17725359187E+02  0.46215400696E+02  0.00000000000E+00 0. -1.
</event>
<event>
 6    1  0.3624778E-005  0.3128120E+03  0.7818608E-02  0.1220828E+00
          2   -1    0    0  502    0  0.00000000000E+00  0.00000000000E+00  0.11085833180E+03  0.11085833180E+03  0.00000000000E+00 0. -1.
          1   -1    0    0  501    0 -0.00000000000E+00 -0.00000000000E+00 -0.77708031839E+03  0.77708031839E+03  0.00000000000E+00 0. -1.
          2    1    1    2  501    0  0.16850831233E+03  0.14931561830E+02 -0.18393307998E+03  0.24989874104E+03  0.00000000000E+00 0. -1.
          1    1    1    2  502    0 -0.11099338760E+03 -0.14828755305E+03 -0.37674035289E+03  0.41981189118E+03  0.00000000000E+00 0. -1.
         22    1    1    2    0    0 -0.90861230706E+01 -0.56768137291E+01  0.21332659585E+02  0.23871870717E+02  0.00000000000E+00 0. -1.
         22    1    1    2    0    0 -0.48428801661E+02  0.13903280495E+03 -0.12688121331E+03  0.19435614725E+03  0.00000000000E+00 0. -1.
</event>
<event>
 6    1  0.3624778E-005  0.1196461E+03  0.7818608E-02  0.1257706E+00
          2   -1    0    0  502    0  0.00000000000E+00  0.00000000000E+00  0.25202369137E+04  0.25202369137E+04  0.00000000000E+00 0. -1.
          1   -1    0    0  501    0 -0.00000000000E+00 -0.00000000000E+00 -0.30465687203E+02  0.30465687203E+02  0.00000000000E+00 0. -1.
          2    1    1    2  501    0 -0.28571267591E+02  0.48304319639E+02  0.59650950110E+02  0.81901529146E+02  0.00000000000E+00 0. -1.
          1    1    1    2  502    0  0.94747302974E+02 -0.11704337287E+03  0.20840135829E+04  0.20894470120E+04  0.00000000000E+00 0. -1.
         22    1    1    2    0    0 -0.56019830478E+02 -0.21126971987E+02  0.93301014677E+02  0.11085869245E+03  0.00000000000E+00 0.  1.
         22    1    1    2    0    0 -0.10156204905E+02  0.89866025222E+02  0.25280567884E+03  0.26849536726E+03  0.00000000000E+00 0. -1.
</event>
<event>
 6    1  0.3624778E-005  0.2857449E+03  0.7818608E-02  0.1157843E+00
          2   -1    0    0  502    0  0.00000000000E+00  0.00000000000E+00  0.30168383903E+03  0.30168383903E+03  0.00000000000E+00 0.  1.
          1   -1    0    0  501    0 -0.00000000000E+00 -0.00000000000E+00 -0.38598847771E+03  0.38598847771E+03  0.00000000000E+00 0.  1.
          2    1    1    2  501    0 -0.20765031224E+02 -0.10525093879E+02 -0.10822914919E+02  0.25672935365E+02  0.00000000000E+00 0.  1.
          1    1    1    2  502    0  0.16982294839E+03  0.24646108714E+03 -0.16534222496E+03  0.34193705946E+03  0.00000000000E+00 0.  1.
         22    1    1    2    0    0 -0.14454217087E+01 -0.56651805773E+02  0.65071430464E+02  0.86289092033E+02  0.00000000000E+00 0.  1.
         22    1    1    2    0    0 -0.14761249545E+03 -0.17928418749E+03  0.26789070738E+02  0.23377322988E+03  0.00000000000E+00 0.  1.
</event>
<event>
 6    1  0.3624778E-005  0.1909162E+03  0.7818608E-02  0.1159366E+00
          2   -1    0    0  502    0  0.00000000000E+00  0.00000000000E+00  0.11730818838E+04  0.11730818838E+04  0.00000000000E+00 0. -1.
          1   -1    0    0  501    0 -0.00000000000E+00 -0.00000000000E+00 -0.22371390564E+03  0.22371390564E+03  0.00000000000E+00 0. -1.
          2    1    1    2  501    0  0.11580841799E+03  0.93524827858E+02  0.46689613358E+03  0.49005151020E+03  0.00000000000E+00 0. -1.
          1    1    1    2  502    0  0.66832691072E+02 -0.61770816645E+01 -0.18564612938E+03  0.19740630762E+03  0.00000000000E+00 0. -1.
         22    1    1    2    0    0 -0.46903322591E+00  0.24035255055E+02  0.85897198354E+02  0.89197769943E+02  0.00000000000E+00 0. -1.
         22    1    1    2    0    0 -0.18217207583E+03 -0.11138300125E+03  0.58222077564E+03  0.62014020170E+03  0.00000000000E+00 0. -1.
</event>
<event>
 6    1  0.3624778E-005  0.1113165E+03  0.7818608E-02  0.1288755E+00
          2   -1    0    0  502    0  0.00000000000E+00  0.00000000000E+00  0.57163578643E+03  0.57163578643E+03  0.00000000000E+00 0.  1.
          1   -1    0    0  501    0 -0.00000000000E+00 -0.00000000000E+00 -0.49221504882E+03  0.49221504882E+03  0.00000000000E+00 0. -1.
          2    1    1    2  501    0  0.63481307409E+02  0.87972544042E+01  0.16377606682E+03  0.17586889475E+03  0.00000000000E+00 0.  1.
          1    1    1    2  502    0 -0.58879304125E+02 -0.28445245504E+02 -0.47398295723E+03  0.47847230661E+03  0.00000000000E+00 0. -1.
         22    1    1    2    0    0  0.47617991150E+01  0.67934534850E+02  0.29617324305E+03  0.30390190137E+03  0.00000000000E+00 0.  1.
         22    1    1    2    0    0 -0.93638023993E+01 -0.48286543750E+02  0.93454384957E+02  0.10560773253E+03  0.00000000000E+00 0.  1.
</event>
<event>
 6    1  0.3624778E-005  0.1753307E+03  0.7818608E-02  0.1262688E+00
          2   -1    0    0  502    0  0.00000000000E+00  0.00000000000E+00  0.75003373531E+03  0.75003373531E+03  0.00000000000E+00 0.  1.
          1   -1    0    0  501    0 -0.00000000000E+00 -0.00000000000E+00 -0.59290251779E+02  0.59290251779E+02  0.00000000000E+00 0.  1.
          2    1    1    2  501    0 -0.48478891925E+02  0.10954070144E+03  0.11183898594E+03  0.16388205213E+03  0.00000000000E+00 0.  1.
          1    1    1    2  502    0  0.80903092091E+02 -0.11624419566E+03  0.40905098482E+03  0.43287496060E+03  0.00000000000E+00 0.  1.
         22    1    1    2    0    0  0.21157700515E+02 -0.15213366169E+02  0.14864710492E+03  0.15091407026E+03  0.00000000000E+00 0.  1.
         22    1    1    2    0    0 -0.53581900680E+02  0.21916860392E+02  0.21206407857E+02  0.61652904101E+02  0.00000000000E+00 0. -1.
</event>
<event>
 6    1  0.3624778E-005  0.7010502E+03  0.7818608E-02  0.1073506E+00
          2   -1    0    0  502    0  0.00000000000E+00  0.00000000000E+00  0.64085420970E+03  0.64085420970E+03  0.00000000000E+00 0. -1.
          1   -1    0    0  501    0 -0.00000000000E+00 -0.00000000000E+00 -0.69698616065E+03  0.69698616065E+03  0.00000000000E+00 0. -1.
          2    1    1    2  501    0 -0.22907104334E+03  0.11905417791E+03  0.15679248644E+02  0.25863735038E+03  0.00000000000E+00 0. -1.
          1    1    1    2  502    0 -0.17849358672E+03 -0.12515693117E+03 -0.45563432816E+03  0.50510084035E+03  0.00000000000E+00 0. -1.
         22    1    1    2    0    0  0.14720272901E+02  0.28707778681E+02  0.41342931573E+02  0.52441023847E+02  0.00000000000E+00 0.  1.
         22    1    1    2    0    0  0.39284435716E+03 -0.22605025417E+02  0.34248019699E+03  0.52166115579E+03  0.00000000000E+00 0. -1.
</event>
<event>
 6    1  0.4080011E-005  0.4908289E+02  0.7818608E-02  0.1509239E+00
          2   -1    0    0  502    0  0.00000000000E+00  0.00000000000E+00  0.42684748353E+02  0.42684748353E+02  0.00000000000E+00 0.  1.
          1   -1    0    0  501    0 -0.00000000000E+00 -0.00000000000E+00 -0.23933346764E+04  0.23933346764E+04  0.00000000000E+00 0. -1.
          2    1    1    2  501    0  0.20651950919E+02  0.74566149966E+01 -0.51577087262E+02  0.56056222798E+02  0.00000000000E+00 0.  1.
          1    1    1    2  502    0 -0.39599100908E+02 -0.11191541230E+02 -0.22456131501E+04  0.22459901512E+04  0.00000000000E+00 0. -1.
         22    1    1    2    0    0  0.15619056564E+02 -0.17353585231E+02 -0.89274903826E+02  0.92277355301E+02  0.00000000000E+00 0. -1.
         22    1    1    2    0    0  0.33280934247E+01  0.21088511464E+02  0.35815213175E+02  0.41695695418E+02  0.00000000000E+00 0.  1.
</event>
<event>
 6    1  0.3624778E-005  0.4740761E+03  0.7818608E-02  0.1149361E+00
          2   -1    0    0  502    0  0.00000000000E+00  0.00000000000E+00  0.22429265700E+03  0.22429265700E+03  0.00000000000E+00 0. -1.
          1   -1    0    0  501    0 -0.00000000000E+00 -0.00000000000E+00 -0.13792027084E+04  0.13792027084E+04  0.00000000000E+00 0. -1.
          2    1    1    2  501    0 -0.14801335817E+02 -0.13194171785E+03 -0.21763744869E+03  0.25493872896E+03  0.00000000000E+00 0. -1.
          1    1    1    2  502    0  0.19217362918E+03  0.26581690266E+02 -0.10608264282E+04  0.10784201412E+04  0.00000000000E+00 0. -1.
         22    1    1    2    0    0 -0.19252095648E+03  0.10503964751E+03  0.97524171447E+02  0.24001793735E+03  0.00000000000E+00 0. -1.
         22    1    1    2    0    0  0.15148663120E+02  0.32038007159E+00  0.26029654104E+02  0.30118557908E+02  0.00000000000E+00 0.  1.
</event>
<event>
 6    1  0.3624778E-005  0.1408862E+03  0.7818608E-02  0.1325572E+00
          2   -1    0    0  502    0  0.00000000000E+00  0.00000000000E+00  0.10341315441E+03  0.10341315441E+03  0.00000000000E+00 0. -1.
          1   -1    0    0  501    0 -0.00000000000E+00 -0.00000000000E+00 -0.33281216834E+03  0.33281216834E+03  0.00000000000E+00 0. -1.
          2    1    1    2  501    0  0.29049574796E+02 -0.61153889012E+02  0.98227605959E+01  0.68411713637E+02  0.00000000000E+00 0. -1.
          1    1    1    2  502    0  0.99797442032E+01  0.68653710372E+02 -0.22348719980E+03  0.23400738390E+03  0.00000000000E+00 0. -1.
         22    1    1    2    0    0  0.15572430816E+02 -0.33013086015E+00  0.47479101647E+02  0.49968737038E+02  0.00000000000E+00 0.  1.
         22    1    1    2    0    0 -0.54601749816E+02 -0.71696904999E+01 -0.63213676369E+02  0.83837488184E+02  0.00000000000E+00 0. -1.
</event>
<event>
 6    1  0.3624778E-005  0.7563657E+02  0.7818608E-02  0.1358144E+00
          2   -1    0    0  502    0  0.00000000000E+00  0.00000000000E+00  0.15555045043E+03  0.15555045043E+03  0.00000000000E+00 0.  1.
          1   -1    0    0  501    0 -0.00000000000E+00 -0.00000000000E+00 -0.97671319941E+03  0.97671319941E+03  0.00000000000E+00 0. -1.
          2    1    1    2  501    0  0.10354751323E+02  0.48474033994E+02  0.49377581605E+02  0.69964979895E+02  0.00000000000E+00 0.  1.
          1    1    1    2  502    0 -0.26857130771E+02 -0.25572622840E+02 -0.92407702414E+03  0.92482085349E+03  0.00000000000E+00 0. -1.
         22    1    1    2    0    0  0.25135390432E+02 -0.37066947758E+02 -0.28957753728E+02  0.53331960110E+02  0.00000000000E+00 0.  1.
         22    1    1    2    0    0 -0.86330109844E+01  0.14165536604E+02  0.82494447285E+02  0.84145856338E+02  0.00000000000E+00 0.  1.
</event>
<event>
 6    1  0.3624778E-005  0.1264369E+03  0.7818608E-02  0.1322294E+00
          2   -1    0    0  502    0  0.00000000000E+00  0.00000000000E+00  0.92755703987E+02  0.92755703987E+02  0.00000000000E+00 0.  1.
          1   -1    0    0  501    0 -0.00000000000E+00 -0.00000000000E+00 -0.29629152463E+04  0.29629152463E+04  0.00000000000E+00 0. -1.
          2    1    1    2  501    0 -0.22166496996E+02  0.81502697304E+02 -0.90445608947E+02  0.12375157144E+03  0.00000000000E+00 0.  1.
          1    1    1    2  502    0 -0.32749573959E+02 -0.54800798468E+02 -0.27934173006E+04  0.27941467172E+04  0.00000000000E+00 0. -1.
         22    1    1    2    0    0  0.52303133697E+02 -0.40106969162E+01 -0.48540954596E+02  0.71469768136E+02  0.00000000000E+00 0.  1.
         22    1    1    2    0    0  0.26129372570E+01 -0.22691201920E+02  0.62244321822E+02  0.66302893487E+02  0.00000000000E+00 0.  1.
</event>
<event>
 6    1  0.3624778E-005  0.4256681E+03  0.7818608E-02  0.1180547E+00
          2   -1    0    0  502    0  0.00000000000E+00  0.00000000000E+00  0.54846761799E+03  0.54846761799E+03  0.00000000000E+00 0.  1.
          1   -1    0    0  501    0 -0.00000000000E+00 -0.00000000000E+00 -0.36205380590E+03  0.36205380590E+03  0.00000000000E+00 0.  1.
          2    1    1    2  501    0 -0.13458144600E+02  0.12087703622E+03 -0.12627579437E+02  0.12227769750E+03  0.00000000000E+00 0.  1.
          1    1    1    2  502    0  0.22775224985E+03 -0.34530483478E+03  0.18684732726E+03  0.45389254228E+03  0.00000000000E+00 0.  1.
         22    1    1    2    0    0 -0.20869649163E+03  0.21591227020E+03 -0.19637198016E+02  0.30092848583E+03  0.00000000000E+00 0.  1.
         22    1    1    2    0    0 -0.55976136226E+01  0.85155283592E+01  0.31831262282E+02  0.33422698275E+02  0.00000000000E+00 0.  1.
</event>
<event>
 6    1  0.3624778E-005  0.1238136E+03  0.7818608E-02  0.1300358E+00
          2   -1    0    0  502    0  0.00000000000E+00  0.00000000000E+00  0.26691966643E+03  0.26691966643E+03  0.00000000000E+00 0. -1.
          1   -1    0    0  501    0 -0.00000000000E+00 -0.00000000000E+00 -0.21187613142E+03  0.21187613142E+03  0.00000000000E+00 0. -1.
          2    1    1    2  501    0 -0.25369925959E+02 -0.74391372935E+02  0.63728136782E+01  0.78856339406E+02  0.00000000000E+00 0. -1.
          1    1    1    2  502    0 -0.12343322391E+02  0.34500684046E+02 -0.15294218739E+03  0.15727036431E+03  0.00000000000E+00 0. -1.
         22    1    1    2    0    0  0.56996792870E+02  0.92670598346E+01  0.25934106510E+02  0.63301585098E+02  0.00000000000E+00 0. -1.
         22    1    1    2    0    0 -0.19283544520E+02  0.30623629054E+02  0.17567880222E+03  0.17936750903E+03  0.00000000000E+00 0. -1.
</event>
<event>
 6    1  0.3624778E-005  0.1640452E+03  0.7818608E-02  0.1274771E+00
          2   -1    0    0  502    0  0.00000000000E+00  0.00000000000E+00  0.20579292754E+03  0.20579292754E+03  0.00000000000E+00 0.  1.
          1   -1    0    0  501    0 -0.00000000000E+00 -0.00000000000E+00 -0.47313669849E+03  0.47313669849E+03  0.00000000000E+00 0. -1.
          2    1    1    2  501    0  0.98349997308E+02  0.70080680446E+02  0.13462725986E+02  0.12151242214E+03  0.00000000000E+00 0.  1.
          1    1    1    2  502    0 -0.13493369533E+03 -0.54683838664E+02 -0.37156167050E+03  0.39906828906E+03  0.00000000000E+00 0. -1.
         22    1    1    2    0    0 -0.24920206225E+02 -0.35668977481E+01  0.92327398726E+02  0.95697899628E+02  0.00000000000E+00 0.  1.
         22    1    1    2    0    0  0.61503904251E+02 -0.11829944033E+02 -0.15722251545E+01  0.62651015202E+02  0.00000000000E+00 0. -1.
</event>
<event>
 6    1  0.3624778E-005  0.6795965E+02  0.7818608E-02  0.1369751E+00
          2   -1    0    0  502    0  0.00000000000E+00  0.00000000000E+00  0.55782247857E+03  0.55782247857E+03  0.00000000000E+00 0. -1.
          1   -1    0    0  501    0 -0.00000000000E+00 -0.00000000000E+00 -0.98654005341E+03  0.98654005341E+03  0.00000000000E+00 0.  1.
          2    1    1    2  501    0 -0.17415657136E+02 -0.20662866903E+02  0.64915192463E+02  0.70315299862E+02  0.00000000000E+00 0. -1.
          1    1    1    2  502    0  0.27918504480E+02  0.25983320633E+02 -0.97538792699E+03  0.97613328187E+03  0.00000000000E+00 0.  1.
         22    1    1    2    0    0 -0.59663302155E+02 -0.31115007051E+02  0.20896345112E+03  0.21953035597E+03  0.00000000000E+00 0. -1.
         22    1    1    2    0    0  0.49160454811E+02  0.25794553320E+02  0.27279170857E+03  0.27838359428E+03  0.00000000000E+00 0. -1.
</event>
<event>
 6    1  0.3624778E-005  0.6882468E+02  0.7818608E-02  0.1407781E+00
          2   -1    0    0  502    0  0.00000000000E+00  0.00000000000E+00  0.85331177421E+02  0.85331177421E+02  0.00000000000E+00 0. -1.
          1   -1    0    0  501    0 -0.00000000000E+00 -0.00000000000E+00 -0.34602280832E+03  0.34602280832E+03  0.00000000000E+00 0. -1.
          2    1    1    2  501    0 -0.29351965761E+02  0.90530179129E+01 -0.64126360057E+02  0.71103340860E+02  0.00000000000E+00 0. -1.
          1    1    1    2  502    0  0.67121202952E+02  0.35195973282E+02 -0.21205224313E+03  0.22518917877E+03  0.00000000000E+00 0. -1.
         22    1    1    2    0    0 -0.27219612715E+02 -0.11947524924E+02 -0.51775873352E+02  0.59702526995E+02  0.00000000000E+00 0. -1.
         22    1    1    2    0    0 -0.10549624476E+02 -0.32301466270E+02  0.67262845642E+02  0.75358939109E+02  0.00000000000E+00 0. -1.
</event>
<event>
 6    1  0.3624778E-005  0.7881496E+02  0.7818608E-02  0.1337483E+00
          2   -1    0    0  502    0  0.00000000000E+00  0.00000000000E+00  0.69652666833E+02  0.69652666833E+02  0.00000000000E+00 0. -1.
          1   -1    0    0  501    0 -0.00000000000E+00 -0.00000000000E+00 -0.17514619742E+04  0.17514619742E+04  0.00000000000E+00 0.  1.
          2    1    1    2  501    0  0.20435833803E+02 -0.24612401918E+02 -0.26007982964E+02  0.41228737663E+02  0.00000000000E+00 0. -1.
          1    1    1    2  502    0 -0.75295169536E+01  0.32175151494E+02 -0.16517676947E+04  0.16520981966E+04  0.00000000000E+00 0.  1.
         22    1    1    2    0    0  0.22089977628E+02 -0.59995567989E+02 -0.89528333387E+01  0.64556862646E+02  0.00000000000E+00 0. -1.
         22    1    1    2    0    0 -0.34996294478E+02  0.52432818413E+02  0.49192036987E+01  0.63230844047E+02  0.00000000000E+00 0.  1.
</event>
<event>
 6    1  0.3624778E-005  0.3424094E+02  0.7818608E-02  0.1617547E+00
          2   -1    0    0  502    0  0.00000000000E+00  0.00000000000E+00  0.50934552160E+02  0.50934552160E+02  0.00000000000E+00 0. -1.
          1   -1    0    0  501    0 -0.00000000000E+00 -0.00000000000E+00 -0.41994955019E+03  0.41994955019E+03  0.00000000000E+00 0. -1.
          2    1    1    2  501    0  0.20083983700E+01 -0.27592874596E+02 -0.13360227487E+03  0.13643668217E+03  0.00000000000E+00 0. -1.
          1    1    1    2  502    0  0.15175164130E+01  0.28748607472E+02 -0.20273070461E+03  0.20476455719E+03  0.00000000000E+00 0. -1.
         22    1    1    2    0    0  0.85836775676E+01 -0.11616445754E+02 -0.79191279153E+02  0.80497701995E+02  0.00000000000E+00 0.  1.
         22    1    1    2    0    0 -0.12109592351E+02  0.10460712878E+02  0.46509260600E+02  0.49185160997E+02  0.00000000000E+00 0. -1.
</event>
<event>
 6    1  0.3624778E-005  0.4048545E+03  0.7818608E-02  0.1117938E+00
          2   -1    0    0  502    0  0.00000000000E+00  0.00000000000E+00  0.10401600874E+03  0.10401600874E+03  0.00000000000E+00 0. -1.
          1   -1    0    0  501    0 -0.00000000000E+00 -0.00000000000E+00 -0.92286927713E+03  0.92286927713E+03  0.00000000000E+00 0.  1.
          2    1    1    2  501    0  0.84989749121E+02 -0.14811153363E+02 -0.44181088737E+03  0.45015495990E+03  0.00000000000E+00 0. -1.
          1    1    1    2  502    0  0.68033004841E+01  0.40167088116E+02 -0.41042938824E+03  0.41244631480E+03  0.00000000000E+00 0.  1.
         22    1    1    2    0    0 -0.38758925812E+02 -0.24415635669E+02  0.80967893497E+02  0.93027831172E+02  0.00000000000E+00 0. -1.
         22    1    1    2    0    0 -0.53034123793E+02 -0.94029908418E+00 -0.47580886279E+02  0.71256179998E+02  0.00000000000E+00 0.  1.
</event>
<event>
 6    1  0.3624778E-005  0.8389985E+02  0.7818608E-02  0.1351872E+00
          2   -1    0    0  502    0  0.00000000000E+00  0.00000000000E+00  0.13857165552E+03  0.13857165552E+03  0.00000000000E+00 0.  1.
          1   -1    0    0  501    0 -0.00000000000E+00 -0.00000000000E+00 -0.68192726130E+03  0.68192726130E+03  0.00000000000E+00 0.  1.
          2    1    1    2  501    0 -0.19851119444E+02  0.20778223452E+02  0.13157710706E+01  0.28766869251E+02  0.00000000000E+00 0.  1.
          1    1    1    2  502    0  0.81966960642E+02 -0.17045182683E+02 -0.62469234958E+03  0.63027744090E+03  0.00000000000E+00 0.  1.
         22    1    1    2    0    0 -0.31254327137E+02  0.31339524694E+02 -0.21866372715E+02  0.49367368054E+02  0.00000000000E+00 0.  1.
         22    1    1    2    0    0 -0.30861514060E+02 -0.35072565463E+02  0.10188734545E+03  0.11208723862E+03  0.00000000000E+00 0.  1.
</event>
<event>
 6    1  0.3624778E-005  0.3875206E+03  0.7818608E-02  0.1165180E+00
          2   -1    0    0  502    0  0.00000000000E+00  0.00000000000E+00  0.34259527928E+03  0.34259527928E+03  0.00000000000E+00 0.  1.
          1   -1    0    0  501    0 -0.00000000000E+00 -0.00000000000E+00 -0.97890921393E+03  0.97890921393E+03  0.00000000000E+00 0.  1.
          2    1    1    2  501    0  0.12517738663E+03 -0.14981423380E+03  0.66196935566E+02  0.20614489334E+03  0.00000000000E+00 0.  1.
          1    1    1    2  502    0 -0.30537859044E+03  0.22152321499E+03 -0.78529258863E+03  0.87121356052E+03  0.00000000000E+00 0.  1.
         22    1    1    2    0    0  0.95216804025E-01  0.19160887445E+02  0.30045842040E+02  0.35635674510E+02  0.00000000000E+00 0. -1.
         22    1    1    2    0    0  0.18010598701E+03 -0.90869868635E+02  0.52735876376E+02  0.20851036482E+03  0.00000000000E+00 0.  1.
</event>
<event>
 6    1  0.3624778E-005  0.5912509E+02  0.7818608E-02  0.1412266E+00
          2   -1    0    0  502    0  0.00000000000E+00  0.00000000000E+00  0.42099211933E+03  0.42099211933E+03  0.00000000000E+00 0.  1.
          1   -1    0    0  501    0 -0.00000000000E+00 -0.00000000000E+00 -0.24063105236E+04  0.24063105236E+04  0.00000000000E+00 0. -1.
          2    1    1    2  501    0 -0.28586750502E+02  0.48399126938E+01  0.45806872954E+02  0.54211591647E+02  0.00000000000E+00 0.  1.
          1    1    1    2  502    0  0.50163240235E+02 -0.66481309134E+01 -0.23914459654E+04  0.23919812612E+04  0.00000000000E+00 0. -1.
         22    1    1    2    0    0  0.37041757469E+02  0.33546005000E+02  0.22212944658E+03  0.22768161385E+03  0.00000000000E+00 0.  1.
         22    1    1    2    0    0 -0.58618247203E+02 -0.31737786780E+02  0.13819124161E+03  0.15342817627E+03  0.00000000000E+00 0.  1.
</event>
<event>
 6    1  0.3624778E-005  0.7900645E+02  0.7818608E-02  0.1372246E+00
          2   -1    0    0  502    0  0.00000000000E+00  0.00000000000E+00  0.19868859447E+03  0.19868859447E+03  0.00000000000E+00 0.  1.
          1   -1    0    0  501    0 -0.00000000000E+00 -0.00000000000E+00 -0.14121130976E+03  0.14121130976E+03  0.00000000000E+00 0.  1.
          2    1    1    2  501    0 -0.18151796182E+02  0.36530808076E+02 -0.10289269560E+03  0.11068375875E+03  0.00000000000E+00 0.  1.
          1    1    1    2  502    0  0.23195460423E+02 -0.18426099575E+02  0.12200446188E+02  0.32037500167E+02  0.00000000000E+00 0.  1.
         22    1    1    2    0    0  0.27212551799E+02  0.53956054796E+01 -0.13360249654E+02  0.30791748972E+02  0.00000000000E+00 0. -1.
         22    1    1    2    0    0 -0.32256216040E+02 -0.23500313980E+02  0.16152978377E+03  0.16638689635E+03  0.00000000000E+00 0.  1.
</event>
<event>
 6    1  0.3624778E-005  0.7593584E+02  0.7818608E-02  0.1448221E+00
          2   -1    0    0  502    0  0.00000000000E+00  0.00000000000E+00  0.19678975598E+02  0.19678975598E+02  0.00000000000E+00 0.  1.
          1   -1    0    0  501    0 -0.00000000000E+00 -0.00000000000E+00 -0.51900468314E+03  0.51900468314E+03  0.00000000000E+00 0. -1.
          2    1    1    2  501    0 -0.23682887777E+02 -0.13091890803E+02 -0.17510296200E+03  0.17718161327E+03  0.00000000000E+00 0.  1.
          1    1    1    2  502    0  0.18451208221E+02 -0.24443711065E+02 -0.81526078625E+02  0.87088711045E+02  0.00000000000E+00 0. -1.
         22    1    1    2    0    0 -0.88228017635E+01 -0.10452316714E+02  0.99190804715E+01  0.16896180428E+02  0.00000000000E+00 0.  1.
         22    1    1    2    0    0  0.14054481320E+02  0.47987918583E+02 -0.25261574738E+03  0.25751715399E+03  0.00000000000E+00 0. -1.
</event>
<event>
 6    1  0.3624778E-005  0.2432043E+03  0.7818608E-02  0.1178651E+00
          2   -1    0    0  502    0  0.00000000000E+00  0.00000000000E+00  0.19383047792E+03  0.19383047792E+03  0.00000000000E+00 0.  1.
          1   -1    0    0  501    0 -0.00000000000E+00 -0.00000000000E+00 -0.11069359940E+04  0.11069359940E+04  0.00000000000E+00 0. -1.
          2    1    1    2  501    0 -0.31113603718E+02  0.53898004705E+02 -0.25371898529E+02  0.67207027032E+02  0.00000000000E+00 0.  1.
          1    1    1    2  502    0  0.18852457557E+03 -0.14484269378E+03 -0.96760581263E+03  0.99638442890E+03  0.00000000000E+00 0. -1.
         22    1    1    2    0    0 -0.50775897235E+02 -0.25939854184E+02  0.50680678423E+02  0.76286295889E+02  0.00000000000E+00 0. -1.
         22    1    1    2    0    0 -0.10663507462E+03  0.11688454326E+03  0.29191516693E+02  0.16088872005E+03  0.00000000000E+00 0.  1.
</event>
<event>
 6    1  0.3624778E-005  0.1004686E+03  0.7818608E-02  0.1342575E+00
          2   -1    0    0  502    0  0.00000000000E+00  0.00000000000E+00  0.88355798900E+02  0.88355798900E+02  0.00000000000E+00 0.  1.
          1   -1    0    0  501    0 -0.00000000000E+00 -0.00000000000E+00 -0.13872426109E+03  0.13872426109E+03  0.00000000000E+00 0.  1.
          2    1    1    2  501    0  0.19971327699E+02  0.13793189443E+02 -0.18942367252E+02  0.30788297812E+02  0.00000000000E+00 0.  1.
          1    1    1    2  502    0  0.46516388298E+02 -0.28897045758E+02 -0.15562038755E+01  0.54783532237E+02  0.00000000000E+00 0.  1.
         22    1    1    2    0    0  0.53210323410E+01 -0.31457844121E+02  0.24402739301E+02  0.40167188441E+02  0.00000000000E+00 0.  1.
         22    1    1    2    0    0 -0.71808748338E+02  0.46561700436E+02 -0.54272630360E+02  0.10134104150E+03  0.00000000000E+00 0.  1.
</event>
<event>
 6    1  0.3624778E-005  0.4072698E+03  0.7818608E-02  0.1184263E+00
          2   -1    0    0  502    0  0.00000000000E+00  0.00000000000E+00  0.22358693074E+03  0.22358693074E+03  0.00000000000E+00 0.  1.
          1   -1    0    0  501    0 -0.00000000000E+00 -0.00000000000E+00 -0.66505559982E+03  0.66505559982E+03  0.00000000000E+00 0. -1.
          2    1    1    2  501    0 -0.21182882486E+03  0.13521046841E+02  0.68099131884E+02  0.22291649000E+03  0.00000000000E+00 0.  1.
          1    1    1    2  502    0  0.57213935512E+02 -0.20629897203E+02 -0.45176505568E+03  0.45584064388E+03  0.00000000000E+00 0. -1.
         22    1    1    2    0    0 -0.94118191777E+01 -0.51032334835E+01  0.23930738895E+02  0.26216513809E+02  0.00000000000E+00 0.  1.
         22    1    1    2    0    0  0.16402670853E+03  0.12212083845E+02 -0.81733484172E+02  0.18366888288E+03  0.00000000000E+00 0. -1.
</event>
<event>
 6    1  0.3624778E-005  0.3863693E+02  0.7818608E-02  0.1558182E+00
          2   -1    0    0  502    0  0.00000000000E+00  0.00000000000E+00  0.14224337974E+03  0.14224337974E+03  0.00000000000E+00 0.  1.
          1   -1    0    0  501    0 -0.00000000000E+00 -0.00000000000E+00 -0.92789151643E+02  0.92789151643E+02  0.00000000000E+00 0.  1.
          2    1    1    2  501    0  0.19418207030E+02 -0.12993685566E+02 -0.42654711226E+02  0.48634627773E+02  0.00000000000E+00 0.  1.
          1    1    1    2  502    0 -0.23202059166E+02 -0.16910877599E+02  0.13432661004E+02  0.31697787184E+02  0.00000000000E+00 0.  1.
         22    1    1    2    0    0 -0.92817262585E+01  0.10955171475E+02 -0.35464913141E+02  0.38261289687E+02  0.00000000000E+00 0.  1.
         22    1    1    2    0    0  0.13065578394E+02  0.18949391690E+02  0.11414119146E+03  0.11643882673E+03  0.00000000000E+00 0.  1.
</event>
<event>
 6    1  0.3624778E-005  0.1484249E+03  0.7818608E-02  0.1224696E+00
          2   -1    0    0  502    0  0.00000000000E+00  0.00000000000E+00  0.31879062803E+03  0.31879062803E+03  0.00000000000E+00 0. -1.
          1   -1    0    0  501    0 -0.00000000000E+00 -0.00000000000E+00 -0.25181073915E+03  0.25181073915E+03  0.00000000000E+00 0. -1.
          2    1    1    2  501    0  0.69205237875E+01 -0.57143143407E+02 -0.11447265293E+03  0.12812970286E+03  0.00000000000E+00 0. -1.
          1    1    1    2  502    0 -0.11998700622E+03  0.14961072462E+03  0.20363935549E+02  0.19285989851E+03  0.00000000000E+00 0. -1.
         22    1    1    2    0    0  0.38273965067E+02 -0.38031460652E+02 -0.10226499519E+02  0.54916934489E+02  0.00000000000E+00 0. -1.
         22    1    1    2    0    0  0.74792517362E+02 -0.54436120558E+02  0.17131510578E+03  0.19469483132E+03  0.00000000000E+00 0. -1.
</event>
<event>
 6    1  0.3624778E-005  0.1402472E+03  0.7818608E-02  0.1256086E+00
          2   -1    0    0  502    0  0.00000000000E+00  0.00000000000E+00  0.15295389468E+02  0.15295389468E+02  0.00000000000E+00 0.  1.
          1   -1    0    0  501    0 -0.00000000000E+00 -0.00000000000E+00 -0.12116789228E+04  0.12116789228E+04  0.00000000000E+00 0.  1.
          2    1    1    2  501    0  0.38832950254E+02 -0.15271125411E+02 -0.43366830194E+03  0.43567120791E+03  0.00000000000E+00 0.  1.
          1    1    1    2  502    0 -0.36675146958E+02  0.17977904345E+02 -0.50294742415E+03  0.50460319352E+03  0.00000000000E+00 0.  1.
         22    1    1    2    0    0 -0.30084559355E+02 -0.46528946626E+02 -0.19984541809E+03  0.20738422003E+03  0.00000000000E+00 0.  1.
         22    1    1    2    0    0  0.27926756059E+02  0.43822167692E+02 -0.59922389110E+02  0.79315690767E+02  0.00000000000E+00 0.  1.
</event>
<event>
 6    1  0.3624778E-005  0.2582990E+03  0.7818608E-02  0.1224149E+00
          2   -1    0    0  502    0  0.00000000000E+00  0.00000000000E+00  0.15977503748E+03  0.15977503748E+03  0.00000000000E+00 0.  1.
          1   -1    0    0  501    0 -0.00000000000E+00 -0.00000000000E+00 -0.95179584336E+03  0.95179584336E+03  0.00000000000E+00 0. -1.
          2    1    1    2  501    0  0.32144350255E+02  0.72450580263E+02 -0.50626813193E+02  0.94050093290E+02  0.00000000000E+00 0.  1.
          1    1    1    2  502    0 -0.18945323075E+03 -0.12155422864E+03 -0.77752216148E+03  0.80944960852E+03  0.00000000000E+00 0. -1.
         22    1    1    2    0    0  0.16726330368E+03  0.63803171124E+02  0.13806731831E+02  0.17955078180E+03  0.00000000000E+00 0.  1.
         22    1    1    2    0    0 -0.99544231816E+01 -0.14699522750E+02  0.22321436962E+02  0.28520397228E+02  0.00000000000E+00 0.  1.
</event>
<event>
 6    1  0.3624778E-005  0.1328238E+03  0.7818608E-02  0.1290955E+00
          2   -1    0    0  502    0  0.00000000000E+00  0.00000000000E+00  0.11816527184E+03  0.11816527184E+03  0.00000000000E+00 0. -1.
          1   -1    0    0  501    0 -0.00000000000E+00 -0.00000000000E+00 -0.66035403874E+03  0.66035403874E+03  0.00000000000E+00 0. -1.
          2    1    1    2  501    0 -0.10009123369E+03  0.30824093214E+02 -0.55144509814E+03  0.56130212546E+03  0.00000000000E+00 0. -1.
          1    1    1    2  502    0  0.78840257121E+02 -0.25999963013E+02  0.35463339421E+02  0.90274208180E+02  0.00000000000E+00 0. -1.
         22    1    1    2    0    0  0.36244221631E+02 -0.36342952615E+02  0.30975832951E+02  0.59949612454E+02  0.00000000000E+00 0. -1.
         22    1    1    2    0    0 -0.14993245060E+02  0.31518822414E+02 -0.57182841142E+02  0.66993364484E+02  0.00000000000E+00 0.  1.
</event>
<event>
 6    1  0.3624778E-005  0.3347024E+03  0.7818608E-02  0.1131401E+00
          2   -1    0    0  502    0  0.00000000000E+00  0.00000000000E+00  0.11530870700E+04  0.11530870700E+04  0.00000000000E+00 0.  1.
          1   -1    0    0  501    0 -0.00000000000E+00 -0.00000000000E+00 -0.20521147313E+03  0.20521147313E+03  0.00000000000E+00 0.  1.
          2    1    1    2  501    0 -0.99433508282E+02 -0.21964612290E+03  0.40272587265E+03  0.46938211552E+03  0.00000000000E+00 0.  1.
          1    1    1    2  502    0  0.16915949484E+03  0.28805309417E+03  0.13537679071E+02  0.33432437618E+03  0.00000000000E+00 0.  1.
         22    1    1    2    0    0 -0.65619474799E+02  0.10048718717E+02  0.35700546936E+03  0.36312504371E+03  0.00000000000E+00 0.  1.
         22    1    1    2    0    0 -0.41065117606E+01 -0.78455689992E+02  0.17460657575E+03  0.19146700767E+03  0.00000000000E+00 0. -1.
</event>
<event>
 6    1  0.3624778E-005  0.7658776E+02  0.7818608E-02  0.1378608E+00
          2   -1    0    0  502    0  0.00000000000E+00  0.00000000000E+00  0.19996520290E+03  0.19996520290E+03  0.00000000000E+00 0. -1.
          1   -1    0    0  501    0 -0.00000000000E+00 -0.00000000000E+00 -0.12105215980E+03  0.12105215980E+03  0.00000000000E+00 0. -1.
          2    1    1    2  501    0  0.38430319214E+02  0.37142639692E+01 -0.37435118269E+02  0.53777999884E+02  0.00000000000E+00 0. -1.
          1    1    1    2  502    0 -0.54069322190E+02  0.20206689841E+02 -0.36862381095E+02  0.68488225677E+02  0.00000000000E+00 0. -1.
         22    1    1    2    0    0 -0.28865954095E+02 -0.26704414378E+02  0.14883819979E+03  0.15394537593E+03  0.00000000000E+00 0. -1.
         22    1    1    2    0    0  0.44504957071E+02  0.27834605684E+01  0.43723426730E+01  0.44805761204E+02  0.00000000000E+00 0. -1.
</event>
<event>
 6    1  0.3624778E-005  0.8964971E+02  0.7818608E-02  0.1365515E+00
          2   -1    0    0  502    0  0.00000000000E+00  0.00000000000E+00  0.12886088187E+02  0.12886088187E+02  0.00000000000E+00 0.  1.
          1   -1    0    0  501    0 -0.00000000000E+00 -0.00000000000E+00 -0.83530762746E+03  0.83530762746E+03  0.00000000000E+00 0.  1.
          2    1    1    2  501    0 -0.59632142504E+01 -0.30904354722E+02 -0.35654147900E+03  0.35792801695E+03  0.00000000000E+00 0.  1.
          1    1    1    2  502    0  0.25126103850E+02  0.76262111249E+01 -0.10403546013E+03  0.10729798300E+03  0.00000000000E+00 0.  1.
         22    1    1    2    0    0  0.19345576057E+02 -0.22948714614E+02 -0.20467202494E+02  0.36329068159E+02  0.00000000000E+00 0. -1.
         22    1    1    2    0    0 -0.38508465657E+02  0.46226858211E+02 -0.34137739764E+03  0.34663864754E+03  0.00000000000E+00 0.  1.
</event>
<event>
 6    1  0.3624778E-005  0.2074711E+03  0.7818608E-02  0.1219913E+00
          2   -1    0    0  502    0  0.00000000000E+00  0.00000000000E+00  0.90229358343E+03  0.90229358343E+03  0.00000000000E+00 0.  1.
          1   -1    0    0  501    0 -0.00000000000E+00 -0.00000000000E+00 -0.89028627803E+02  0.89028627803E+02  0.00000000000E+00 0.  1.
          2    1    1    2  501    0 -0.80425761350E+02 -0.26896434787E+02  0.24333588852E+03  0.25768988326E+03  0.00000000000E+00 0.  1.
          1    1    1    2  502    0 -0.14099381390E+02 -0.23361349502E+02 -0.68658764122E+02  0.73882143288E+02  0.00000000000E+00 0.  1.
         22    1    1    2    0    0  0.94045304564E+02  0.85635037533E+02  0.43916052882E+03  0.45720875870E+03  0.00000000000E+00 0.  1.
         22    1    1    2    0    0  0.47983817652E+00 -0.35377253244E+02  0.19942730242E+03  0.20254142599E+03  0.00000000000E+00 0. -1.
</event>
<event>
 6    1  0.3624778E-005  0.2757320E+03  0.7818608E-02  0.1170752E+00
          2   -1    0    0  502    0  0.00000000000E+00  0.00000000000E+00  0.48386948529E+03  0.48386948529E+03  0.00000000000E+00 0.  1.
          1   -1    0    0  501    0 -0.00000000000E+00 -0.00000000000E+00 -0.93521145395E+03  0.93521145395E+03  0.00000000000E+00 0.  1.
          2    1    1    2  501    0 -0.65138511360E+02  0.78370303166E+02 -0.15683819205E+02  0.10310631535E+03  0.00000000000E+00 0.  1.
          1    1    1    2  502    0  0.15643332812E+03 -0.15522155663E+03 -0.84438877050E+03  0.87267262679E+03  0.00000000000E+00 0.  1.
         22    1    1    2    0    0  0.88549842281E+01  0.45959955597E+02  0.24112522217E+03  0.24562593721E+03  0.00000000000E+00 0. -1.
         22    1    1    2    0    0 -0.10014980098E+03  0.30891297866E+02  0.16760539889E+03  0.19767605990E+03  0.00000000000E+00 0.  1.
</event>
<event>
 6    1  0.3624778E-005  0.3121889E+03  0.7818608E-02  0.1159274E+00
          2   -1    0    0  502    0  0.00000000000E+00  0.00000000000E+00  0.88521212888E+03  0.88521212888E+03  0.00000000000E+00 0.  1.
          1   -1    0    0  501    0 -0.00000000000E+00 -0.00000000000E+00 -0.14099527053E+03  0.14099527053E+03  0.00000000000E+00 0. -1.
          2    1    1    2  501    0 -0.74837398272E+01  0.10316016876E+03  0.22349907957E+03  0.24627193375E+03  0.00000000000E+00 0.  1.
          1    1    1    2  502    0  0.58543383291E+01 -0.31059603710E+03  0.16922759611E+03  0.35375436510E+03  0.00000000000E+00 0. -1.
         22    1    1    2    0    0 -0.36248515197E+02  0.18922707086E+03  0.24489326164E+03  0.31159837739E+03  0.00000000000E+00 0.  1.
         22    1    1    2    0    0  0.37877916695E+02  0.18208797481E+02  0.10659692103E+03  0.11458272318E+03  0.00000000000E+00 0.  1.
</event>
<event>
 6    1  0.3624778E-005  0.1411423E+03  0.7818608E-02  0.1285527E+00
          2   -1    0    0  502    0  0.00000000000E+00  0.00000000000E+00  0.27502444377E+03  0.27502444377E+03  0.00000000000E+00 0.  1.
          1   -1    0    0  501    0 -0.00000000000E+00 -0.00000000000E+00 -0.36383670351E+03  0.36383670351E+03  0.00000000000E+00 0. -1.
          2    1    1    2  501    0  0.71324132141E+02 -0.19843139134E+02  0.12845348041E+02  0.75139104085E+02  0.00000000000E+00 0.  1.
          1    1    1    2  502    0  0.14308379428E+02 -0.25306097414E+02 -0.30532854355E+03  0.30670938655E+03  0.00000000000E+00 0. -1.
         22    1    1    2    0    0 -0.58030555360E+02  0.27352872909E+02  0.15503392377E+02  0.66000607474E+02  0.00000000000E+00 0. -1.
         22    1    1    2    0    0 -0.27601956209E+02  0.17796363638E+02  0.18816754339E+03  0.19101204917E+03  0.00000000000E+00 0. -1.
</event>
<event>
 6    1  0.3624778E-005  0.1067231E+03  0.7818608E-02  0.1280107E+00
          2   -1    0    0  502    0  0.00000000000E+00  0.00000000000E+00  0.29655219553E+02  0.29655219553E+02  0.00000000000E+00 0. -1.
          1   -1    0    0  501    0 -0.00000000000E+00 -0.00000000000E+00 -0.73779031698E+03  0.73779031698E+03  0.00000000000E+00 0.  1.
          2    1    1    2  501    0  0.57344541320E+02  0.41295947702E+00 -0.89366367210E+02  0.10618340051E+03  0.00000000000E+00 0. -1.
          1    1    1    2  502    0 -0.14365443070E+02  0.56300427957E+02 -0.37063053898E+03  0.37515743438E+03  0.00000000000E+00 0.  1.
         22    1    1    2    0    0  0.26766062852E+02 -0.57633814674E+02 -0.68682615835E+02  0.93570189871E+02  0.00000000000E+00 0. -1.
         22    1    1    2    0    0 -0.69745161101E+02  0.92042724019E+00 -0.17945557540E+03  0.19253451178E+03  0.00000000000E+00 0.  1.
</event>
<event>
 6    1  0.3624778E-005  0.1026074E+03  0.7818608E-02  0.1287977E+00
          2   -1    0    0  502    0  0.00000000000E+00  0.00000000000E+00  0.11355427032E+03  0.11355427032E+03  0.00000000000E+00 0. -1.
          1   -1    0    0  501    0 -0.00000000000E+00 -0.00000000000E+00 -0.36292624152E+03  0.36292624152E+03  0.00000000000E+00 0. -1.
          2    1    1    2  501    0 -0.39816579232E+02 -0.22552047862E+02  0.32733229443E+02  0.56262057857E+02  0.00000000000E+00 0. -1.
          1    1    1    2  502    0  0.23057907669E+02  0.10522920426E+03 -0.24539635972E+03  0.26800042145E+03  0.00000000000E+00 0. -1.
         22    1    1    2    0    0 -0.19048805151E+02 -0.11074249357E+02  0.37216264448E+02  0.43249812900E+02  0.00000000000E+00 0. -1.
         22    1    1    2    0    0  0.35807476714E+02 -0.71602907043E+02 -0.73925105372E+02  0.10896821963E+03  0.00000000000E+00 0. -1.
</event>
<event>
 6    1  0.4615237E-005  0.3732350E+03  0.7818608E-02  0.1150932E+00
          2   -1    0    0  502    0  0.00000000000E+00  0.00000000000E+00  0.41629599401E+03  0.41629599401E+03  0.00000000000E+00 0.  1.
          1   -1    0    0  501    0 -0.00000000000E+00 -0.00000000000E+00 -0.73455512871E+03  0.73455512871E+03  0.00000000000E+00 0. -1.
          2    1    1    2  501    0 -0.10587673868E+03  0.11174909176E+03 -0.26289052654E+02  0.15616932347E+03  0.00000000000E+00 0.  1.
          1    1    1    2  502    0  0.13231186118E+03 -0.83469800673E+02 -0.62187720816E+03  0.64125260098E+03  0.00000000000E+00 0. -1.
         22    1    1    2    0    0  0.24766213148E+02  0.16781544323E+02  0.19718239656E+02  0.35830078408E+02  0.00000000000E+00 0.  1.
         22    1    1    2    0    0 -0.51201335642E+02 -0.45060835407E+02  0.31018888646E+03  0.31759911987E+03  0.00000000000E+00 0.  1.
</event>
<event>
 6    1  0.3624778E-005  0.9544051E+02  0.7818608E-02  0.1315927E+00
          2   -1    0    0  502    0  0.00000000000E+00  0.00000000000E+00  0.57775657447E+02  0.57775657447E+02  0.00000000000E+00 0. -1.
          1   -1    0    0  501    0 -0.00000000000E+00 -0.00000000000E+00 -0.75495816551E+03  0.75495816551E+03  0.00000000000E+00 0. -1.
          2    1    1    2  501    0 -0.24201540456E+02  0.23115752155E+02 -0.36706568902E+03  0.36858821551E+03  0.00000000000E+00 0. -1.
          1    1    1    2  502    0  0.20944134054E+02  0.59567522626E+02 -0.27802540489E+03  0.28510537047E+03  0.00000000000E+00 0. -1.
         22    1    1    2    0    0  0.27351895860E+02 -0.52855065881E+02  0.31310064010E+02  0.67246593257E+02  0.00000000000E+00 0. -1.
         22    1    1    2    0    0 -0.24094489459E+02 -0.29828208900E+02 -0.83401478159E+02  0.91793643721E+02  0.00000000000E+00 0. -1.
</event>
<event>
 6    1  0.3624778E-005  0.9842350E+02  0.7818608E-02  0.1332181E+00
          2   -1    0    0  502    0  0.00000000000E+00  0.00000000000E+00  0.47950425905E+02  0.47950425905E+02  0.00000000000E+00 0. -1.
          1   -1    0    0  501    0 -0.00000000000E+00 -0.00000000000E+00 -0.87948317713E+03  0.87948317713E+03  0.00000000000E+00 0.  1.
          2    1    1    2  501    0  0.15081912785E+02  0.18004502289E+02 -0.37890595315E+02  0.44579405663E+02  0.00000000000E+00 0. -1.
          1    1    1    2  502    0  0.54574751833E+01  0.30858394077E+02 -0.72740741991E+03  0.72808212384E+03  0.00000000000E+00 0.  1.
         22    1    1    2    0    0 -0.13255687222E+02 -0.85991477743E+02 -0.76186696441E+02  0.11564886598E+03  0.00000000000E+00 0. -1.
         22    1    1    2    0    0 -0.72837007469E+01  0.37128581376E+02  0.99519604462E+01  0.39123207541E+02  0.00000000000E+00 0. -1.
</event>
<event>
 6    1  0.3624778E-005  0.1908690E+03  0.7818608E-02  0.1282680E+00
          2   -1    0    0  502    0  0.00000000000E+00  0.00000000000E+00  0.11282067854E+03  0.11282067854E+03  0.00000000000E+00 0.  1.
          1   -1    0    0  501    0 -0.00000000000E+00 -0.00000000000E+00 -0.37798173677E+03  0.37798173677E+03  0.00000000000E+00 0.  1.
          2    1    1    2  501    0 -0.22734728953E+02 -0.32463760478E+02 -0.21106661134E+02  0.44902725855E+02  0.00000000000E+00 0.  1.
          1    1    1    2  502    0 -0.67388773971E+02  0.15733534257E+03 -0.14599860322E+03  0.22496944019E+03  0.00000000000E+00 0.  1.
         22    1    1    2    0    0  0.92856404307E+02 -0.11140132968E+03 -0.12449464077E+03  0.19113211048E+03  0.00000000000E+00 0.  1.
         22    1    1    2    0    0 -0.27329013838E+01 -0.13470252406E+02  0.26438846895E+02  0.29798138784E+02  0.00000000000E+00 0.  1.
</event>
<event>
 6    1  0.3624778E-005  0.1275571E+03  0.7818608E-02  0.1231376E+00
          2   -1    0    0  502    0  0.00000000000E+00  0.00000000000E+00  0.34648919008E+02  0.34648919008E+02  0.00000000000E+00 0.  1.
          1   -1    0    0  501    0 -0.00000000000E+00 -0.00000000000E+00 -0.13286860294E+04  0.13286860294E+04  0.00000000000E+00 0. -1.
          2    1    1    2  501    0  0.16958173518E+02  0.32396333356E+02 -0.36155342839E+02  0.51422863395E+02  0.00000000000E+00 0.  1.
          1    1    1    2  502    0 -0.14667242674E+03  0.28250691782E+02 -0.84816961324E+03  0.86122157147E+03  0.00000000000E+00 0. -1.
         22    1    1    2    0    0  0.11737713645E+03 -0.48235265924E+02 -0.41371340636E+03  0.43273873832E+03  0.00000000000E+00 0.  1.
         22    1    1    2    0    0  0.12337116775E+02 -0.12411759214E+02  0.40012520105E+01  0.17951775254E+02  0.00000000000E+00 0.  1.
</event>
<event>
 6    1  0.3624778E-005  0.7080272E+02  0.7818608E-02  0.1361655E+00
          2   -1    0    0  502    0  0.00000000000E+00  0.00000000000E+00  0.13529608603E+03  0.13529608603E+03  0.00000000000E+00 0. -1.
          1   -1    0    0  501    0 -0.00000000000E+00 -0.00000000000E+00 -0.38660331555E+03  0.38660331555E+03  0.00000000000E+00 0. -1.
          2    1    1    2  501    0 -0.14809418303E+02  0.21858213851E+02  0.11889911992E+02  0.28956353196E+02  0.00000000000E+00 0. -1.
          1    1    1    2  502    0  0.31415836990E+02 -0.10992433347E+02 -0.34370297626E+03  0.34531076482E+03  0.00000000000E+00 0. -1.
         22    1    1    2    0    0  0.42340446259E+01  0.50721250516E+02  0.10271755451E+02  0.51923803288E+02  0.00000000000E+00 0.  1.
         22    1    1    2    0    0 -0.20840463313E+02 -0.61587031021E+02  0.70234079306E+02  0.95708480277E+02  0.00000000000E+00 0. -1.
</event>
<event>
 6    1  0.3624778E-005  0.4550177E+03  0.7818608E-02  0.1098582E+00
          2   -1    0    0  502    0  0.00000000000E+00  0.00000000000E+00  0.22640861576E+04  0.22640861576E+04  0.00000000000E+00 0. -1.
          1   -1    0    0  501    0 -0.00000000000E+00 -0.00000000000E+00 -0.16563388294E+03  0.16563388294E+03  0.00000000000E+00 0.  1.
          2    1    1    2  501    0  0.22836496200E+03 -0.13866140924E+03  0.13882077871E+04  0.14136825678E+04  0.00000000000E+00 0. -1.
          1    1    1    2  502    0 -0.36910720172E+03  0.21185729527E+03  0.20507615893E+03  0.47241916862E+03  0.00000000000E+00 0.  1.
         22    1    1    2    0    0  0.13876481474E+03 -0.12725117564E+02  0.32683012179E+03  0.35529639871E+03  0.00000000000E+00 0.  1.
         22    1    1    2    0    0  0.19774249752E+01 -0.60470768459E+02  0.17833820689E+03  0.18832190548E+03  0.00000000000E+00 0.  1.
</event>
<event>
 6    1  0.3624778E-005  0.1776825E+03  0.7818608E-02  0.1273290E+00
          2   -1    0    0  502    0  0.00000000000E+00  0.00000000000E+00  0.59666661379E+02  0.59666661379E+02  0.00000000000E+00 0. -1.
          1   -1    0    0  501    0 -0.00000000000E+00 -0.00000000000E+00 -0.36993681416E+03  0.36993681416E+03  0.00000000000E+00 0. -1.
          2    1    1    2  501    0 -0.27248934280E+02  0.85085809532E+02 -0.12000950771E+03  0.14961410810E+03  0.00000000000E+00 0. -1.
          1    1    1    2  502    0 -0.34049877855E+02 -0.51630569021E+02 -0.73573968055E+02  0.96115756329E+02  0.00000000000E+00 0. -1.
         22    1    1    2    0    0 -0.67877124110E+01  0.19219661473E+02  0.15859669162E+02  0.25826295376E+02  0.00000000000E+00 0.  1.
         22    1    1    2    0    0  0.68086524547E+02 -0.52674901983E+02 -0.13254634618E+03  0.15804731573E+03  0.00000000000E+00 0. -1.
</event>
<event>
 6    1  0.3624778E-005  0.8244947E+02  0.7818608E-02  0.1334999E+00
          2   -1    0    0  502    0  0.00000000000E+00  0.00000000000E+00  0.22598428887E+02  0.22598428887E+02  0.00000000000E+00 0.  1.
          1   -1    0    0  501    0 -0.00000000000E+00 -0.00000000000E+00 -0.11791755720E+04  0.11791755720E+04  0.00000000000E+00 0.  1.
          2    1    1    2  501    0 -0.53301234697E+02  0.33099817838E+02 -0.10812634325E+03  0.12501170212E+03  0.00000000000E+00 0.  1.
          1    1    1    2  502    0  0.20222836035E+02 -0.64213809203E+02 -0.70384603117E+03  0.70705842191E+03  0.00000000000E+00 0.  1.
         22    1    1    2    0    0  0.58783012123E+02 -0.29658382883E+02 -0.20450847806E+03  0.21484594432E+03  0.00000000000E+00 0.  1.
         22    1    1    2    0    0 -0.25704613462E+02  0.60772374247E+02 -0.14009629059E+03  0.15485793251E+03  0.00000000000E+00 0.  1.
</event>
<event>
 6    1  0.3624778E-005  0.6902779E+02  0.7818608E-02  0.1381742E+00
          2   -1    0    0  502    0  0.00000000000E+00  0.00000000000E+00  0.37361782202E+02  0.37361782202E+02  0.00000000000E+00 0. -1.
          1   -1    0    0  501    0 -0.00000000000E+00 -0.00000000000E+00 -0.50810622675E+03  0.50810622675E+03  0.00000000000E+00 0. -1.
          2    1    1    2  501    0  0.22213355160E+02  0.89192731092E+01 -0.19075627525E+03  0.19225229031E+03  0.00000000000E+00 0. -1.
          1    1    1    2  502    0 -0.41172084655E+02  0.60802071775E+01 -0.20435244218E+03  0.20854742890E+03  0.00000000000E+00 0. -1.
         22    1    1    2    0    0  0.16438956967E+02 -0.49679122621E+02  0.90654979891E+01  0.53107794008E+02  0.00000000000E+00 0. -1.
         22    1    1    2    0    0  0.25197725276E+01  0.34679642335E+02 -0.84701225104E+02  0.91560495740E+02  0.00000000000E+00 0. -1.
</event>
<event>
 6    1  0.3624778E-005  0.5448470E+02  0.7818608E-02  0.1428372E+00
          2   -1    0    0  502    0  0.00000000000E+00  0.00000000000E+00  0.32208638172E+03  0.32208638172E+03  0.00000000000E+00 0. -1.
          1   -1    0    0  501    0 -0.00000000000E+00 -0.00000000000E+00 -0.66694117202E+03  0.66694117202E+03  0.00000000000E+00 0.  1.
          2    1    1    2  501    0 -0.30771267266E+02  0.12171386035E+01  0.11855309821E+02  0.32998495216E+02  0.00000000000E+00 0. -1.
          1    1    1    2  502    0  0.35066739506E+02  0.21372356976E+02 -0.64253065659E+03  0.64384167194E+03  0.00000000000E+00 0.  1.
         22    1    1    2    0    0  0.21394294537E+02 -0.45323381427E+02  0.26964014436E+03  0.27425851344E+03  0.00000000000E+00 0. -1.
         22    1    1    2    0    0 -0.25689766777E+02  0.22733885847E+02  0.16180412111E+02  0.37928873156E+02  0.00000000000E+00 0.  1.
</event>
<event>
 6    1  0.3624778E-005  0.2164134E+03  0.7818608E-02  0.1205691E+00
          2   -1    0    0  502    0  0.00000000000E+00  0.00000000000E+00  0.11792069608E+03  0.11792069608E+03  0.00000000000E+00 0. -1.
          1   -1    0    0  501    0 -0.00000000000E+00 -0.00000000000E+00 -0.91218268598E+03  0.91218268598E+03  0.00000000000E+00 0. -1.
          2    1    1    2  501    0 -0.11567515679E+02  0.91963542501E+02 -0.95171202298E+02  0.13284825296E+03  0.00000000000E+00 0. -1.
          1    1    1    2  502    0 -0.20844020396E+02 -0.16233531186E+02 -0.74168707024E+03  0.74215747040E+03  0.00000000000E+00 0. -1.
         22    1    1    2    0    0  0.41519037324E+02  0.20687613783E+02  0.34698766832E+02  0.57929372895E+02  0.00000000000E+00 0. -1.
         22    1    1    2    0    0 -0.91075012483E+01 -0.96417625098E+02  0.78975158028E+01  0.97168285795E+02  0.00000000000E+00 0. -1.
</event>
<event>
 6    1  0.3624778E-005  0.2651921E+03  0.7818608E-02  0.1199140E+00
          2   -1    0    0  502    0  0.00000000000E+00  0.00000000000E+00  0.94765102974E+02  0.94765102974E+02  0.00000000000E+00 0.  1.
          1   -1    0    0  501    0 -0.00000000000E+00 -0.00000000000E+00 -0.15350583204E+04  0.15350583204E+04  0.00000000000E+00 0. -1.
          2    1    1    2  501    0  0.11768578493E+03  0.12943550880E+03 -0.16106105946E+03  0.23779015915E+03  0.00000000000E+00 0.  1.
          1    1    1    2  502    0 -0.11985677775E+03 -0.21644454758E+03 -0.11960840271E+04  0.12214052928E+04  0.00000000000E+00 0. -1.
         22    1    1    2    0    0  0.14633370331E+02  0.23804377258E+02  0.29642331539E+02  0.40736368553E+02  0.00000000000E+00 0. -1.
         22    1    1    2    0    0 -0.12462377513E+02  0.63204661523E+02 -0.11279046238E+03  0.12989160287E+03  0.00000000000E+00 0.  1.
</event>
<event>
 6    1  0.3624778E-005  0.1949612E+03  0.7818608E-02  0.1172139E+00
          2   -1    0    0  502    0  0.00000000000E+00  0.00000000000E+00  0.10391607120E+03  0.10391607120E+03  0.00000000000E+00 0. -1.
          1   -1    0    0  501    0 -0.00000000000E+00 -0.00000000000E+00 -0.84008812055E+03  0.84008812055E+03  0.00000000000E+00 0.  1.
          2    1    1    2  501    0 -0.11441129182E+03  0.10542842559E+03 -0.87416109472E+02  0.17845636109E+03  0.00000000000E+00 0. -1.
          1    1    1    2  502    0 -0.48234438486E+02 -0.11593472063E+03 -0.49263465404E+03  0.50838599791E+03  0.00000000000E+00 0.  1.
         22    1    1    2    0    0  0.37548157049E+02  0.28713630672E+02  0.10094992979E+02  0.48334724240E+02  0.00000000000E+00 0. -1.
         22    1    1    2    0    0  0.12509757326E+03 -0.18207335626E+02 -0.16621627882E+03  0.20882710852E+03  0.00000000000E+00 0. -1.
</event>
<event>
 6    1  0.3624778E-005  0.5258003E+02  0.7818608E-02  0.1486371E+00
          2   -1    0    0  502    0  0.00000000000E+00  0.00000000000E+00  0.70863648122E+02  0.70863648122E+02  0.00000000000E+00 0. -1.
          1   -1    0    0  501    0 -0.00000000000E+00 -0.00000000000E+00 -0.44446691691E+03  0.44446691691E+03  0.00000000000E+00 0. -1.
          2    1    1    2  501    0  0.80073238216E+01  0.29915950366E+02 -0.31919392596E+03  0.32069275591E+03  0.00000000000E+00 0. -1.
          1    1    1    2  502    0  0.66678750475E+01 -0.33107930449E+02  0.25625165868E+02  0.42393923410E+02  0.00000000000E+00 0. -1.
         22    1    1    2    0    0 -0.52505879708E+01 -0.18664988185E+02 -0.11128472731E+03  0.11296123667E+03  0.00000000000E+00 0. -1.
         22    1    1    2    0    0 -0.94246108982E+01  0.21856968269E+02  0.31250218614E+02  0.39282649044E+02  0.00000000000E+00 0. -1.
</event>
<event>
 6    1  0.3624778E-005  0.3653195E+03  0.7818608E-02  0.1178105E+00
          2   -1    0    0  502    0  0.00000000000E+00  0.00000000000E+00  0.20067368080E+03  0.20067368080E+03  0.00000000000E+00 0. -1.
          1   -1    0    0  501    0 -0.00000000000E+00 -0.00000000000E+00 -0.60894691247E+03  0.60894691247E+03  0.00000000000E+00 0. -1.
          2    1    1    2  501    0 -0.24135176928E+03  0.11630105360E+03 -0.23160665282E+03  0.35414439602E+03  0.00000000000E+00 0. -1.
          1    1    1    2  502    0  0.25766149093E+03 -0.37086921366E+02 -0.15344124421E+03  0.30217395498E+03  0.00000000000E+00 0. -1.
         22    1    1    2    0    0 -0.47970821344E+01 -0.91765726433E+02 -0.62068294114E+02  0.11088928568E+03  0.00000000000E+00 0.  1.
         22    1    1    2    0    0 -0.11512639514E+02  0.12551594197E+02  0.38842959475E+02  0.42412956584E+02  0.00000000000E+00 0.  1.
</event>
<event>
 6    1  0.3624778E-005  0.1861653E+03  0.7818608E-02  0.1266579E+00
          2   -1    0    0  502    0  0.00000000000E+00  0.00000000000E+00  0.53390062195E+03  0.53390062195E+03  0.00000000000E+00 0. -1.
          1   -1    0    0  501    0 -0.00000000000E+00 -0.00000000000E+00 -0.12776635324E+03  0.12776635324E+03  0.00000000000E+00 0. -1.
          2    1    1    2  501    0  0.14931415784E+02 -0.21334784866E+02  0.83722113912E+02  0.87678461325E+02  0.00000000000E+00 0. -1.
          1    1    1    2  502    0 -0.15814571623E+03  0.72668626434E+02 -0.25070252510E+02  0.17583888759E+03  0.00000000000E+00 0. -1.
         22    1    1    2    0    0 -0.18984232911E+02  0.68367972642E+01  0.56237761493E+02  0.59748043598E+02  0.00000000000E+00 0.  1.
         22    1    1    2    0    0  0.16219853335E+03 -0.58170638832E+02  0.29124464582E+03  0.33840158268E+03  0.00000000000E+00 0. -1.
</event>
<event>
 6    1  0.3624778E-005  0.9257884E+02  0.7818608E-02  0.1376712E+00
          2   -1    0    0  502    0  0.00000000000E+00  0.00000000000E+00  0.16168326019E+03  0.16168326019E+03  0.00000000000E+00 0. -1.
          1   -1    0    0  501    0 -0.00000000000E+00 -0.00000000000E+00 -0.22296956964E+03  0.22296956964E+03  0.00000000000E+00 0.  1.
          2    1    1    2  501    0  0.33037665110E+02 -0.36358867613E+01  0.26338866652E+02  0.42408052124E+02  0.00000000000E+00 0. -1.
          1    1    1    2  502    0 -0.42754834378E+01  0.26006487947E+02 -0.18173411596E+03  0.18363525282E+03  0.00000000000E+00 0.  1.
         22    1    1    2    0    0 -0.46892104697E+02 -0.82738533285E+01 -0.12763541171E+02  0.49297404750E+02  0.00000000000E+00 0. -1.
         22    1    1    2    0    0  0.18129923025E+02 -0.14096747857E+02  0.10687248103E+03  0.10931212014E+03  0.00000000000E+00 0. -1.
</event>
<event>
 6    1  0.3624778E-005  0.1012728E+03  0.7818608E-02  0.1280966E+00
          2   -1    0    0  502    0  0.00000000000E+00  0.00000000000E+00  0.46170003563E+03  0.46170003563E+03  0.00000000000E+00 0.  1.
          1   -1    0    0  501    0 -0.00000000000E+00 -0.00000000000E+00 -0.45321374560E+03  0.45321374560E+03  0.00000000000E+00 0. -1.
          2    1    1    2  501    0 -0.12470333690E+02  0.61094074068E+02  0.13179659669E+03  0.14580239369E+03  0.00000000000E+00 0.  1.
          1    1    1    2  502    0  0.93324180762E+02 -0.18286980051E+02 -0.42105245189E+03  0.43165841078E+03  0.00000000000E+00 0. -1.
         22    1    1    2    0    0 -0.44118904785E+02 -0.84199782482E+02  0.13163852424E+03  0.16237235662E+03  0.00000000000E+00 0. -1.
         22    1    1    2    0    0 -0.36734942287E+02  0.41392688464E+02  0.16610362099E+03  0.17508062014E+03  0.00000000000E+00 0.  1.
</event>
<event>
 6    1  0.3624778E-005  0.1600029E+03  0.7818608E-02  0.1238790E+00
          2   -1    0    0  502    0  0.00000000000E+00  0.00000000000E+00  0.37361223359E+02  0.37361223359E+02  0.00000000000E+00 0. -1.
          1   -1    0    0  501    0 -0.00000000000E+00 -0.00000000000E+00 -0.20106325561E+04  0.20106325561E+04  0.00000000000E+00 0.  1.
          2    1    1    2  501    0  0.27168357676E+02 -0.10085029271E+03 -0.15574170792E+03  0.18752168083E+03  0.00000000000E+00 0. -1.
          1    1    1    2  502    0 -0.12876987660E+02  0.14848583121E+03 -0.15692910806E+04  0.15763528648E+04  0.00000000000E+00 0.  1.
         22    1    1    2    0    0 -0.53262295782E+02  0.14658276005E+02 -0.57596391915E+02  0.79806525855E+02  0.00000000000E+00 0. -1.
         22    1    1    2    0    0  0.38970925766E+02 -0.62293814503E+02 -0.19064215239E+03  0.20431270800E+03  0.00000000000E+00 0. -1.
</event>
<event>
 6    1  0.3624778E-005  0.2932625E+03  0.7818608E-02  0.1184250E+00
          2   -1    0    0  502    0  0.00000000000E+00  0.00000000000E+00  0.27126986032E+03  0.27126986032E+03  0.00000000000E+00 0.  1.
          1   -1    0    0  501    0 -0.00000000000E+00 -0.00000000000E+00 -0.14643630340E+04  0.14643630340E+04  0.00000000000E+00 0.  1.
          2    1    1    2  501    0  0.12948158416E+03 -0.30631050908E+02 -0.23203811232E+02  0.13506353605E+03  0.00000000000E+00 0.  1.
          1    1    1    2  502    0 -0.41243819738E+02 -0.98060637646E+01 -0.13570370831E+04  0.13576991038E+04  0.00000000000E+00 0.  1.
         22    1    1    2    0    0 -0.28573673855E+02  0.25134597345E+01 -0.12340062219E+02  0.31225781863E+02  0.00000000000E+00 0. -1.
         22    1    1    2    0    0 -0.59664090565E+02  0.37923654939E+02  0.19948778283E+03  0.21164447265E+03  0.00000000000E+00 0.  1.
</event>
<event>
 6    1  0.3624778E-005  0.1516860E+03  0.7818608E-02  0.1234457E+00
          2   -1    0    0  502    0  0.00000000000E+00  0.00000000000E+00  0.15639276732E+03  0.15639276732E+03  0.00000000000E+00 0.  1.
          1   -1    0    0  501    0 -0.00000000000E+00 -0.00000000000E+00 -0.21952206264E+03  0.21952206264E+03  0.00000000000E+00 0.  1.
          2    1    1    2  501    0  0.76381792569E+02 -0.79120872071E+02 -0.33445239413E+02  0.11494726910E+03  0.00000000000E+00 0.  1.
          1    1    1    2  502    0 -0.87904599824E+02  0.30997142582E+02  0.49180520117E+02  0.10538863827E+03  0.00000000000E+00 0.  1.
         22    1    1    2    0    0 -0.30020422039E+01 -0.21206653899E+02 -0.81923865228E+02  0.84677353058E+02  0.00000000000E+00 0. -1.
         22    1    1    2    0    0  0.14524849459E+02  0.69330383388E+02  0.30592892054E+01  0.70901569539E+02  0.00000000000E+00 0.  1.
</event>
<event>
 6    1  0.3624778E-005  0.1308282E+03  0.7818608E-02  0.1280955E+00
          2   -1    0    0  502    0  0.00000000000E+00  0.00000000000E+00  0.34209401659E+03  0.34209401659E+03  0.00000000000E+00 0. -1.
          1   -1    0    0  501    0 -0.00000000000E+00 -0.00000000000E+00 -0.13061096950E+03  0.13061096950E+03  0.00000000000E+00 0. -1.
          2    1    1    2  501    0  0.17508996480E+02  0.61545662417E+02  0.14252385401E+02  0.65555808360E+02  0.00000000000E+00 0. -1.
          1    1    1    2  502    0 -0.98685995529E+02 -0.66658470210E+02 -0.41622795762E+02  0.12615361466E+03  0.00000000000E+00 0. -1.
         22    1    1    2    0    0  0.37788828999E+02  0.22736488552E+02  0.22891150286E+03  0.23312104078E+03  0.00000000000E+00 0. -1.
         22    1    1    2    0    0  0.43388170050E+02 -0.17623680760E+02  0.99419545910E+01  0.47874522294E+02  0.00000000000E+00 0. -1.
</event>
<event>
 6    1  0.3624778E-005  0.1912626E+03  0.7818608E-02  0.1223030E+00
          2   -1    0    0  502    0  0.00000000000E+00  0.00000000000E+00  0.23382923334E+03  0.23382923334E+03  0.00000000000E+00 0. -1.
          1   -1    0    0  501    0 -0.00000000000E+00 -0.00000000000E+00 -0.32636184055E+03  0.32636184055E+03  0.00000000000E+00 0. -1.
          2    1    1    2  501    0  0.73579297015E+02 -0.16897656597E+02 -0.22879096874E+03  0.24092478313E+03  0.00000000000E+00 0. -1.
          1    1    1    2  502    0 -0.11523354484E+03  0.24858321813E+02  0.13995273585E+03  0.18298490182E+03  0.00000000000E+00 0. -1.
         22    1    1    2    0    0 -0.33454122961E+02 -0.29736314319E+02  0.26999207001E+02  0.52272209739E+02  0.00000000000E+00 0. -1.
         22    1    1    2    0    0  0.75108370790E+02  0.21775649103E+02 -0.30693581310E+02  0.84009179202E+02  0.00000000000E+00 0. -1.
</event>
<event>
 6    1  0.3624778E-005  0.1006940E+03  0.7818608E-02  0.1407611E+00
          2   -1    0    0  502    0  0.00000000000E+00  0.00000000000E+00  0.92555676223E+02  0.92555676223E+02  0.00000000000E+00 0. -1.
          1   -1    0    0  501    0 -0.00000000000E+00 -0.00000000000E+00 -0.27212444302E+03  0.27212444302E+03  0.00000000000E+00 0. -1.
          2    1    1    2  501    0 -0.31589998546E+02 -0.31215539991E+02 -0.11778047983E+03  0.12587525322E+03  0.00000000000E+00 0. -1.
          1    1    1    2  502    0  0.21350557405E+02 -0.13777299022E+02  0.54598679307E+02  0.60221890139E+02  0.00000000000E+00 0. -1.
         22    1    1    2    0    0  0.94155169723E+01  0.55841050056E+02 -0.14085110938E+03  0.15180879370E+03  0.00000000000E+00 0. -1.
         22    1    1    2    0    0  0.82392416966E+00 -0.10848211043E+02  0.24464143103E+02  0.26774182184E+02  0.00000000000E+00 0. -1.
</event>
<event>
 6    1  0.3624778E-005  0.1363998E+03  0.7818608E-02  0.1274815E+00
          2   -1    0    0  502    0  0.00000000000E+00  0.00000000000E+00  0.29503013035E+03  0.29503013035E+03  0.00000000000E+00 0. -1.
          1   -1    0    0  501    0 -0.00000000000E+00 -0.00000000000E+00 -0.10008937631E+03  0.10008937631E+03  0.00000000000E+00 0. -1.
          2    1    1    2  501    0 -0.64626011741E+02 -0.67031931761E+02  0.44115605585E+02  0.10303391638E+03  0.00000000000E+00 0. -1.
          1    1    1    2  502    0  0.16899180286E+02  0.99249130395E+02  0.18493269114E+02  0.10236197136E+03  0.00000000000E+00 0. -1.
         22    1    1    2    0    0  0.28609305973E+02 -0.33106771421E+02  0.15441893804E+03  0.16049847079E+03  0.00000000000E+00 0.  1.
         22    1    1    2    0    0  0.19117525482E+02  0.88957278687E+00 -0.22087058708E+02  0.29225148121E+02  0.00000000000E+00 0. -1.
</event>
<event>
 6    1  0.3624778E-005  0.1234294E+03  0.7818608E-02  0.1238413E+00
          2   -1    0    0  502    0  0.00000000000E+00  0.00000000000E+00  0.12324854691E+03  0.12324854691E+03  0.00000000000E+00 0. -1.
          1   -1    0    0  501    0 -0.00000000000E+00 -0.00000000000E+00 -0.51662529462E+03  0.51662529462E+03  0.00000000000E+00 0. -1.
          2    1    1    2  501    0 -0.50557714886E+02  0.54120072140E+02 -0.47451079626E+02  0.87958340711E+02  0.00000000000E+00 0. -1.
          1    1    1    2  502    0 -0.41804436441E+02  0.25573848220E+02 -0.37288517805E+03  0.37609172901E+03  0.00000000000E+00 0. -1.
         22    1    1    2    0    0  0.10526609945E+03 -0.88454327688E+02  0.51434802430E+02  0.14680142602E+03  0.00000000000E+00 0. -1.
         22    1    1    2    0    0 -0.12903948121E+02  0.87604073288E+01 -0.24475292462E+02  0.29022345784E+02  0.00000000000E+00 0.  1.
</event>
<event>
 6    1  0.3624778E-005  0.2779834E+03  0.7818608E-02  0.1187677E+00
          2   -1    0    0  502    0  0.00000000000E+00  0.00000000000E+00  0.21572001461E+03  0.21572001461E+03  0.00000000000E+00 0.  1.
          1   -1    0    0  501    0 -0.00000000000E+00 -0.00000000000E+00 -0.83745564565E+03  0.83745564565E+03  0.00000000000E+00 0.  1.
          2    1    1    2  501    0 -0.98426512415E+02 -0.10503695937E+03 -0.46025694327E+02  0.15112546350E+03  0.00000000000E+00 0.  1.
          1    1    1    2  502    0  0.13974691538E+03  0.23589298167E+03 -0.64958836420E+03  0.70508137265E+03  0.00000000000E+00 0.  1.
         22    1    1    2    0    0  0.18900384480E+02 -0.24831051266E+02  0.68087066545E+02  0.74897625270E+02  0.00000000000E+00 0. -1.
         22    1    1    2    0    0 -0.60220787449E+02 -0.10602497103E+03  0.57913609364E+01  0.12207119883E+03  0.00000000000E+00 0. -1.
</event>
<event>
 6    1  0.3624778E-005  0.2888968E+03  0.7818608E-02  0.1139496E+00
          2   -1    0    0  502    0  0.00000000000E+00  0.00000000000E+00  0.32160192405E+03  0.32160192405E+03  0.00000000000E+00 0. -1.
          1   -1    0    0  501    0 -0.00000000000E+00 -0.00000000000E+00 -0.37785083090E+03  0.37785083090E+03  0.00000000000E+00 0. -1.
          2    1    1    2  501    0  0.12413911393E+03  0.11379964453E+03 -0.20905042994E+03  0.26844545248E+03  0.00000000000E+00 0. -1.
          1    1    1    2  502    0 -0.11976689396E+03 -0.20833256285E+03  0.11222646734E+03  0.26521942916E+03  0.00000000000E+00 0. -1.
         22    1    1    2    0    0 -0.67108066155E+02  0.51814077918E+02  0.19079558335E+02  0.86903514082E+02  0.00000000000E+00 0. -1.
         22    1    1    2    0    0  0.62735846186E+02  0.42718840407E+02  0.21495497414E+02  0.78884359232E+02  0.00000000000E+00 0.  1.
</event>
<event>
 6    1  0.3624778E-005  0.6948146E+02  0.7818608E-02  0.1363676E+00
          2   -1    0    0  502    0  0.00000000000E+00  0.00000000000E+00  0.10796815935E+03  0.10796815935E+03  0.00000000000E+00 0. -1.
          1   -1    0    0  501    0 -0.00000000000E+00 -0.00000000000E+00 -0.37042694341E+03  0.37042694341E+03  0.00000000000E+00 0.  1.
          2    1    1    2  501    0 -0.70008550145E+01 -0.22110432309E+02 -0.20915106161E+01  0.23286425326E+02  0.00000000000E+00 0. -1.
          1    1    1    2  502    0  0.47480819842E+02  0.15317857960E+02 -0.30752354950E+03  0.31154421600E+03  0.00000000000E+00 0.  1.
         22    1    1    2    0    0  0.35581780919E+01  0.61188003361E+02  0.40052166488E+02  0.73217541799E+02  0.00000000000E+00 0. -1.
         22    1    1    2    0    0 -0.44038142919E+02 -0.54395429012E+02  0.71041095705E+01  0.70346919634E+02  0.00000000000E+00 0. -1.
</event>
<event>
 6    1  0.3624778E-005  0.8940550E+02  0.7818608E-02  0.1342062E+00
          2   -1    0    0  502    0  0.00000000000E+00  0.00000000000E+00  0.28999999549E+02  0.28999999549E+02  0.00000000000E+00 0. -1.
          1   -1    0    0  501    0 -0.00000000000E+00 -0.00000000000E+00 -0.84673294897E+03  0.84673294897E+03  0.00000000000E+00 0. -1.
          2    1    1    2  501    0 -0.40151803670E+02  0.36203536790E+02 -0.11922580559E+03  0.13091087095E+03  0.00000000000E+00 0. -1.
          1    1    1    2  502    0  0.24075601331E+02 -0.77367390978E+02 -0.50027705038E+03  0.50679628541E+03  0.00000000000E+00 0. -1.
         22    1    1    2    0    0  0.45673001947E+02  0.66049474702E+00 -0.15038177030E+02  0.48089563614E+02  0.00000000000E+00 0. -1.
         22    1    1    2    0    0 -0.29596799609E+02  0.40503359441E+02 -0.18319191642E+03  0.18993622855E+03  0.00000000000E+00 0. -1.
</event>
<event>
 6    1  0.3624778E-005  0.1690630E+03  0.7818608E-02  0.1267268E+00
          2   -1    0    0  502    0  0.00000000000E+00  0.00000000000E+00  0.34967715320E+02  0.34967715320E+02  0.00000000000E+00 0.  1.
          1   -1    0    0  501    0 -0.00000000000E+00 -0.00000000000E+00 -0.15077266416E+04  0.15077266416E+04  0.00000000000E+00 0.  1.
          2    1    1    2  501    0  0.37978732732E+02  0.79451581022E+01 -0.28059886604E+03  0.28326883574E+03  0.00000000000E+00 0.  1.
          1    1    1    2  502    0 -0.12425741293E+03  0.52969573419E+01 -0.10180571981E+04  0.10256258679E+04  0.00000000000E+00 0.  1.
         22    1    1    2    0    0 -0.25147491231E+02  0.86195905441E+01 -0.78249549220E+00  0.26595224300E+02  0.00000000000E+00 0.  1.
         22    1    1    2    0    0  0.11142617143E+03 -0.21861705988E+02 -0.17332036663E+03  0.20720442891E+03  0.00000000000E+00 0.  1.
</event>
<event>
 6    1  0.3624778E-005  0.8827649E+02  0.7818608E-02  0.1313291E+00
          2   -1    0    0  502    0  0.00000000000E+00  0.00000000000E+00  0.83806470984E+02  0.83806470984E+02  0.00000000000E+00 0.  1.
          1   -1    0    0  501    0 -0.00000000000E+00 -0.00000000000E+00 -0.39476195410E+03  0.39476195410E+03  0.00000000000E+00 0. -1.
          2    1    1    2  501    0  0.80958326702E+01 -0.47078180772E+02  0.15261604728E+02  0.50147923091E+02  0.00000000000E+00 0.  1.
          1    1    1    2  502    0 -0.36206966815E+02  0.42139627744E+02 -0.29331516318E+03  0.29853053047E+03  0.00000000000E+00 0. -1.
         22    1    1    2    0    0  0.65721538735E+01 -0.57660673185E+02 -0.25104596816E+02  0.63231220295E+02  0.00000000000E+00 0.  1.
         22    1    1    2    0    0  0.21538980272E+02  0.62599226214E+02 -0.77973278481E+01  0.66658751228E+02  0.00000000000E+00 0.  1.
</event>
<event>
 6    1  0.3624778E-005  0.2881626E+03  0.7818608E-02  0.1187579E+00
          2   -1    0    0  502    0  0.00000000000E+00  0.00000000000E+00  0.16338726859E+03  0.16338726859E+03  0.00000000000E+00 0. -1.
          1   -1    0    0  501    0 -0.00000000000E+00 -0.00000000000E+00 -0.80220740822E+03  0.80220740822E+03  0.00000000000E+00 0. -1.
          2    1    1    2  501    0  0.14566832718E+03  0.14909036860E+03 -0.52136859770E+02  0.21486147095E+03  0.00000000000E+00 0. -1.
          1    1    1    2  502    0 -0.10912028896E+03 -0.17821032966E+03 -0.58573079415E+03  0.62188963834E+03  0.00000000000E+00 0. -1.
         22    1    1    2    0    0 -0.58146985589E+02  0.11183361373E+02 -0.46533765764E+02  0.75309566862E+02  0.00000000000E+00 0.  1.
         22    1    1    2    0    0  0.21598947371E+02  0.17936599688E+02  0.45581280049E+02  0.53534000661E+02  0.00000000000E+00 0.  1.
</event>
<event>
 6    1  0.3624778E-005  0.4169234E+02  0.7818608E-02  0.1542943E+00
          2   -1    0    0  502    0  0.00000000000E+00  0.00000000000E+00  0.50465074649E+02  0.50465074649E+02  0.00000000000E+00 0.  1.
          1   -1    0    0  501    0 -0.00000000000E+00 -0.00000000000E+00 -0.78772120711E+03  0.78772120711E+03  0.00000000000E+00 0.  1.
          2    1    1    2  501    0  0.17181018411E+02 -0.19064385700E+02 -0.95468041999E+02  0.98857398503E+02  0.00000000000E+00 0.  1.
          1    1    1    2  502    0 -0.24627556098E+02  0.13567099791E+02 -0.60884274664E+03  0.60949165118E+03  0.00000000000E+00 0.  1.
         22    1    1    2    0    0 -0.22271477142E+02 -0.46795227675E+00  0.42801178794E+02  0.48251202882E+02  0.00000000000E+00 0.  1.
         22    1    1    2    0    0  0.29718014829E+02  0.59652381862E+01 -0.75746522611E+02  0.81586029194E+02  0.00000000000E+00 0.  1.
</event>
<event>
 6    1  0.3624778E-005  0.7166554E+02  0.7818608E-02  0.1368834E+00
          2   -1    0    0  502    0  0.00000000000E+00  0.00000000000E+00  0.69164634250E+02  0.69164634250E+02  0.00000000000E+00 0.  1.
          1   -1    0    0  501    0 -0.00000000000E+00 -0.00000000000E+00 -0.14908893335E+04  0.14908893335E+04  0.00000000000E+00 0. -1.
          2    1    1    2  501    0 -0.25336808107E+02 -0.57766048872E+02 -0.29178663667E+03  0.29852690262E+03  0.00000000000E+00 0.  1.
          1    1    1    2  502    0 -0.39248744095E+02  0.45066287097E+02 -0.11226940666E+04  0.11242835058E+04  0.00000000000E+00 0. -1.
         22    1    1    2    0    0  0.13733735589E+02 -0.11637173322E+02 -0.58403955103E+02  0.61115147614E+02  0.00000000000E+00 0.  1.
         22    1    1    2    0    0  0.50851816613E+02  0.24336935096E+02  0.51159959110E+02  0.76128411772E+02  0.00000000000E+00 0.  1.
</event>
<event>
 6    1  0.3624778E-005  0.2870739E+03  0.7818608E-02  0.1173004E+00
          2   -1    0    0  502    0  0.00000000000E+00  0.00000000000E+00  0.25762267116E+03  0.25762267116E+03  0.00000000000E+00 0.  1.
          1   -1    0    0  501    0 -0.00000000000E+00 -0.00000000000E+00 -0.11150655353E+04  0.11150655353E+04  0.00000000000E+00 0.  1.
          2    1    1    2  501    0  0.57087611255E+01 -0.10874011355E+03  0.98133835896E+02  0.14658530621E+03  0.00000000000E+00 0.  1.
          1    1    1    2  502    0  0.12107583911E+03  0.10302615290E+02 -0.10073865648E+04  0.10146887176E+04  0.00000000000E+00 0.  1.
         22    1    1    2    0    0 -0.89376553457E+02  0.11080275854E+03 -0.48070879652E+01  0.14243780293E+03  0.00000000000E+00 0.  1.
         22    1    1    2    0    0 -0.37408046778E+02 -0.12365260285E+02  0.56616952715E+02  0.68976379728E+02  0.00000000000E+00 0. -1.
</event>
<event>
 6    1  0.5669558E-005  0.3412085E+03  0.7818608E-02  0.1187201E+00
          2   -1    0    0  502    0  0.00000000000E+00  0.00000000000E+00  0.14034399365E+03  0.14034399365E+03  0.00000000000E+00 0. -1.
          1   -1    0    0  501    0 -0.00000000000E+00 -0.00000000000E+00 -0.16286880353E+04  0.16286880353E+04  0.00000000000E+00 0.  1.
          2    1    1    2  501    0  0.74170296395E+02  0.58418577588E+01 -0.20189702973E+03  0.21516916783E+03  0.00000000000E+00 0. -1.
          1    1    1    2  502    0 -0.30429445787E+02  0.17114405629E+02 -0.13860655535E+04  0.13865051650E+04  0.00000000000E+00 0.  1.
         22    1    1    2    0    0 -0.38141435172E+02 -0.68479220440E+01  0.12828058379E+03  0.13400586290E+03  0.00000000000E+00 0. -1.
         22    1    1    2    0    0 -0.55994154368E+01 -0.16108341344E+02 -0.28662042183E+02  0.33351833176E+02  0.00000000000E+00 0.  1.
</event>
<event>
 6    1  0.3624778E-005  0.1118630E+03  0.7818608E-02  0.1287265E+00
          2   -1    0    0  502    0  0.00000000000E+00  0.00000000000E+00  0.19810755459E+02  0.19810755459E+02  0.00000000000E+00 0. -1.
          1   -1    0    0  501    0 -0.00000000000E+00 -0.00000000000E+00 -0.17419770283E+04  0.17419770283E+04  0.00000000000E+00 0. -1.
          2    1    1    2  501    0  0.37959272697E+02 -0.16718068888E+02 -0.18326638802E+03  0.18790148799E+03  0.00000000000E+00 0. -1.
          1    1    1    2  502    0 -0.33267383969E+02 -0.28807669778E+01 -0.13391246773E+04  0.13395409359E+04  0.00000000000E+00 0. -1.
         22    1    1    2    0    0 -0.43747280172E+02 -0.28267810443E+02 -0.13563517201E+03  0.14529209722E+03  0.00000000000E+00 0. -1.
         22    1    1    2    0    0  0.39055391444E+02  0.47866646308E+02 -0.64140035533E+02  0.89053262646E+02  0.00000000000E+00 0. -1.
</event>
<event>
 6    1  0.3624778E-005  0.2223049E+03  0.7818608E-02  0.1242880E+00
          2   -1    0    0  502    0  0.00000000000E+00  0.00000000000E+00  0.97018261413E+02  0.97018261413E+02  0.00000000000E+00 0. -1.
          1   -1    0    0  501    0 -0.00000000000E+00 -0.00000000000E+00 -0.95467672477E+03  0.95467672477E+03  0.00000000000E+00 0. -1.
          2    1    1    2  501    0 -0.40888277049E+02  0.12673057481E+03 -0.46339624621E+03  0.48214994638E+03  0.00000000000E+00 0. -1.
          1    1    1    2  502    0  0.86999122183E+02 -0.20036150709E+03 -0.10029923811E+03  0.24036122389E+03  0.00000000000E+00 0. -1.
         22    1    1    2    0    0 -0.62135692825E+02  0.63502237912E+02 -0.29698276473E+03  0.30998732408E+03  0.00000000000E+00 0. -1.
         22    1    1    2    0    0  0.16024847690E+02  0.10128694368E+02  0.30197856885E+01  0.19196491833E+02  0.00000000000E+00 0.  1.
</event>
<event>
 6    1  0.3624778E-005  0.1122661E+03  0.7818608E-02  0.1320336E+00
          2   -1    0    0  502    0  0.00000000000E+00  0.00000000000E+00  0.50078122217E+02  0.50078122217E+02  0.00000000000E+00 0.  1.
          1   -1    0    0  501    0 -0.00000000000E+00 -0.00000000000E+00 -0.12504678098E+04  0.12504678098E+04  0.00000000000E+00 0.  1.
          2    1    1    2  501    0  0.39247934055E+02  0.10834494366E+02 -0.75914080980E+02  0.86143683963E+02  0.00000000000E+00 0.  1.
          1    1    1    2  502    0 -0.33435790252E+02 -0.95539950177E+01 -0.10802676043E+04  0.10808271499E+04  0.00000000000E+00 0.  1.
         22    1    1    2    0    0  0.27862396706E+02 -0.40375559619E+01  0.36490630826E+02  0.46088839717E+02  0.00000000000E+00 0.  1.
         22    1    1    2    0    0 -0.33674540510E+02  0.27570566134E+01 -0.80698633102E+02  0.87486258488E+02  0.00000000000E+00 0. -1.
</event>
<event>
 6    1  0.3624778E-005  0.7651004E+02  0.7818608E-02  0.1340925E+00
          2   -1    0    0  502    0  0.00000000000E+00  0.00000000000E+00  0.95643598622E+02  0.95643598622E+02  0.00000000000E+00 0.  1.
          1   -1    0    0  501    0 -0.00000000000E+00 -0.00000000000E+00 -0.11653259701E+03  0.11653259701E+03  0.00000000000E+00 0.  1.
          2    1    1    2  501    0  0.22629318830E+02 -0.19146561113E+02 -0.72585284666E+01  0.30518242227E+02  0.00000000000E+00 0.  1.
          1    1    1    2  502    0 -0.29516405578E+02  0.17505829843E+02 -0.36972218524E+02  0.50444199065E+02  0.00000000000E+00 0.  1.
         22    1    1    2    0    0  0.48115310362E+02 -0.45669991248E+02  0.10626467879E+02  0.67184470017E+02  0.00000000000E+00 0.  1.
         22    1    1    2    0    0 -0.41228223614E+02  0.47310722517E+02  0.12715280721E+02  0.64029284326E+02  0.00000000000E+00 0.  1.
</event>
<event>
 6    1  0.3624778E-005  0.2440188E+03  0.7818608E-02  0.1152098E+00
          2   -1    0    0  502    0  0.00000000000E+00  0.00000000000E+00  0.32592908851E+03  0.32592908851E+03  0.00000000000E+00 0.  1.
          1   -1    0    0  501    0 -0.00000000000E+00 -0.00000000000E+00 -0.16817054123E+04  0.16817054123E+04  0.00000000000E+00 0.  1.
          2    1    1    2  501    0 -0.19468698859E+02 -0.15137573627E+03  0.20192569126E+03  0.25311584020E+03  0.00000000000E+00 0.  1.
          1    1    1    2  502    0  0.17585900089E+02  0.34835455998E+02 -0.15792910205E+04  0.15797730534E+04  0.00000000000E+00 0.  1.
         22    1    1    2    0    0  0.63579244778E+02  0.60332412669E+02 -0.31176244480E+01  0.87704275649E+02  0.00000000000E+00 0.  1.
         22    1    1    2    0    0 -0.61696446007E+02  0.56207867602E+02  0.24706629919E+02  0.87041331517E+02  0.00000000000E+00 0.  1.
</event>
<event>
 6    1  0.3624778E-005  0.2096371E+03  0.7818608E-02  0.1142213E+00
          2   -1    0    0  502    0  0.00000000000E+00  0.00000000000E+00  0.58713956499E+03  0.58713956499E+03  0.00000000000E+00 0. -1.
          1   -1    0    0  501    0 -0.00000000000E+00 -0.00000000000E+00 -0.85672432269E+03  0.85672432269E+03  0.00000000000E+00 0. -1.
          2    1    1    2  501    0 -0.15920237808E+03 -0.11918405043E+03  0.50265284389E+02  0.20512638513E+03  0.00000000000E+00 0. -1.
          1    1    1    2  502    0  0.13292400649E+03 -0.90163538641E+02 -0.73749582493E+03  0.75478364250E+03  0.00000000000E+00 0. -1.
         22    1    1    2    0    0  0.30608479977E+02  0.22042979429E+03  0.41620750388E+03  0.47196912986E+03  0.00000000000E+00 0.  1.
         22    1    1    2    0    0 -0.43301083824E+01 -0.11082205220E+02  0.14382789568E+01  0.11984730181E+02  0.00000000000E+00 0.  1.
</event>
<event>
 6    1  0.3624778E-005  0.7608428E+02  0.7818608E-02  0.1356252E+00
          2   -1    0    0  502    0  0.00000000000E+00  0.00000000000E+00  0.13003279837E+03  0.13003279837E+03  0.00000000000E+00 0.  1.
          1   -1    0    0  501    0 -0.00000000000E+00 -0.00000000000E+00 -0.62470902915E+03  0.62470902915E+03  0.00000000000E+00 0. -1.
          2    1    1    2  501    0 -0.58994050052E+02 -0.89966821105E+01 -0.68690741423E+02  0.90992616117E+02  0.00000000000E+00 0.  1.
          1    1    1    2  502    0  0.41011586760E+01 -0.24368310228E+02 -0.50234166208E+03  0.50294908242E+03  0.00000000000E+00 0. -1.
         22    1    1    2    0    0  0.55997619435E+02  0.16266113968E+02  0.10917818487E+03  0.12377477892E+03  0.00000000000E+00 0.  1.
         22    1    1    2    0    0 -0.11047280596E+01  0.17098878370E+02 -0.32822012152E+02  0.37025350064E+02  0.00000000000E+00 0.  1.
</event>
<event>
 6    1  0.3624778E-005  0.2516413E+03  0.7818608E-02  0.1199239E+00
          2   -1    0    0  502    0  0.00000000000E+00  0.00000000000E+00  0.38157314299E+03  0.38157314299E+03  0.00000000000E+00 0. -1.
          1   -1    0    0  501    0 -0.00000000000E+00 -0.00000000000E+00 -0.17812422586E+03  0.17812422586E+03  0.00000000000E+00 0.  1.
          2    1    1    2  501    0  0.65562485422E+02  0.43017544296E+01 -0.86810375801E+01  0.66274467176E+02  0.00000000000E+00 0. -1.
          1    1    1    2  502    0 -0.35736927323E+01  0.56148830028E+02 -0.11787637106E+03  0.13061508813E+03  0.00000000000E+00 0.  1.
         22    1    1    2    0    0  0.31145370769E+02 -0.97427324821E+01  0.28960609200E+02  0.43631088020E+02  0.00000000000E+00 0.  1.
         22    1    1    2    0    0 -0.93134163459E+02 -0.50707851976E+02  0.30104571656E+03  0.31917672552E+03  0.00000000000E+00 0. -1.
</event>
<event>
 6    1  0.3624778E-005  0.4890415E+03  0.7818608E-02  0.1127326E+00
          2   -1    0    0  502    0  0.00000000000E+00  0.00000000000E+00  0.11110573623E+04  0.11110573623E+04  0.00000000000E+00 0.  1.
          1   -1    0    0  501    0 -0.00000000000E+00 -0.00000000000E+00 -0.18184105521E+03  0.18184105521E+03  0.00000000000E+00 0. -1.
          2    1    1    2  501    0  0.15252759112E+03  0.34247084403E+01  0.66035943733E+02  0.16624421958E+03  0.00000000000E+00 0.  1.
          1    1    1    2  502    0 -0.13218098159E+03  0.22482525882E+03  0.40294990895E+02  0.26389750887E+03  0.00000000000E+00 0. -1.
         22    1    1    2    0    0 -0.23211089747E+02 -0.38237895360E+01  0.26908815485E+02  0.35741578092E+02  0.00000000000E+00 0. -1.
         22    1    1    2    0    0  0.28644802217E+01 -0.22442617773E+03  0.79597655697E+03  0.82701511095E+03  0.00000000000E+00 0.  1.
</event>
<event>
 6    1  0.3624778E-005  0.2465455E+03  0.7818608E-02  0.1115702E+00
          2   -1    0    0  502    0  0.00000000000E+00  0.00000000000E+00  0.30449264184E+03  0.30449264184E+03  0.00000000000E+00 0.  1.
          1   -1    0    0  501    0 -0.00000000000E+00 -0.00000000000E+00 -0.39587624579E+03  0.39587624579E+03  0.00000000000E+00 0. -1.
          2    1    1    2  501    0 -0.24560885281E+02 -0.21775562921E+03  0.40842796622E+02  0.22291003830E+03  0.00000000000E+00 0.  1.
          1    1    1    2  502    0  0.83912910095E+01 -0.22223455622E+02 -0.19556768517E+03  0.19700511473E+03  0.00000000000E+00 0. -1.
         22    1    1    2    0    0 -0.52824564264E+01 -0.15068135844E+02 -0.25275269641E+01  0.16166058773E+02  0.00000000000E+00 0.  1.
         22    1    1    2    0    0  0.21452050698E+02  0.25504722068E+03  0.65868811568E+02  0.26428767583E+03  0.00000000000E+00 0. -1.
</event>
<event>
 6    1  0.3624778E-005  0.6217128E+02  0.7818608E-02  0.1496782E+00
          2   -1    0    0  502    0  0.00000000000E+00  0.00000000000E+00  0.52516497262E+02  0.52516497262E+02  0.00000000000E+00 0. -1.
          1   -1    0    0  501    0 -0.00000000000E+00 -0.00000000000E+00 -0.63639579782E+03  0.63639579782E+03  0.00000000000E+00 0.  1.
          2    1    1    2  501    0  0.34296959485E+02 -0.19584013589E+02 -0.13348567808E+03  0.13920575158E+03  0.00000000000E+00 0. -1.
          1    1    1    2  502    0 -0.50196312024E+02  0.17681978490E+02 -0.42069822165E+03  0.42405107688E+03  0.00000000000E+00 0.  1.
         22    1    1    2    0    0  0.24927691370E+02  0.10486491756E+02 -0.74444580370E+02  0.79204493893E+02  0.00000000000E+00 0.  1.
         22    1    1    2    0    0 -0.90283388303E+01 -0.85844566571E+01  0.44749179544E+02  0.46450972735E+02  0.00000000000E+00 0. -1.
</event>
<event>
 6    1  0.4707466E-005  0.6703442E+02  0.7818608E-02  0.1377592E+00
          2   -1    0    0  502    0  0.00000000000E+00  0.00000000000E+00  0.37489615400E+03  0.37489615400E+03  0.00000000000E+00 0. -1.
          1   -1    0    0  501    0 -0.00000000000E+00 -0.00000000000E+00 -0.39629141424E+03  0.39629141424E+03  0.00000000000E+00 0. -1.
          2    1    1    2  501    0 -0.27672377291E+02  0.37384948634E+02  0.20319573086E+01  0.46556671915E+02  0.00000000000E+00 0. -1.
          1    1    1    2  502    0  0.18789030374E+02 -0.78475454101E+01 -0.36161022230E+03  0.36218305386E+03  0.00000000000E+00 0. -1.
         22    1    1    2    0    0  0.40355112862E+02 -0.41922209260E+02  0.31753385137E+03  0.32282155060E+03  0.00000000000E+00 0. -1.
         22    1    1    2    0    0 -0.31471765946E+02  0.12384806036E+02  0.20649153379E+02  0.39626291873E+02  0.00000000000E+00 0. -1.
</event>
<event>
 6    1  0.3624778E-005  0.5367843E+02  0.7818608E-02  0.1442973E+00
          2   -1    0    0  502    0  0.00000000000E+00  0.00000000000E+00  0.12782978599E+03  0.12782978599E+03  0.00000000000E+00 0.  1.
          1   -1    0    0  501    0 -0.00000000000E+00 -0.00000000000E+00 -0.53066493101E+03  0.53066493101E+03  0.00000000000E+00 0.  1.
          2    1    1    2  501    0  0.37776221095E+02  0.93376946066E+01 -0.80890861468E+02  0.89763950948E+02  0.00000000000E+00 0.  1.
          1    1    1    2  502    0 -0.26808997067E+02 -0.45049697414E+01 -0.41248688509E+03  0.41338172123E+03  0.00000000000E+00 0.  1.
         22    1    1    2    0    0 -0.41013712130E+02  0.98132566118E+00  0.11113277171E+03  0.11846341431E+03  0.00000000000E+00 0.  1.
         22    1    1    2    0    0  0.30046488102E+02 -0.58140505263E+01 -0.20590170162E+02  0.36885630510E+02  0.00000000000E+00 0.  1.
</event>
<event>
 6    1  0.3624778E-005  0.1261611E+03  0.7818608E-02  0.1243553E+00
          2   -1    0    0  502    0  0.00000000000E+00  0.00000000000E+00  0.18292850157E+03  0.18292850157E+03  0.00000000000E+00 0. -1.
          1   -1    0    0  501    0 -0.00000000000E+00 -0.00000000000E+00 -0.62625670670E+03  0.62625670670E+03  0.00000000000E+00 0. -1.
          2    1    1    2  501    0  0.27657034233E+02  0.13641979452E+02 -0.14365189488E+02  0.34020197162E+02  0.00000000000E+00 0. -1.
          1    1    1    2  502    0 -0.11933974476E+03  0.81938446921E+02 -0.54129078320E+03  0.56031383683E+03  0.00000000000E+00 0. -1.
         22    1    1    2    0    0  0.22042907017E+02  0.25977033260E+02 -0.18563412508E+01  0.34119525343E+02  0.00000000000E+00 0. -1.
         22    1    1    2    0    0  0.69639803510E+02 -0.12155745963E+03  0.11418410880E+03  0.18073164894E+03  0.00000000000E+00 0. -1.
</event>
<event>
 6    1  0.3624778E-005  0.4190403E+03  0.7818608E-02  0.1150782E+00
          2   -1    0    0  502    0  0.00000000000E+00  0.00000000000E+00  0.27580726780E+03  0.27580726780E+03  0.00000000000E+00 0. -1.
          1   -1    0    0  501    0 -0.00000000000E+00 -0.00000000000E+00 -0.48192908426E+03  0.48192908426E+03  0.00000000000E+00 0.  1.
          2    1    1    2  501    0  0.19404432486E+02 -0.66443465911E+02 -0.11307781274E+03  0.13258151416E+03  0.00000000000E+00 0. -1.
          1    1    1    2  502    0 -0.18648281798E+03 -0.13358474849E+03 -0.21360307495E+03  0.31344377496E+03  0.00000000000E+00 0.  1.
         22    1    1    2    0    0  0.16707622146E+03  0.17881386185E+03  0.14084529522E+03  0.28235838602E+03  0.00000000000E+00 0. -1.
         22    1    1    2    0    0  0.21640325565E-02  0.21214352548E+02 -0.20286223995E+02  0.29352676925E+02  0.00000000000E+00 0. -1.
</event>
<event>
 6    1  0.3624778E-005  0.1247897E+03  0.7818608E-02  0.1263813E+00
          2   -1    0    0  502    0  0.00000000000E+00  0.00000000000E+00  0.26681266547E+03  0.26681266547E+03  0.00000000000E+00 0.  1.
          1   -1    0    0  501    0 -0.00000000000E+00 -0.00000000000E+00 -0.40619615044E+03  0.40619615044E+03  0.00000000000E+00 0.  1.
          2    1    1    2  501    0 -0.79377638717E+02 -0.84034421557E+02  0.56868297161E+02  0.12882777944E+03  0.00000000000E+00 0.  1.
          1    1    1    2  502    0  0.54175545960E+02  0.59899547953E+02 -0.34146409999E+03  0.35088556141E+03  0.00000000000E+00 0.  1.
         22    1    1    2    0    0  0.40944956299E+02  0.57643081700E+02  0.38853092108E+02  0.80676992263E+02  0.00000000000E+00 0.  1.
         22    1    1    2    0    0 -0.15742863543E+02 -0.33508208097E+02  0.10635922575E+03  0.11261848279E+03  0.00000000000E+00 0. -1.
</event>
<event>
 6    1  0.3624778E-005  0.1321563E+03  0.7818608E-02  0.1226422E+00
          2   -1    0    0  502    0  0.00000000000E+00  0.00000000000E+00  0.23102489797E+03  0.23102489797E+03  0.00000000000E+00 0. -1.
          1   -1    0    0  501    0 -0.00000000000E+00 -0.00000000000E+00 -0.37372699304E+03  0.37372699304E+03  0.00000000000E+00 0. -1.
          2    1    1    2  501    0  0.17468019053E+02 -0.99804738697E+02  0.29483426321E+02  0.10552435730E+03  0.00000000000E+00 0. -1.
          1    1    1    2  502    0  0.22614399308E+02  0.15555633479E+02 -0.29747100504E+03  0.29873464417E+03  0.00000000000E+00 0. -1.
         22    1    1    2    0    0 -0.58535424414E+02  0.11009685908E+03  0.97260598010E+02  0.15813708678E+03  0.00000000000E+00 0. -1.
         22    1    1    2    0    0  0.18453006053E+02 -0.25847753862E+02  0.28024885637E+02  0.42355802756E+02  0.00000000000E+00 0.  1.
</event>
<event>
 6    1  0.3624778E-005  0.3258316E+03  0.7818608E-02  0.1176443E+00
          2   -1    0    0  502    0  0.00000000000E+00  0.00000000000E+00  0.38176206956E+03  0.38176206956E+03  0.00000000000E+00 0.  1.
          1   -1    0    0  501    0 -0.00000000000E+00 -0.00000000000E+00 -0.13922613129E+04  0.13922613129E+04  0.00000000000E+00 0.  1.
          2    1    1    2  501    0 -0.19685984455E+03 -0.24516715037E+02  0.79672521722E+02  0.21378161387E+03  0.00000000000E+00 0.  1.
          1    1    1    2  502    0  0.27261536965E+03  0.92534422876E+02 -0.12804932763E+04  0.13124575383E+04  0.00000000000E+00 0.  1.
         22    1    1    2    0    0  0.24168441750E+02  0.60854791434E+01  0.63835316131E+01  0.25727341660E+02  0.00000000000E+00 0. -1.
         22    1    1    2    0    0 -0.99923966855E+02 -0.74103186982E+02  0.18393797959E+03  0.22205688868E+03  0.00000000000E+00 0.  1.
</event>
<event>
 6    1  0.3624778E-005  0.1133619E+03  0.7818608E-02  0.1294132E+00
          2   -1    0    0  502    0  0.00000000000E+00  0.00000000000E+00  0.32511724436E+02  0.32511724436E+02  0.00000000000E+00 0.  1.
          1   -1    0    0  501    0 -0.00000000000E+00 -0.00000000000E+00 -0.14663894349E+04  0.14663894349E+04  0.00000000000E+00 0. -1.
          2    1    1    2  501    0 -0.42220419082E+02 -0.60238613504E+01 -0.15630474781E+02  0.45422047894E+02  0.00000000000E+00 0.  1.
          1    1    1    2  502    0  0.68859373557E+02 -0.25916683622E+02 -0.11751791933E+04  0.11774801163E+04  0.00000000000E+00 0. -1.
         22    1    1    2    0    0 -0.60486534635E+02 -0.87282149637E+01 -0.19556866221E+03  0.20489486145E+03  0.00000000000E+00 0.  1.
         22    1    1    2    0    0  0.33847580160E+02  0.40668759936E+02 -0.47499380163E+02  0.71104133728E+02  0.00000000000E+00 0.  1.
</event>
<event>
 6    1  0.3624778E-005  0.1173537E+03  0.7818608E-02  0.1353932E+00
          2   -1    0    0  502    0  0.00000000000E+00  0.00000000000E+00  0.15168829628E+03  0.15168829628E+03  0.00000000000E+00 0.  1.
          1   -1    0    0  501    0 -0.00000000000E+00 -0.00000000000E+00 -0.48694564622E+03  0.48694564622E+03  0.00000000000E+00 0. -1.
          2    1    1    2  501    0 -0.31956269689E+02 -0.57815581063E+02  0.25765017411E+02  0.70906140131E+02  0.00000000000E+00 0.  1.
          1    1    1    2  502    0 -0.46779908029E+00  0.49609499730E+02 -0.42141195520E+03  0.42432223285E+03  0.00000000000E+00 0. -1.
         22    1    1    2    0    0  0.18304569058E+02  0.16713592251E+02 -0.37052466778E+02  0.44578994030E+02  0.00000000000E+00 0. -1.
         22    1    1    2    0    0  0.14119499711E+02 -0.85075109174E+01  0.97442054626E+02  0.98826575494E+02  0.00000000000E+00 0.  1.
</event>
<event>
 6    1  0.3624778E-005  0.1858346E+03  0.7818608E-02  0.1213928E+00
          2   -1    0    0  502    0  0.00000000000E+00  0.00000000000E+00  0.39949791130E+03  0.39949791130E+03  0.00000000000E+00 0. -1.
          1   -1    0    0  501    0 -0.00000000000E+00 -0.00000000000E+00 -0.19163173717E+03  0.19163173717E+03  0.00000000000E+00 0. -1.
          2    1    1    2  501    0 -0.89928481182E+02  0.11013033605E+03  0.12837834130E+03  0.19156414373E+03  0.00000000000E+00 0. -1.
          1    1    1    2  502    0  0.70869685959E+02 -0.11530109078E+03 -0.10943772780E+03  0.17405019445E+03  0.00000000000E+00 0. -1.
         22    1    1    2    0    0 -0.38492215247E+02 -0.82874980150E+01  0.14918473511E+03  0.15429328711E+03  0.00000000000E+00 0.  1.
         22    1    1    2    0    0  0.57551010469E+02  0.13458252743E+02  0.39740825516E+02  0.71222023178E+02  0.00000000000E+00 0.  1.
</event>
<event>
 6    1  0.3624778E-005  0.8055648E+02  0.7818608E-02  0.1337251E+00
          2   -1    0    0  502    0  0.00000000000E+00  0.00000000000E+00  0.17689372148E+03  0.17689372148E+03  0.00000000000E+00 0. -1.
          1   -1    0    0  501    0 -0.00000000000E+00 -0.00000000000E+00 -0.29329279406E+03  0.29329279406E+03  0.00000000000E+00 0. -1.
          2    1    1    2  501    0  0.40182164803E+02  0.53476591460E+01 -0.86875620574E+02  0.95867498542E+02  0.00000000000E+00 0. -1.
          1    1    1    2  502    0 -0.41428242973E+02 -0.90832346771E+02 -0.15180723842E+03  0.18169274111E+03  0.00000000000E+00 0. -1.
         22    1    1    2    0    0 -0.22434978827E+02  0.84843868408E+02  0.13846759965E+03  0.16393622673E+03  0.00000000000E+00 0. -1.
         22    1    1    2    0    0  0.23681056998E+02  0.64081921647E+00 -0.16183813240E+02  0.28690049160E+02  0.00000000000E+00 0.  1.
</event>
<event>
 6    1  0.3624778E-005  0.9125705E+02  0.7818608E-02  0.1309369E+00
          2   -1    0    0  502    0  0.00000000000E+00  0.00000000000E+00  0.87073197221E+01  0.87073197221E+01  0.00000000000E+00 0.  1.
          1   -1    0    0  501    0 -0.00000000000E+00 -0.00000000000E+00 -0.20406607224E+04  0.20406607224E+04  0.00000000000E+00 0.  1.
          2    1    1    2  501    0 -0.33636579631E+02 -0.46269346984E+00 -0.46577352124E+03  0.46698673072E+03  0.00000000000E+00 0.  1.
          1    1    1    2  502    0  0.18769705598E+02 -0.29634324921E+02 -0.10471708083E+04  0.10477581767E+04  0.00000000000E+00 0.  1.
         22    1    1    2    0    0  0.68088106318E+02  0.30348830089E+02 -0.27932336413E+03  0.28909960820E+03  0.00000000000E+00 0.  1.
         22    1    1    2    0    0 -0.53221232285E+02 -0.25181169874E+00 -0.23968570906E+03  0.24552352658E+03  0.00000000000E+00 0. -1.
</event>
<event>
 6    1  0.3624778E-005  0.1172525E+03  0.7818608E-02  0.1268634E+00
          2   -1    0    0  502    0  0.00000000000E+00  0.00000000000E+00  0.47594459110E+03  0.47594459110E+03  0.00000000000E+00 0. -1.
          1   -1    0    0  501    0 -0.00000000000E+00 -0.00000000000E+00 -0.34147883282E+03  0.34147883282E+03  0.00000000000E+00 0.  1.
          2    1    1    2  501    0 -0.50149012142E+02  0.11947505222E+02  0.43400774906E+02  0.67389120505E+02  0.00000000000E+00 0. -1.
          1    1    1    2  502    0  0.10970117389E+03  0.18873190906E+02 -0.30675299563E+03  0.32632490744E+03  0.00000000000E+00 0.  1.
         22    1    1    2    0    0 -0.36096116837E+02  0.43153782953E+02  0.89007946377E+02  0.10529764077E+03  0.00000000000E+00 0. -1.
         22    1    1    2    0    0 -0.23456044916E+02 -0.73974479082E+02  0.30881003263E+03  0.31841175520E+03  0.00000000000E+00 0. -1.
</event>
<event>
 6    1  0.3624778E-005  0.8789383E+02  0.7818608E-02  0.1308931E+00
          2   -1    0    0  502    0  0.00000000000E+00  0.00000000000E+00  0.34429092882E+03  0.34429092882E+03  0.00000000000E+00 0.  1.
          1   -1    0    0  501    0 -0.00000000000E+00 -0.00000000000E+00 -0.57700272308E+03  0.57700272308E+03  0.00000000000E+00 0.  1.
          2    1    1    2  501    0 -0.24874724352E+02  0.18596011479E+02  0.18050061366E+02  0.35921696367E+02  0.00000000000E+00 0.  1.
          1    1    1    2  502    0 -0.43317436066E+02 -0.46239899820E+01 -0.55078530360E+03  0.55250541374E+03  0.00000000000E+00 0.  1.
         22    1    1    2    0    0 -0.21008135226E+02  0.29584219273E+02  0.37400071079E+02  0.52108858099E+02  0.00000000000E+00 0.  1.
         22    1    1    2    0    0  0.89200295644E+02 -0.43556240770E+02  0.26262337690E+03  0.28075768368E+03  0.00000000000E+00 0.  1.
</event>
<event>
 6    1  0.3624778E-005  0.1703037E+03  0.7818608E-02  0.1280140E+00
          2   -1    0    0  502    0  0.00000000000E+00  0.00000000000E+00  0.46117407386E+02  0.46117407386E+02  0.00000000000E+00 0. -1.
          1   -1    0    0  501    0 -0.00000000000E+00 -0.00000000000E+00 -0.92046115498E+03  0.92046115498E+03  0.00000000000E+00 0. -1.
          2    1    1    2  501    0 -0.56995323324E+02  0.73523115277E+02 -0.38301101958E+03  0.39414661800E+03  0.00000000000E+00 0. -1.
          1    1    1    2  502    0  0.71212735283E+02 -0.13340570573E+03 -0.29404321008E+03  0.33065048825E+03  0.00000000000E+00 0. -1.
         22    1    1    2    0    0 -0.25898784995E+02  0.76491653742E+02 -0.20478771765E+03  0.22013570691E+03  0.00000000000E+00 0. -1.
         22    1    1    2    0    0  0.11681373037E+02 -0.16609063290E+02  0.74981997190E+01  0.21645749200E+02  0.00000000000E+00 0.  1.
</event>
<event>
 6    1  0.3624778E-005  0.8686722E+02  0.7818608E-02  0.1380273E+00
          2   -1    0    0  502    0  0.00000000000E+00  0.00000000000E+00  0.60855293806E+02  0.60855293806E+02  0.00000000000E+00 0.  1.
          1   -1    0    0  501    0 -0.00000000000E+00 -0.00000000000E+00 -0.17008677644E+03  0.17008677644E+03  0.00000000000E+00 0.  1.
          2    1    1    2  501    0 -0.42019972529E+02 -0.27122699517E+02 -0.37866137707E+02  0.62730879998E+02  0.00000000000E+00 0.  1.
          1    1    1    2  502    0  0.13948321027E+02  0.17315157828E+02 -0.25491293980E+02  0.33825676916E+02  0.00000000000E+00 0.  1.
         22    1    1    2    0    0  0.31987789438E+02 -0.15679115855E+02 -0.82344582271E+02  0.89720028848E+02  0.00000000000E+00 0.  1.
         22    1    1    2    0    0 -0.39161379368E+01  0.25486657544E+02  0.36470531325E+02  0.44665484484E+02  0.00000000000E+00 0.  1.
</event>
<event>
 6    1  0.3624778E-005  0.1007711E+03  0.7818608E-02  0.1356496E+00
          2   -1    0    0  502    0  0.00000000000E+00  0.00000000000E+00  0.21533434996E+02  0.21533434996E+02  0.00000000000E+00 0. -1.
          1   -1    0    0  501    0 -0.00000000000E+00 -0.00000000000E+00 -0.61950671892E+03  0.61950671892E+03  0.00000000000E+00 0. -1.
          2    1    1    2  501    0 -0.13064840113E+02  0.47003305209E+02 -0.20052087710E+03  0.20637011145E+03  0.00000000000E+00 0. -1.
          1    1    1    2  502    0  0.21131163607E+02  0.35808692876E+01 -0.15511356233E+03  0.15658724699E+03  0.00000000000E+00 0. -1.
         22    1    1    2    0    0  0.16802682497E+02 -0.45372925045E+02 -0.24747437409E+03  0.25215986655E+03  0.00000000000E+00 0. -1.
         22    1    1    2    0    0 -0.24869005991E+02 -0.52112494514E+01  0.51355295985E+01  0.25922928926E+02  0.00000000000E+00 0. -1.
</event>
<event>
 6    1  0.4996615E-005  0.2474193E+03  0.7818608E-02  0.1198504E+00
          2   -1    0    0  502    0  0.00000000000E+00  0.00000000000E+00  0.72110402687E+03  0.72110402687E+03  0.00000000000E+00 0. -1.
          1   -1    0    0  501    0 -0.00000000000E+00 -0.00000000000E+00 -0.48237232193E+03  0.48237232193E+03  0.00000000000E+00 0.  1.
          2    1    1    2  501    0  0.12028493600E+03 -0.11634767587E+03  0.34598284856E+03  0.38432977897E+03  0.00000000000E+00 0. -1.
          1    1    1    2  502    0 -0.13884506779E+03  0.16052474384E+03 -0.42550384217E+03  0.47549938584E+03  0.00000000000E+00 0.  1.
         22    1    1    2    0    0 -0.11880013686E+02 -0.61219908577E+02  0.29547265393E+03  0.30198195501E+03  0.00000000000E+00 0. -1.
         22    1    1    2    0    0  0.30440145479E+02  0.17042840602E+02  0.22780044624E+02  0.41665228976E+02  0.00000000000E+00 0.  1.
</event>
<event>
 6    1  0.3624778E-005  0.1286668E+03  0.7818608E-02  0.1323000E+00
          2   -1    0    0  502    0  0.00000000000E+00  0.00000000000E+00  0.29315183621E+02  0.29315183621E+02  0.00000000000E+00 0.  1.
          1   -1    0    0  501    0 -0.00000000000E+00 -0.00000000000E+00 -0.17541648554E+04  0.17541648554E+04  0.00000000000E+00 0.  1.
          2    1    1    2  501    0  0.30324435566E+02  0.41198036535E+02 -0.11728343936E+03  0.12795411191E+03  0.00000000000E+00 0.  1.
          1    1    1    2  502    0  0.32552454152E+02  0.12109082378E+02 -0.14014106887E+04  0.14018410076E+04  0.00000000000E+00 0.  1.
         22    1    1    2    0    0 -0.20129172625E+02  0.72747530501E+01  0.11110709091E+02  0.24115419943E+02  0.00000000000E+00 0.  1.
         22    1    1    2    0    0 -0.42747717092E+02 -0.60581871963E+02 -0.21726625279E+03  0.22956949956E+03  0.00000000000E+00 0.  1.
</event>
<event>
 6    1  0.3624778E-005  0.1160720E+03  0.7818608E-02  0.1285789E+00
          2   -1    0    0  502    0  0.00000000000E+00  0.00000000000E+00  0.47986971926E+03  0.47986971926E+03  0.00000000000E+00 0. -1.
          1   -1    0    0  501    0 -0.00000000000E+00 -0.00000000000E+00 -0.69717370888E+02  0.69717370888E+02  0.00000000000E+00 0. -1.
          2    1    1    2  501    0  0.75241284097E+01 -0.41703829595E+02  0.24709798935E+01  0.42449118399E+02  0.00000000000E+00 0. -1.
          1    1    1    2  502    0 -0.44019614592E+02  0.92174298865E+02  0.31279789619E+02  0.10682814741E+03  0.00000000000E+00 0. -1.
         22    1    1    2    0    0  0.57446715539E+02  0.45733301586E+01  0.29047352283E+03  0.29613494887E+03  0.00000000000E+00 0. -1.
         22    1    1    2    0    0 -0.20951229357E+02 -0.55043799429E+02  0.85928056031E+02  0.10417487548E+03  0.00000000000E+00 0. -1.
</event>
<event>
 6    1  0.3624778E-005  0.1532151E+03  0.7818608E-02  0.1229807E+00
          2   -1    0    0  502    0  0.00000000000E+00  0.00000000000E+00  0.16888735031E+03  0.16888735031E+03  0.00000000000E+00 0.  1.
          1   -1    0    0  501    0 -0.00000000000E+00 -0.00000000000E+00 -0.10789442527E+04  0.10789442527E+04  0.00000000000E+00 0.  1.
          2    1    1    2  501    0  0.49238408171E+02 -0.14295870064E+02  0.33253567124E+02  0.61111312100E+02  0.00000000000E+00 0.  1.
          1    1    1    2  502    0 -0.13659839257E+03  0.58272183858E+02 -0.10038709790E+04  0.10147963888E+04  0.00000000000E+00 0.  1.
         22    1    1    2    0    0  0.37358781623E+02 -0.65767360817E+02 -0.16594580174E+02  0.77436453976E+02  0.00000000000E+00 0. -1.
         22    1    1    2    0    0  0.50001202773E+02  0.21791047024E+02  0.77155089607E+02  0.94487448168E+02  0.00000000000E+00 0.  1.
</event>
<event>
 6    1  0.3624778E-005  0.1968877E+03  0.7818608E-02  0.1217471E+00
          2   -1    0    0  502    0  0.00000000000E+00  0.00000000000E+00  0.57896141912E+02  0.57896141912E+02  0.00000000000E+00 0. -1.
          1   -1    0    0  501    0 -0.00000000000E+00 -0.00000000000E+00 -0.18164246465E+04  0.18164246465E+04  0.00000000000E+00 0. -1.
          2    1    1    2  501    0  0.84481203305E+02 -0.12382468094E+03 -0.12794167076E+04  0.12881679770E+04  0.00000000000E+00 0. -1.
          1    1    1    2  502    0 -0.13260149511E+03  0.14720927436E+03 -0.27391230148E+03  0.33805572894E+03  0.00000000000E+00 0. -1.
         22    1    1    2    0    0  0.15836168328E+02 -0.43305122510E+02 -0.74087281432E+01  0.46701253897E+02  0.00000000000E+00 0. -1.
         22    1    1    2    0    0  0.32284123482E+02  0.19920529085E+02 -0.19779076737E+03  0.20139582856E+03  0.00000000000E+00 0.  1.
</event>
<event>
 6    1  0.3624778E-005  0.1203278E+03  0.7818608E-02  0.1368944E+00
          2   -1    0    0  502    0  0.00000000000E+00  0.00000000000E+00  0.71997835222E+02  0.71997835222E+02  0.00000000000E+00 0. -1.
          1   -1    0    0  501    0 -0.00000000000E+00 -0.00000000000E+00 -0.60555429085E+03  0.60555429085E+03  0.00000000000E+00 0.  1.
          2    1    1    2  501    0  0.19573122921E+02  0.61752122759E+02 -0.25260909927E+02  0.69530895122E+02  0.00000000000E+00 0. -1.
          1    1    1    2  502    0 -0.28091937507E+02 -0.11266453754E+02 -0.46837398814E+03  0.46935091638E+03  0.00000000000E+00 0.  1.
         22    1    1    2    0    0 -0.89134128510E+01 -0.78668390189E+01  0.42569272768E+02  0.44198179473E+02  0.00000000000E+00 0. -1.
         22    1    1    2    0    0  0.17432227437E+02 -0.42618829987E+02 -0.82490830326E+02  0.94472135102E+02  0.00000000000E+00 0.  1.
</event>
<event>
 6    1  0.3624778E-005  0.8489515E+02  0.7818608E-02  0.1349754E+00
          2   -1    0    0  502    0  0.00000000000E+00  0.00000000000E+00  0.59070741657E+03  0.59070741657E+03  0.00000000000E+00 0. -1.
          1   -1    0    0  501    0 -0.00000000000E+00 -0.00000000000E+00 -0.16005995511E+03  0.16005995511E+03  0.00000000000E+00 0.  1.
          2    1    1    2  501    0  0.19323628594E+02  0.35535525827E+02  0.14181334826E+03  0.14746932550E+03  0.00000000000E+00 0. -1.
          1    1    1    2  502    0  0.39355408936E+01 -0.73849861548E+02 -0.13754019058E+03  0.15616207785E+03  0.00000000000E+00 0.  1.
         22    1    1    2    0    0 -0.11961315762E+02 -0.45195181444E+02  0.20502992001E+03  0.21029252388E+03  0.00000000000E+00 0. -1.
         22    1    1    2    0    0 -0.11297853726E+02  0.83509517165E+02  0.22134438376E+03  0.23684344445E+03  0.00000000000E+00 0. -1.
</event>
<event>
 6    1  0.3624778E-005  0.1613785E+03  0.7818608E-02  0.1232587E+00
          2   -1    0    0  502    0  0.00000000000E+00  0.00000000000E+00  0.28538678382E+03  0.28538678382E+03  0.00000000000E+00 0. -1.
          1   -1    0    0  501    0 -0.00000000000E+00 -0.00000000000E+00 -0.13381117627E+03  0.13381117627E+03  0.00000000000E+00 0. -1.
          2    1    1    2  501    0 -0.73026910386E+02 -0.56302311164E+01 -0.27486847541E+02  0.78231425467E+02  0.00000000000E+00 0. -1.
          1    1    1    2  502    0 -0.92947873169E+01 -0.19009197928E+02 -0.55678870846E+02  0.59564077562E+02  0.00000000000E+00 0. -1.
         22    1    1    2    0    0  0.25081618571E+02  0.57230740446E+02  0.19432264449E+03  0.20412186410E+03  0.00000000000E+00 0. -1.
         22    1    1    2    0    0  0.57240079131E+02 -0.32591311401E+02  0.40418681446E+02  0.77280592956E+02  0.00000000000E+00 0. -1.
</event>
<event>
 6    1  0.3624778E-005  0.1448421E+03  0.7818608E-02  0.1291629E+00
          2   -1    0    0  502    0  0.00000000000E+00  0.00000000000E+00  0.73455684932E+02  0.73455684932E+02  0.00000000000E+00 0.  1.
          1   -1    0    0  501    0 -0.00000000000E+00 -0.00000000000E+00 -0.45785970643E+03  0.45785970643E+03  0.00000000000E+00 0.  1.
          2    1    1    2  501    0  0.85199938603E+02  0.33090463710E+02 -0.12203902755E+03  0.15247141559E+03  0.00000000000E+00 0.  1.
          1    1    1    2  502    0 -0.99642324899E+02 -0.66681058789E+02 -0.19640041892E+03  0.23010450031E+03  0.00000000000E+00 0.  1.
         22    1    1    2    0    0  0.22129114028E+02 -0.14721452340E+02  0.30575236178E+02  0.40512515524E+02  0.00000000000E+00 0.  1.
         22    1    1    2    0    0 -0.76867277317E+01  0.48312047419E+02 -0.96539811201E+02  0.10822695993E+03  0.00000000000E+00 0.  1.
</event>
<event>
 6    1  0.3624778E-005  0.5280207E+02  0.7818608E-02  0.1445972E+00
          2   -1    0    0  502    0  0.00000000000E+00  0.00000000000E+00  0.22610521947E+02  0.22610521947E+02  0.00000000000E+00 0. -1.
          1   -1    0    0  501    0 -0.00000000000E+00 -0.00000000000E+00 -0.88748667528E+03  0.88748667528E+03  0.00000000000E+00 0.  1.
          2    1    1    2  501    0  0.29552211346E+02  0.32159586089E+02 -0.58037383538E+02  0.72635460078E+02  0.00000000000E+00 0. -1.
          1    1    1    2  502    0 -0.24207163848E+02 -0.36530116445E+02 -0.53716674445E+03  0.53895134060E+03  0.00000000000E+00 0.  1.
         22    1    1    2    0    0 -0.34753448433E+02 -0.23690086022E+02 -0.24970629050E+03  0.25322372296E+03  0.00000000000E+00 0. -1.
         22    1    1    2    0    0  0.29408400935E+02  0.28060616378E+02 -0.19965734841E+02  0.45286673590E+02  0.00000000000E+00 0. -1.
</event>
<event>
 6    1  0.3624778E-005  0.1744502E+03  0.7818608E-02  0.1216517E+00
          2   -1    0    0  502    0  0.00000000000E+00  0.00000000000E+00  0.20522531404E+03  0.20522531404E+03  0.00000000000E+00 0. -1.
          1   -1    0    0  501    0 -0.00000000000E+00 -0.00000000000E+00 -0.30198025055E+03  0.30198025055E+03  0.00000000000E+00 0. -1.
          2    1    1    2  501    0  0.69424624524E+02 -0.11400517946E+03 -0.15515320038E+03  0.20466918435E+03  0.00000000000E+00 0. -1.
          1    1    1    2  502    0 -0.78978383633E+02  0.80650226987E+02  0.11528800034E+03  0.16134858914E+03  0.00000000000E+00 0. -1.
         22    1    1    2    0    0 -0.39974952180E+02  0.54557778603E+02 -0.74137780678E+01  0.68040518172E+02  0.00000000000E+00 0.  1.
         22    1    1    2    0    0  0.49528711288E+02 -0.21202826134E+02 -0.49475958401E+02  0.73147272934E+02  0.00000000000E+00 0. -1.
</event>
<event>
 6    1  0.3624778E-005  0.8960032E+02  0.7818608E-02  0.1350055E+00
          2   -1    0    0  502    0  0.00000000000E+00  0.00000000000E+00  0.24861138294E+03  0.24861138294E+03  0.00000000000E+00 0. -1.
          1   -1    0    0  501    0 -0.00000000000E+00 -0.00000000000E+00 -0.12106917726E+03  0.12106917726E+03  0.00000000000E+00 0. -1.
          2    1    1    2  501    0  0.20379607134E+02 -0.45868114192E+02 -0.57758519180E+02  0.76519662992E+02  0.00000000000E+00 0. -1.
          1    1    1    2  502    0 -0.75327079949E+02  0.23096584304E+02  0.29111729826E+02  0.83994725987E+02  0.00000000000E+00 0. -1.
         22    1    1    2    0    0  0.20539308002E+02  0.33812992540E+02  0.16686095894E+03  0.17148691278E+03  0.00000000000E+00 0. -1.
         22    1    1    2    0    0  0.34408164813E+02 -0.11041462653E+02 -0.10671963899E+02  0.37679258442E+02  0.00000000000E+00 0.  1.
</event>
<event>
 6    1  0.3624778E-005  0.1555361E+03  0.7818608E-02  0.1232193E+00
          2   -1    0    0  502    0  0.00000000000E+00  0.00000000000E+00  0.45006376218E+03  0.45006376218E+03  0.00000000000E+00 0. -1.
          1   -1    0    0  501    0 -0.00000000000E+00 -0.00000000000E+00 -0.10288780651E+04  0.10288780651E+04  0.00000000000E+00 0.  1.
          2    1    1    2  501    0  0.73306137328E+02 -0.59073167665E+02  0.87554289598E+02  0.12856586847E+03  0.00000000000E+00 0. -1.
          1    1    1    2  502    0 -0.85940111570E+02  0.12553009394E+03 -0.98689582979E+03  0.99855239528E+03  0.00000000000E+00 0.  1.
         22    1    1    2    0    0 -0.31640059246E+02 -0.61127470502E+02  0.28931988960E+03  0.29739478731E+03  0.00000000000E+00 0.  1.
         22    1    1    2    0    0  0.44274033488E+02 -0.53294557753E+01  0.31207347623E+02  0.54428776266E+02  0.00000000000E+00 0. -1.
</event>
<event>
 6    1  0.3624778E-005  0.4027325E+02  0.7818608E-02  0.1523365E+00
          2   -1    0    0  502    0  0.00000000000E+00  0.00000000000E+00  0.89100746916E+02  0.89100746916E+02  0.00000000000E+00 0. -1.
          1   -1    0    0  501    0 -0.00000000000E+00 -0.00000000000E+00 -0.21666778238E+03  0.21666778238E+03  0.00000000000E+00 0. -1.
          2    1    1    2  501    0 -0.12908206685E+02  0.29036029645E+02 -0.23289173515E+02  0.39396680322E+02  0.00000000000E+00 0. -1.
          1    1    1    2  502    0  0.25557675777E+02 -0.20174280071E+02 -0.13700648993E+03  0.14082249341E+03  0.00000000000E+00 0. -1.
         22    1    1    2    0    0 -0.10819055726E+02 -0.30078561471E+02  0.73167892147E+02  0.79845552589E+02  0.00000000000E+00 0. -1.
         22    1    1    2    0    0 -0.18304133669E+01  0.21216811897E+02 -0.40439264169E+02  0.45703802978E+02  0.00000000000E+00 0.  1.
</event>
<event>
 6    1  0.3624778E-005  0.1558183E+03  0.7818608E-02  0.1196150E+00
          2   -1    0    0  502    0  0.00000000000E+00  0.00000000000E+00  0.23977001227E+03  0.23977001227E+03  0.00000000000E+00 0. -1.
          1   -1    0    0  501    0 -0.00000000000E+00 -0.00000000000E+00 -0.52707706517E+03  0.52707706517E+03  0.00000000000E+00 0. -1.
          2    1    1    2  501    0  0.10250526730E+03  0.17788728220E+03 -0.53704773321E+02  0.21221549819E+03  0.00000000000E+00 0. -1.
          1    1    1    2  502    0 -0.10279282348E+03 -0.76356741435E+02 -0.33859217280E+03  0.36199637567E+03  0.00000000000E+00 0. -1.
         22    1    1    2    0    0  0.76014554009E+01  0.28707798043E+02  0.10245519069E+02  0.31414812647E+02  0.00000000000E+00 0.  1.
         22    1    1    2    0    0 -0.73138992219E+01 -0.13023833881E+03  0.94744374152E+02  0.16122039093E+03  0.00000000000E+00 0. -1.
</event>
<event>
 6    1  0.3624778E-005  0.2330566E+03  0.7818608E-02  0.1211961E+00
          2   -1    0    0  502    0  0.00000000000E+00  0.00000000000E+00  0.44812081304E+03  0.44812081304E+03  0.00000000000E+00 0. -1.
          1   -1    0    0  501    0 -0.00000000000E+00 -0.00000000000E+00 -0.63677791729E+02  0.63677791729E+02  0.00000000000E+00 0. -1.
          2    1    1    2  501    0 -0.43469777130E+02 -0.71896718020E+02 -0.10745168178E+02  0.84700756933E+02  0.00000000000E+00 0. -1.
          1    1    1    2  502    0  0.47973524708E+01  0.20245881561E+02  0.51548047061E+02  0.55588771049E+02  0.00000000000E+00 0. -1.
         22    1    1    2    0    0 -0.16946250286E+02 -0.26800400679E+02  0.17078635475E+03  0.17370496781E+03  0.00000000000E+00 0. -1.
         22    1    1    2    0    0  0.55618674946E+02  0.78451237138E+02  0.17285378768E+03  0.19780410897E+03  0.00000000000E+00 0. -1.
</event>
<event>
 6    1  0.3624778E-005  0.1589688E+03  0.7818608E-02  0.1250002E+00
          2   -1    0    0  502    0  0.00000000000E+00  0.00000000000E+00  0.19443087477E+03  0.19443087477E+03  0.00000000000E+00 0. -1.
          1   -1    0    0  501    0 -0.00000000000E+00 -0.00000000000E+00 -0.21044106717E+03  0.21044106717E+03  0.00000000000E+00 0. -1.
          2    1    1    2  501    0 -0.44105873936E+02  0.14188567129E+03  0.47407874772E+02  0.15596274691E+03  0.00000000000E+00 0. -1.
          1    1    1    2  502    0  0.26713984651E+02 -0.93704535433E+02  0.15009259965E+01  0.97449626554E+02  0.00000000000E+00 0. -1.
         22    1    1    2    0    0 -0.85251251135E+01 -0.44113792063E+02 -0.98842785133E+02  0.10857532216E+03  0.00000000000E+00 0. -1.
         22    1    1    2    0    0  0.25917014398E+02 -0.40673437941E+01  0.33923791964E+02  0.42884246315E+02  0.00000000000E+00 0.  1.
</event>
<event>
 6    1  0.3624778E-005  0.1521936E+03  0.7818608E-02  0.1228349E+00
          2   -1    0    0  502    0  0.00000000000E+00  0.00000000000E+00  0.24230591957E+02  0.24230591957E+02  0.00000000000E+00 0. -1.
          1   -1    0    0  501    0 -0.00000000000E+00 -0.00000000000E+00 -0.19503030197E+04  0.19503030197E+04  0.00000000000E+00 0. -1.
          2    1    1    2  501    0 -0.11427631525E+03  0.90743829713E+02 -0.10387789637E+04  0.10489781953E+04  0.00000000000E+00 0. -1.
          1    1    1    2  502    0  0.95331251744E+02 -0.50781849853E+02 -0.61226804745E+03  0.62172261159E+03  0.00000000000E+00 0. -1.
         22    1    1    2    0    0  0.17125460890E+02 -0.77666352640E+02 -0.11776520081E+03  0.14210554621E+03  0.00000000000E+00 0. -1.
         22    1    1    2    0    0  0.18196026166E+01  0.37704372781E+02 -0.15726021580E+03  0.16172725854E+03  0.00000000000E+00 0.  1.
</event>
<event>
 6    1  0.3624778E-005  0.8692989E+02  0.7818608E-02  0.1389083E+00
          2   -1    0    0  502    0  0.00000000000E+00  0.00000000000E+00  0.15649665483E+03  0.15649665483E+03  0.00000000000E+00 0.  1.
          1   -1    0    0  501    0 -0.00000000000E+00 -0.00000000000E+00 -0.22261211815E+04  0.22261211815E+04  0.00000000000E+00 0. -1.
          2    1    1    2  501    0 -0.25091959762E+02  0.10959126211E+02  0.11786770229E+02  0.29810012487E+02  0.00000000000E+00 0.  1.
          1    1    1    2  502    0  0.87065168857E+01 -0.35370926130E+02 -0.21844511388E+04  0.21847548337E+04  0.00000000000E+00 0. -1.
         22    1    1    2    0    0 -0.13152021569E+02  0.18490408075E+02 -0.26597526911E+02  0.34961397282E+02  0.00000000000E+00 0. -1.
         22    1    1    2    0    0  0.29537464445E+02  0.59213918431E+01  0.12963736880E+03  0.13309159281E+03  0.00000000000E+00 0.  1.
</event>
<event>
 6    1  0.3624778E-005  0.9077293E+02  0.7818608E-02  0.1313855E+00
          2   -1    0    0  502    0  0.00000000000E+00  0.00000000000E+00  0.54296548173E+03  0.54296548173E+03  0.00000000000E+00 0. -1.
          1   -1    0    0  501    0 -0.00000000000E+00 -0.00000000000E+00 -0.24494854745E+02  0.24494854745E+02  0.00000000000E+00 0. -1.
          2    1    1    2  501    0 -0.28598513759E+02  0.20033597866E+02  0.64610504347E+02  0.73442067676E+02  0.00000000000E+00 0. -1.
          1    1    1    2  502    0  0.11036112625E+01 -0.34088729039E+02  0.15248882356E+02  0.37360243822E+02  0.00000000000E+00 0. -1.
         22    1    1    2    0    0  0.44445756551E+02 -0.39511694336E+02  0.12976654350E+03  0.14274436968E+03  0.00000000000E+00 0. -1.
         22    1    1    2    0    0 -0.16950854054E+02  0.53566825509E+02  0.30884469678E+03  0.31391365529E+03  0.00000000000E+00 0. -1.
</event>
<event>
 6    1  0.3624778E-005  0.1147917E+03  0.7818608E-02  0.1253044E+00
          2   -1    0    0  502    0  0.00000000000E+00  0.00000000000E+00  0.65075388566E+03  0.65075388566E+03  0.00000000000E+00 0. -1.
          1   -1    0    0  501    0 -0.00000000000E+00 -0.00000000000E+00 -0.53018429246E+03  0.53018429246E+03  0.00000000000E+00 0. -1.
          2    1    1    2  501    0  0.28361449925E+02  0.71393835701E+02  0.16685088983E+03  0.18368633878E+03  0.00000000000E+00 0. -1.
          1    1    1    2  502    0  0.59106183649E+02 -0.29700158678E+02 -0.50598731311E+03  0.51029285847E+03  0.00000000000E+00 0. -1.
         22    1    1    2    0    0  0.20559435092E+02  0.21197182504E+02  0.45001704152E+02  0.53825312763E+02  0.00000000000E+00 0. -1.
         22    1    1    2    0    0 -0.10802706867E+03 -0.62890859528E+02  0.41470431234E+03  0.43313366811E+03  0.00000000000E+00 0. -1.
</event>
<event>
 6    1  0.3624778E-005  0.1356181E+03  0.7818608E-02  0.1344918E+00
          2   -1    0    0  502    0  0.00000000000E+00  0.00000000000E+00  0.70108424793E+02  0.70108424793E+02  0.00000000000E+00 0.  1.
          1   -1    0    0  501    0 -0.00000000000E+00 -0.00000000000E+00 -0.21061624272E+03  0.21061624272E+03  0.00000000000E+00 0.  1.
          2    1    1    2  501    0 -0.63044276752E+01 -0.59923289686E+02  0.79266351849E+00  0.60259229754E+02  0.00000000000E+00 0.  1.
          1    1    1    2  502    0  0.15883078647E+02  0.22995402976E+02 -0.58113030423E+02  0.64483990650E+02  0.00000000000E+00 0.  1.
         22    1    1    2    0    0 -0.39670728376E+01  0.11810157069E+02  0.33890544618E+02  0.36107983762E+02  0.00000000000E+00 0.  1.
         22    1    1    2    0    0 -0.56115781339E+01  0.25117729641E+02 -0.11707799564E+03  0.11987346335E+03  0.00000000000E+00 0.  1.
</event>
<event>
 6    1  0.3624778E-005  0.3327046E+03  0.7818608E-02  0.1208341E+00
          2   -1    0    0  502    0  0.00000000000E+00  0.00000000000E+00  0.37471924948E+03  0.37471924948E+03  0.00000000000E+00 0. -1.
          1   -1    0    0  501    0 -0.00000000000E+00 -0.00000000000E+00 -0.43366358510E+03  0.43366358510E+03  0.00000000000E+00 0. -1.
          2    1    1    2  501    0  0.20237516573E+02  0.79236379440E+02 -0.20923125882E+02  0.84414087098E+02  0.00000000000E+00 0. -1.
          1    1    1    2  502    0 -0.14018726049E+02 -0.29769942605E+03 -0.25578079355E+03  0.39274073802E+03  0.00000000000E+00 0. -1.
         22    1    1    2    0    0 -0.27087506607E+01  0.22952114826E+03  0.17991446993E+03  0.29164449475E+03  0.00000000000E+00 0. -1.
         22    1    1    2    0    0 -0.35100398624E+01 -0.11058101652E+02  0.37845113881E+02  0.39583514708E+02  0.00000000000E+00 0.  1.
</event>
<event>
 6    1  0.3624778E-005  0.1975153E+03  0.7818608E-02  0.1225129E+00
          2   -1    0    0  502    0  0.00000000000E+00  0.00000000000E+00  0.57163504705E+02  0.57163504705E+02  0.00000000000E+00 0.  1.
          1   -1    0    0  501    0 -0.00000000000E+00 -0.00000000000E+00 -0.26286355627E+04  0.26286355627E+04  0.00000000000E+00 0. -1.
          2    1    1    2  501    0 -0.28846541956E+02  0.61672641800E+01  0.11936392821E+02  0.31821935891E+02  0.00000000000E+00 0.  1.
          1    1    1    2  502    0  0.90940248168E+02  0.10745855474E+03 -0.23778648279E+04  0.23820282554E+04  0.00000000000E+00 0. -1.
         22    1    1    2    0    0 -0.37184918486E+02  0.11428248702E+02 -0.13008722690E+02  0.41018896831E+02  0.00000000000E+00 0. -1.
         22    1    1    2    0    0 -0.24908787726E+02 -0.12505406762E+03 -0.19253490028E+03  0.23092997935E+03  0.00000000000E+00 0. -1.
</event>
<event>
 6    1  0.3624778E-005  0.1493282E+03  0.7818608E-02  0.1202558E+00
          2   -1    0    0  502    0  0.00000000000E+00  0.00000000000E+00  0.38439982602E+02  0.38439982602E+02  0.00000000000E+00 0.  1.
          1   -1    0    0  501    0 -0.00000000000E+00 -0.00000000000E+00 -0.10535551025E+04  0.10535551025E+04  0.00000000000E+00 0.  1.
          2    1    1    2  501    0  0.13218176268E+03  0.43397131669E+02 -0.18657156945E+03  0.23273220651E+03  0.00000000000E+00 0.  1.
          1    1    1    2  502    0 -0.41590961911E+02 -0.39294560147E+02 -0.39070340491E+03  0.39487089178E+03  0.00000000000E+00 0.  1.
         22    1    1    2    0    0  0.27258015110E+02 -0.66443707509E+01 -0.36128618130E+02  0.45743022401E+02  0.00000000000E+00 0.  1.
         22    1    1    2    0    0 -0.11784881587E+03  0.25417992288E+01 -0.40171152744E+03  0.41864896444E+03  0.00000000000E+00 0.  1.
</event>
<event>
 6    1  0.3624778E-005  0.1204687E+03  0.7818608E-02  0.1315122E+00
          2   -1    0    0  502    0  0.00000000000E+00  0.00000000000E+00  0.27201412453E+02  0.27201412453E+02  0.00000000000E+00 0.  1.
          1   -1    0    0  501    0 -0.00000000000E+00 -0.00000000000E+00 -0.87556221381E+03  0.87556221381E+03  0.00000000000E+00 0.  1.
          2    1    1    2  501    0 -0.25558493218E+02 -0.60372791057E+02 -0.22803632117E+03  0.23727341664E+03  0.00000000000E+00 0.  1.
          1    1    1    2  502    0  0.63767017910E+02  0.82116739441E+02 -0.27616524391E+03  0.29508750128E+03  0.00000000000E+00 0.  1.
         22    1    1    2    0    0 -0.24217008468E+01  0.29926961132E+02 -0.11975550946E+02  0.32324935546E+02  0.00000000000E+00 0.  1.
         22    1    1    2    0    0 -0.35786823845E+02 -0.51670909516E+02 -0.33218368534E+03  0.33807777279E+03  0.00000000000E+00 0.  1.
</event>
<event>
 6    1  0.3624778E-005  0.5669189E+02  0.7818608E-02  0.1502219E+00
          2   -1    0    0  502    0  0.00000000000E+00  0.00000000000E+00  0.47199486894E+02  0.47199486894E+02  0.00000000000E+00 0.  1.
          1   -1    0    0  501    0 -0.00000000000E+00 -0.00000000000E+00 -0.87699243433E+03  0.87699243433E+03  0.00000000000E+00 0. -1.
          2    1    1    2  501    0 -0.31988415576E+01 -0.28530799527E+02 -0.22884481350E+03  0.23063865196E+03  0.00000000000E+00 0.  1.
          1    1    1    2  502    0  0.16854477257E+02  0.59567746270E+02 -0.54855405735E+03  0.55203617964E+03  0.00000000000E+00 0. -1.
         22    1    1    2    0    0 -0.38718363634E+01 -0.19342811105E+02 -0.94603478837E+02  0.96638261917E+02  0.00000000000E+00 0. -1.
         22    1    1    2    0    0 -0.97837993356E+01 -0.11694135638E+02  0.42209402254E+02  0.44878827708E+02  0.00000000000E+00 0.  1.
</event>
<event>
 6    1  0.3624778E-005  0.3634547E+03  0.7818608E-02  0.1159417E+00
          2   -1    0    0  502    0  0.00000000000E+00  0.00000000000E+00  0.47681282121E+03  0.47681282121E+03  0.00000000000E+00 0. -1.
          1   -1    0    0  501    0 -0.00000000000E+00 -0.00000000000E+00 -0.56777223586E+03  0.56777223586E+03  0.00000000000E+00 0.  1.
          2    1    1    2  501    0  0.74260038821E+02 -0.95697424406E+02  0.20792507450E+01  0.12114814768E+03  0.00000000000E+00 0. -1.
          1    1    1    2  502    0  0.18357093977E+02 -0.99096645057E+01 -0.48726402081E+03  0.48771037546E+03  0.00000000000E+00 0.  1.
         22    1    1    2    0    0 -0.65208150842E+01 -0.25422802880E+02  0.34746821448E+02  0.43545166624E+02  0.00000000000E+00 0. -1.
         22    1    1    2    0    0 -0.86096317714E+02  0.13102989179E+03  0.35947853397E+03  0.39218136729E+03  0.00000000000E+00 0. -1.
</event>
<event>
 6    1  0.3624778E-005  0.8439098E+02  0.7818608E-02  0.1318313E+00
          2   -1    0    0  502    0  0.00000000000E+00  0.00000000000E+00  0.66291882108E+02  0.66291882108E+02  0.00000000000E+00 0.  1.
          1   -1    0    0  501    0 -0.00000000000E+00 -0.00000000000E+00 -0.80145117401E+03  0.80145117401E+03  0.00000000000E+00 0. -1.
          2    1    1    2  501    0 -0.40815702244E+01  0.24071788976E+02 -0.41661780741E+02  0.48288862220E+02  0.00000000000E+00 0.  1.
          1    1    1    2  502    0 -0.39998487805E+02  0.58237620436E+02 -0.65275502009E+03  0.65656729717E+03  0.00000000000E+00 0. -1.
         22    1    1    2    0    0  0.30301458464E+01  0.12393567836E+02 -0.56988449411E+02  0.58399192407E+02  0.00000000000E+00 0. -1.
         22    1    1    2    0    0  0.41049912183E+02 -0.94702977249E+02  0.16245958347E+02  0.10448770431E+03  0.00000000000E+00 0.  1.
</event>
<event>
 6    1  0.7412246E-005  0.1095598E+04  0.7818608E-02  0.1016811E+00
          2   -1    0    0  502    0  0.00000000000E+00  0.00000000000E+00  0.14422312359E+04  0.14422312359E+04  0.00000000000E+00 0.  1.
          1   -1    0    0  501    0 -0.00000000000E+00 -0.00000000000E+00 -0.10150556864E+04  0.10150556864E+04  0.00000000000E+00 0.  1.
          2    1    1    2  501    0  0.10173108271E+03  0.40059279688E+03  0.33607981325E+02  0.41467251960E+03  0.00000000000E+00 0.  1.
          1    1    1    2  502    0 -0.92046638072E+01 -0.22197692104E+02 -0.78982447591E+03  0.79018995571E+03  0.00000000000E+00 0.  1.
         22    1    1    2    0    0 -0.65158423529E+02 -0.34584962798E+03  0.11334559464E+04  0.11868361166E+04  0.00000000000E+00 0.  1.
         22    1    1    2    0    0 -0.27367995377E+02 -0.32545476797E+02  0.49936097739E+02  0.65588330428E+02  0.00000000000E+00 0. -1.
</event>
<event>
 6    1  0.3624778E-005  0.7976938E+02  0.7818608E-02  0.1334004E+00
          2   -1    0    0  502    0  0.00000000000E+00  0.00000000000E+00  0.41508129467E+03  0.41508129467E+03  0.00000000000E+00 0. -1.
          1   -1    0    0  501    0 -0.00000000000E+00 -0.00000000000E+00 -0.75853756304E+03  0.75853756304E+03  0.00000000000E+00 0. -1.
          2    1    1    2  501    0  0.20486126405E+02 -0.12433699541E+02  0.36855944758E+02  0.43961789356E+02  0.00000000000E+00 0. -1.
          1    1    1    2  502    0 -0.35159792829E+02 -0.28694188070E+02 -0.74191923442E+03  0.74330593827E+03  0.00000000000E+00 0. -1.
         22    1    1    2    0    0  0.11198201491E+02  0.85318354834E+02  0.28645356892E+03  0.29909909484E+03  0.00000000000E+00 0. -1.
         22    1    1    2    0    0  0.34754649327E+01 -0.44190467223E+02  0.75153452368E+02  0.87252035235E+02  0.00000000000E+00 0.  1.
</event>
<event>
 6    1  0.3624778E-005  0.1299421E+03  0.7818608E-02  0.1271772E+00
          2   -1    0    0  502    0  0.00000000000E+00  0.00000000000E+00  0.20577651119E+03  0.20577651119E+03  0.00000000000E+00 0. -1.
          1   -1    0    0  501    0 -0.00000000000E+00 -0.00000000000E+00 -0.19180334498E+03  0.19180334498E+03  0.00000000000E+00 0. -1.
          2    1    1    2  501    0  0.40927296323E+02 -0.36072822237E+02 -0.13263183572E+02  0.56144493291E+02  0.00000000000E+00 0. -1.
          1    1    1    2  502    0 -0.20198934209E+02  0.11939499873E+03 -0.86995733365E+02  0.14910204656E+03  0.00000000000E+00 0. -1.
         22    1    1    2    0    0 -0.42464661884E+02 -0.34261883347E+02 -0.11382414878E+02  0.55737631165E+02  0.00000000000E+00 0.  1.
         22    1    1    2    0    0  0.21736299769E+02 -0.49060293144E+02  0.12561449802E+03  0.13659568516E+03  0.00000000000E+00 0. -1.
</event>
<event>
 6    1  0.3624778E-005  0.6720767E+02  0.7818608E-02  0.1431406E+00
          2   -1    0    0  502    0  0.00000000000E+00  0.00000000000E+00  0.20127607641E+03  0.20127607641E+03  0.00000000000E+00 0. -1.
          1   -1    0    0  501    0 -0.00000000000E+00 -0.00000000000E+00 -0.75599213693E+02  0.75599213693E+02  0.00000000000E+00 0. -1.
          2    1    1    2  501    0  0.28335220586E+02  0.29411086857E+02 -0.27471997171E+01  0.40932186138E+02  0.00000000000E+00 0. -1.
          1    1    1    2  502    0 -0.15976351308E+02 -0.43752780145E+02 -0.11943317165E+02  0.48085261738E+02  0.00000000000E+00 0. -1.
         22    1    1    2    0    0 -0.93939097711E+01  0.39535745084E+02 -0.44097624709E+01  0.40875012968E+02  0.00000000000E+00 0. -1.
         22    1    1    2    0    0 -0.29649595073E+01 -0.25194051795E+02  0.14477714207E+03  0.14698282926E+03  0.00000000000E+00 0. -1.
</event>
<event>
 6    1  0.3624778E-005  0.6099883E+02  0.7818608E-02  0.1401036E+00
          2   -1    0    0  502    0  0.00000000000E+00  0.00000000000E+00  0.98197354171E+02  0.98197354171E+02  0.00000000000E+00 0. -1.
          1   -1    0    0  501    0 -0.00000000000E+00 -0.00000000000E+00 -0.77830568950E+03  0.77830568950E+03  0.00000000000E+00 0.  1.
          2    1    1    2  501    0 -0.42252386572E+02 -0.83531816940E+01  0.37553731299E+02  0.57143000883E+02  0.00000000000E+00 0. -1.
          1    1    1    2  502    0 -0.73555671757E+01  0.30401775957E+02 -0.67234613860E+03  0.67307332620E+03  0.00000000000E+00 0.  1.
         22    1    1    2    0    0 -0.11148133035E+02  0.14792903928E+01  0.38510143199E+02  0.40118577984E+02  0.00000000000E+00 0. -1.
         22    1    1    2    0    0  0.60756086783E+02 -0.23527884656E+02 -0.83826071227E+02  0.10616813861E+03  0.00000000000E+00 0. -1.
</event>
<event>
 6    1  0.3624778E-005  0.7720423E+02  0.7818608E-02  0.1341663E+00
          2   -1    0    0  502    0  0.00000000000E+00  0.00000000000E+00  0.46696447805E+03  0.46696447805E+03  0.00000000000E+00 0. -1.
          1   -1    0    0  501    0 -0.00000000000E+00 -0.00000000000E+00 -0.42184812538E+02  0.42184812538E+02  0.00000000000E+00 0. -1.
          2    1    1    2  501    0  0.19533885262E+02  0.13176564150E+02  0.33086390571E+02  0.40619007339E+02  0.00000000000E+00 0. -1.
          1    1    1    2  502    0 -0.23991475807E+02  0.14434580628E+02 -0.22561637711E+02  0.35957968874E+02  0.00000000000E+00 0. -1.
         22    1    1    2    0    0 -0.13600850141E+02 -0.73212667975E+02  0.27627064200E+03  0.28613029464E+03  0.00000000000E+00 0. -1.
         22    1    1    2    0    0  0.18058440687E+02  0.45601523197E+02  0.13798427065E+03  0.14644201974E+03  0.00000000000E+00 0. -1.
</event>
<event>
 6    1  0.3624778E-005  0.1033054E+03  0.7818608E-02  0.1315952E+00
          2   -1    0    0  502    0  0.00000000000E+00  0.00000000000E+00  0.31467877915E+03  0.31467877915E+03  0.00000000000E+00 0. -1.
          1   -1    0    0  501    0 -0.00000000000E+00 -0.00000000000E+00 -0.90099749049E+02  0.90099749049E+02  0.00000000000E+00 0. -1.
          2    1    1    2  501    0  0.38233732876E+02  0.18871929266E+02  0.84807317630E+02  0.94922332290E+02  0.00000000000E+00 0. -1.
          1    1    1    2  502    0 -0.77898644537E+02 -0.33781058193E+02 -0.32161801146E+02  0.90795044833E+02  0.00000000000E+00 0. -1.
         22    1    1    2    0    0 -0.39086704527E+02  0.25935479708E+02  0.10544147195E+03  0.11540504143E+03  0.00000000000E+00 0. -1.
         22    1    1    2    0    0  0.78751616188E+02 -0.11026350781E+02  0.66492041664E+02  0.10365610965E+03  0.00000000000E+00 0. -1.
</event>
<event>
 6    1  0.3624778E-005  0.2545614E+03  0.7818608E-02  0.1183803E+00
          2   -1    0    0  502    0  0.00000000000E+00  0.00000000000E+00  0.12405277956E+02  0.12405277956E+02  0.00000000000E+00 0. -1.
          1   -1    0    0  501    0 -0.00000000000E+00 -0.00000000000E+00 -0.23562551848E+04  0.23562551848E+04  0.00000000000E+00 0. -1.
          2    1    1    2  501    0 -0.21884889228E+02 -0.25994891478E+02 -0.16065931868E+04  0.16069525042E+04  0.00000000000E+00 0. -1.
          1    1    1    2  502    0  0.34605808732E+02 -0.12038599369E+02 -0.34900952269E+03  0.35092753782E+03  0.00000000000E+00 0. -1.
         22    1    1    2    0    0 -0.13490392654E+02 -0.41892547800E+02 -0.22195104915E+03  0.22627250048E+03  0.00000000000E+00 0. -1.
         22    1    1    2    0    0  0.76947315020E+00  0.79926038647E+02 -0.16629614819E+03  0.18450792028E+03  0.00000000000E+00 0. -1.
</event>
<event>
 6    1  0.3624778E-005  0.1616148E+03  0.7818608E-02  0.1188188E+00
          2   -1    0    0  502    0  0.00000000000E+00  0.00000000000E+00  0.49801009373E+03  0.49801009373E+03  0.00000000000E+00 0. -1.
          1   -1    0    0  501    0 -0.00000000000E+00 -0.00000000000E+00 -0.18571295799E+03  0.18571295799E+03  0.00000000000E+00 0. -1.
          2    1    1    2  501    0  0.33125507763E+02  0.12688011700E+03  0.34418433036E+02  0.13557467274E+03  0.00000000000E+00 0. -1.
          1    1    1    2  502    0  0.39959988233E+02 -0.11148869156E+02 -0.10988245269E+03  0.11745318792E+03  0.00000000000E+00 0. -1.
         22    1    1    2    0    0 -0.86165313360E+02 -0.13429505893E+03  0.36588414710E+03  0.39916266506E+03  0.00000000000E+00 0. -1.
         22    1    1    2    0    0  0.13079817365E+02  0.18563811082E+02  0.21877008292E+02  0.31532526001E+02  0.00000000000E+00 0. -1.
</event>
<event>
 6    1  0.3624778E-005  0.1281613E+03  0.7818608E-02  0.1253296E+00
          2   -1    0    0  502    0  0.00000000000E+00  0.00000000000E+00  0.82875270155E+02  0.82875270155E+02  0.00000000000E+00 0.  1.
          1   -1    0    0  501    0 -0.00000000000E+00 -0.00000000000E+00 -0.20049544334E+03  0.20049544334E+03  0.00000000000E+00 0.  1.
          2    1    1    2  501    0 -0.65172079981E+02  0.31904707568E+02 -0.13985849875E+02  0.73897999775E+02  0.00000000000E+00 0.  1.
          1    1    1    2  502    0  0.33021394809E+01 -0.30365804643E+02 -0.55252275912E+02  0.63133194203E+02  0.00000000000E+00 0.  1.
         22    1    1    2    0    0  0.29922338318E+02  0.60966368357E+02 -0.23685737165E+02  0.71925367890E+02  0.00000000000E+00 0. -1.
         22    1    1    2    0    0  0.31947602182E+02 -0.62505271282E+02 -0.24696310233E+02  0.74414151626E+02  0.00000000000E+00 0.  1.
</event>
<event>
 6    1  0.3624778E-005  0.9018425E+02  0.7818608E-02  0.1380834E+00
          2   -1    0    0  502    0  0.00000000000E+00  0.00000000000E+00  0.99837101579E+02  0.99837101579E+02  0.00000000000E+00 0.  1.
          1   -1    0    0  501    0 -0.00000000000E+00 -0.00000000000E+00 -0.56524233951E+03  0.56524233951E+03  0.00000000000E+00 0.  1.
          2    1    1    2  501    0  0.19669917904E+02 -0.47951658711E+02 -0.26732134176E+02  0.58317015022E+02  0.00000000000E+00 0.  1.
          1    1    1    2  502    0 -0.45410226794E+02  0.66965570148E+02 -0.47131871128E+03  0.47821313646E+03  0.00000000000E+00 0.  1.
         22    1    1    2    0    0 -0.22273734707E+02  0.65806289503E+01  0.62366823289E+02  0.66551067477E+02  0.00000000000E+00 0.  1.
         22    1    1    2    0    0  0.48014043597E+02 -0.25594540388E+02 -0.29721215759E+02  0.61998222122E+02  0.00000000000E+00 0.  1.
</event>
<event>
 6    1  0.3624778E-005  0.2160447E+03  0.7818608E-02  0.1199163E+00
          2   -1    0    0  502    0  0.00000000000E+00  0.00000000000E+00  0.51712024203E+03  0.51712024203E+03  0.00000000000E+00 0. -1.
          1   -1    0    0  501    0 -0.00000000000E+00 -0.00000000000E+00 -0.61564104233E+03  0.61564104233E+03  0.00000000000E+00 0. -1.
          2    1    1    2  501    0  0.10324449329E+03 -0.68476253822E+02  0.22272235594E+03  0.25486009999E+03  0.00000000000E+00 0. -1.
          1    1    1    2  502    0 -0.39480283251E+02  0.16300716055E+03 -0.55947239428E+03  0.58407138872E+03  0.00000000000E+00 0. -1.
         22    1    1    2    0    0 -0.13722515424E+02 -0.10732958664E+03  0.10431060764E+03  0.15029521105E+03  0.00000000000E+00 0.  1.
         22    1    1    2    0    0 -0.50041694613E+02  0.12798679914E+02  0.13391863041E+03  0.14353458460E+03  0.00000000000E+00 0.  1.
</event>
<event>
 6    1  0.3624778E-005  0.2107209E+03  0.7818608E-02  0.1173233E+00
          2   -1    0    0  502    0  0.00000000000E+00  0.00000000000E+00  0.94253904665E+03  0.94253904665E+03  0.00000000000E+00 0. -1.
          1   -1    0    0  501    0 -0.00000000000E+00 -0.00000000000E+00 -0.10152958614E+03  0.10152958614E+03  0.00000000000E+00 0. -1.
          2    1    1    2  501    0  0.17178242026E+03 -0.72529044286E+02  0.52110515330E+02  0.19361086742E+03  0.00000000000E+00 0. -1.
          1    1    1    2  502    0 -0.93935797290E+02  0.52498026100E+02  0.59146937725E+03  0.60117884276E+03  0.00000000000E+00 0. -1.
         22    1    1    2    0    0 -0.98022842587E+02 -0.14572117890E+02  0.18024685281E+03  0.20569334515E+03  0.00000000000E+00 0. -1.
         22    1    1    2    0    0  0.20176219619E+02  0.34603136075E+02  0.17182715112E+02  0.43585577465E+02  0.00000000000E+00 0. -1.
</event>
<event>
 6    1  0.3624778E-005  0.3455443E+03  0.7818608E-02  0.1149918E+00
          2   -1    0    0  502    0  0.00000000000E+00  0.00000000000E+00  0.17452637170E+03  0.17452637170E+03  0.00000000000E+00 0. -1.
          1   -1    0    0  501    0 -0.00000000000E+00 -0.00000000000E+00 -0.27763008778E+03  0.27763008778E+03  0.00000000000E+00 0. -1.
          2    1    1    2  501    0  0.66105129247E+02 -0.44385195415E+02 -0.17735618024E+03  0.19440974347E+03  0.00000000000E+00 0. -1.
          1    1    1    2  502    0 -0.10691786096E+02 -0.47446975151E+02 -0.34797217619E+02  0.59802810092E+02  0.00000000000E+00 0. -1.
         22    1    1    2    0    0 -0.12618495395E+02  0.36496443855E+02 -0.25513980448E+02  0.46283690847E+02  0.00000000000E+00 0.  1.
         22    1    1    2    0    0 -0.42794847756E+02  0.55335726711E+02  0.13456366222E+03  0.15166021507E+03  0.00000000000E+00 0. -1.
</event>
<event>
 6    1  0.3624778E-005  0.1892603E+03  0.7818608E-02  0.1255904E+00
          2   -1    0    0  502    0  0.00000000000E+00  0.00000000000E+00  0.30518684482E+02  0.30518684482E+02  0.00000000000E+00 0. -1.
          1   -1    0    0  501    0 -0.00000000000E+00 -0.00000000000E+00 -0.14051327411E+04  0.14051327411E+04  0.00000000000E+00 0. -1.
          2    1    1    2  501    0 -0.35782482324E+02 -0.57711014228E+01 -0.48901853441E+03  0.49035988687E+03  0.00000000000E+00 0. -1.
          1    1    1    2  502    0 -0.14174198796E+02  0.65012950894E+02 -0.71820987305E+03  0.72128566701E+03  0.00000000000E+00 0. -1.
         22    1    1    2    0    0 -0.19841419821E+02  0.12920600019E+02  0.52942603931E+01  0.24262172996E+02  0.00000000000E+00 0. -1.
         22    1    1    2    0    0  0.69798100941E+02 -0.72162449490E+02 -0.17267990960E+03  0.19974369875E+03  0.00000000000E+00 0. -1.
</event>
<event>
 6    1  0.3624778E-005  0.1459681E+03  0.7818608E-02  0.1263467E+00
          2   -1    0    0  502    0  0.00000000000E+00  0.00000000000E+00  0.18304012723E+03  0.18304012723E+03  0.00000000000E+00 0. -1.
          1   -1    0    0  501    0 -0.00000000000E+00 -0.00000000000E+00 -0.15955000866E+04  0.15955000866E+04  0.00000000000E+00 0. -1.
          2    1    1    2  501    0  0.21701004509E+02  0.17822810477E+02 -0.61371669916E+02  0.67491244160E+02  0.00000000000E+00 0. -1.
          1    1    1    2  502    0 -0.68716748500E+01 -0.45789780474E+02 -0.15071947466E+04  0.15079058087E+04  0.00000000000E+00 0. -1.
         22    1    1    2    0    0  0.17602326255E+02 -0.40846807255E+02  0.97321308111E+02  0.10700346053E+03  0.00000000000E+00 0. -1.
         22    1    1    2    0    0 -0.32431655914E+02  0.68813777251E+02  0.58785149029E+02  0.96139700391E+02  0.00000000000E+00 0. -1.
</event>
<event>
 6    1  0.3983620E-005  0.2100472E+03  0.7818608E-02  0.1181465E+00
          2   -1    0    0  502    0  0.00000000000E+00  0.00000000000E+00  0.77957471367E+03  0.77957471367E+03  0.00000000000E+00 0.  1.
          1   -1    0    0  501    0 -0.00000000000E+00 -0.00000000000E+00 -0.90090207708E+03  0.90090207708E+03  0.00000000000E+00 0.  1.
          2    1    1    2  501    0 -0.12256010235E+03 -0.61138008906E+02  0.16469815106E+03  0.21420624591E+03  0.00000000000E+00 0.  1.
          1    1    1    2  502    0  0.94686325950E+02  0.17748146343E+03 -0.85123462576E+03  0.87468026060E+03  0.00000000000E+00 0.  1.
         22    1    1    2    0    0  0.60558095898E+02 -0.56882345080E+02  0.45225554194E+03  0.45982383515E+03  0.00000000000E+00 0.  1.
         22    1    1    2    0    0 -0.32684319497E+02 -0.59461109447E+02  0.11295356935E+03  0.13176644910E+03  0.00000000000E+00 0.  1.
</event>
<event>
 6    1  0.3624778E-005  0.3228183E+03  0.7818608E-02  0.1125787E+00
          2   -1    0    0  502    0  0.00000000000E+00  0.00000000000E+00  0.77704637112E+03  0.77704637112E+03  0.00000000000E+00 0.  1.
          1   -1    0    0  501    0 -0.00000000000E+00 -0.00000000000E+00 -0.22116988565E+04  0.22116988565E+04  0.00000000000E+00 0. -1.
          2    1    1    2  501    0 -0.10267593628E+03  0.17986536991E+03  0.47359968474E+03  0.51690478869E+03  0.00000000000E+00 0.  1.
          1    1    1    2  502    0  0.12576194305E+03 -0.29233670130E+03 -0.21527155806E+04  0.21761114825E+04  0.00000000000E+00 0. -1.
         22    1    1    2    0    0  0.29988869014E+02  0.79487059263E+02  0.68923731063E+02  0.10939838005E+03  0.00000000000E+00 0.  1.
         22    1    1    2    0    0 -0.53074875787E+02  0.32984272124E+02  0.17553967941E+03  0.18633057638E+03  0.00000000000E+00 0. -1.
</event>
<event>
 6    1  0.3624778E-005  0.3320813E+03  0.7818608E-02  0.1191044E+00
          2   -1    0    0  502    0  0.00000000000E+00  0.00000000000E+00  0.72285132375E+02  0.72285132375E+02  0.00000000000E+00 0. -1.
          1   -1    0    0  501    0 -0.00000000000E+00 -0.00000000000E+00 -0.19927879273E+04  0.19927879273E+04  0.00000000000E+00 0. -1.
          2    1    1    2  501    0  0.22035233902E+03  0.15646409572E+02 -0.37214550322E+03  0.43277273367E+03  0.00000000000E+00 0. -1.
          1    1    1    2  502    0 -0.27353998062E+03 -0.11549826190E+03 -0.12875448028E+04  0.13213385595E+04  0.00000000000E+00 0. -1.
         22    1    1    2    0    0 -0.15748124638E+02  0.63785576851E+01  0.75135433665E+01  0.18578018238E+02  0.00000000000E+00 0. -1.
         22    1    1    2    0    0  0.68935766241E+02  0.93473294639E+02 -0.26832603227E+03  0.29238374831E+03  0.00000000000E+00 0. -1.
</event>
<event>
 6    1  0.3624778E-005  0.3956850E+03  0.7818608E-02  0.1113890E+00
          2   -1    0    0  502    0  0.00000000000E+00  0.00000000000E+00  0.51712160629E+03  0.51712160629E+03  0.00000000000E+00 0. -1.
          1   -1    0    0  501    0 -0.00000000000E+00 -0.00000000000E+00 -0.48847405039E+03  0.48847405039E+03  0.00000000000E+00 0. -1.
          2    1    1    2  501    0 -0.11403029201E+02  0.19422785858E+03  0.75521309600E+02  0.20870543435E+03  0.00000000000E+00 0. -1.
          1    1    1    2  502    0  0.25325860497E+02 -0.58595164819E+00 -0.38632102672E+03  0.38715071772E+03  0.00000000000E+00 0. -1.
         22    1    1    2    0    0 -0.51299055452E+02 -0.39677246652E+02  0.59213743030E+02  0.87818815500E+02  0.00000000000E+00 0. -1.
         22    1    1    2    0    0  0.37376224155E+02 -0.15396466028E+03  0.28023352999E+03  0.32192068911E+03  0.00000000000E+00 0. -1.
</event>
<event>
 6    1  0.3624778E-005  0.1061773E+03  0.7818608E-02  0.1269531E+00
          2   -1    0    0  502    0  0.00000000000E+00  0.00000000000E+00  0.32589405865E+03  0.32589405865E+03  0.00000000000E+00 0.  1.
          1   -1    0    0  501    0 -0.00000000000E+00 -0.00000000000E+00 -0.17075023284E+04  0.17075023284E+04  0.00000000000E+00 0. -1.
          2    1    1    2  501    0 -0.75726912373E+02  0.10574147285E+02  0.13232610760E+03  0.15282858568E+03  0.00000000000E+00 0.  1.
          1    1    1    2  502    0 -0.16965755365E+02 -0.28120266294E+02 -0.16645998030E+04  0.16649237491E+04  0.00000000000E+00 0. -1.
         22    1    1    2    0    0 -0.22151518356E+02 -0.54268962578E+01  0.69507538065E+02  0.73153529076E+02  0.00000000000E+00 0. -1.
         22    1    1    2    0    0  0.11484418609E+03  0.22973015266E+02  0.81157887523E+02  0.14249052325E+03  0.00000000000E+00 0.  1.
</event>
<event>
 6    1  0.3624778E-005  0.1012131E+03  0.7818608E-02  0.1300308E+00
          2   -1    0    0  502    0  0.00000000000E+00  0.00000000000E+00  0.12586471154E+03  0.12586471154E+03  0.00000000000E+00 0. -1.
          1   -1    0    0  501    0 -0.00000000000E+00 -0.00000000000E+00 -0.16474513133E+03  0.16474513133E+03  0.00000000000E+00 0.  1.
          2    1    1    2  501    0  0.17231015600E+02  0.14688248144E+02 -0.18612871368E+02  0.29310262925E+02  0.00000000000E+00 0. -1.
          1    1    1    2  502    0 -0.97833909500E+02  0.25934684086E+02 -0.29688201359E+02  0.10547734822E+03  0.00000000000E+00 0.  1.
         22    1    1    2    0    0 -0.82906184748E+01  0.35522571124E+02  0.12986834261E+02  0.38720088819E+02  0.00000000000E+00 0. -1.
         22    1    1    2    0    0  0.88893512375E+02 -0.76145503354E+02 -0.35661813239E+01  0.11710214290E+03  0.00000000000E+00 0. -1.
</event>
<event>
 6    1  0.3624778E-005  0.1179539E+03  0.7818608E-02  0.1258786E+00
          2   -1    0    0  502    0  0.00000000000E+00  0.00000000000E+00  0.36492654796E+03  0.36492654796E+03  0.00000000000E+00 0.  1.
          1   -1    0    0  501    0 -0.00000000000E+00 -0.00000000000E+00 -0.94693594436E+02  0.94693594436E+02  0.00000000000E+00 0.  1.
          2    1    1    2  501    0  0.90362646895E+02  0.50588847033E+02  0.93752729250E+01  0.10398334069E+03  0.00000000000E+00 0.  1.
          1    1    1    2  502    0 -0.33164936398E+02 -0.56681536489E+02  0.75741866974E+01  0.66106564644E+02  0.00000000000E+00 0.  1.
         22    1    1    2    0    0 -0.76616345135E+02 -0.37192695309E+02  0.20428844747E+03  0.22133036551E+03  0.00000000000E+00 0.  1.
         22    1    1    2    0    0  0.19418634637E+02  0.43285384764E+02  0.48995046425E+02  0.68199871551E+02  0.00000000000E+00 0. -1.
</event>
<event>
 6    1  0.3624778E-005  0.1372357E+03  0.7818608E-02  0.1266181E+00
          2   -1    0    0  502    0  0.00000000000E+00  0.00000000000E+00  0.15087816546E+03  0.15087816546E+03  0.00000000000E+00 0.  1.
          1   -1    0    0  501    0 -0.00000000000E+00 -0.00000000000E+00 -0.35051587253E+03  0.35051587253E+03  0.00000000000E+00 0.  1.
          2    1    1    2  501    0  0.35977783616E+02 -0.39715407527E+02  0.31804415006E+02  0.62315610587E+02  0.00000000000E+00 0.  1.
          1    1    1    2  502    0 -0.11199108505E+03 -0.38148564267E+02 -0.24311659923E+03  0.27037565887E+03  0.00000000000E+00 0.  1.
         22    1    1    2    0    0  0.12681549297E+02  0.49151637584E+02 -0.53250394079E+02  0.73568401093E+02  0.00000000000E+00 0.  1.
         22    1    1    2    0    0  0.63331752140E+02  0.28712334210E+02  0.64924871228E+02  0.95134367443E+02  0.00000000000E+00 0. -1.
</event>
<event>
 6    1  0.3624778E-005  0.8647882E+02  0.7818608E-02  0.1319935E+00
          2   -1    0    0  502    0  0.00000000000E+00  0.00000000000E+00  0.75354871593E+03  0.75354871593E+03  0.00000000000E+00 0. -1.
          1   -1    0    0  501    0 -0.00000000000E+00 -0.00000000000E+00 -0.21015705041E+02  0.21015705041E+02  0.00000000000E+00 0. -1.
          2    1    1    2  501    0 -0.47841464816E+01  0.28115552484E+02  0.54276792934E+02  0.61313478129E+02  0.00000000000E+00 0. -1.
          1    1    1    2  502    0 -0.44840452031E+02 -0.33217783063E+02  0.65198877721E+02  0.85819466941E+02  0.00000000000E+00 0. -1.
         22    1    1    2    0    0  0.70440518648E+02 -0.40166293304E+02  0.31676492721E+03  0.32697892424E+03  0.00000000000E+00 0. -1.
         22    1    1    2    0    0 -0.20815920135E+02  0.45268523882E+02  0.29629241302E+03  0.30045255166E+03  0.00000000000E+00 0.  1.
</event>
<event>
 6    1  0.3624778E-005  0.7164139E+02  0.7818608E-02  0.1358358E+00
          2   -1    0    0  502    0  0.00000000000E+00  0.00000000000E+00  0.44054008799E+03  0.44054008799E+03  0.00000000000E+00 0.  1.
          1   -1    0    0  501    0 -0.00000000000E+00 -0.00000000000E+00 -0.11443369019E+03  0.11443369019E+03  0.00000000000E+00 0.  1.
          2    1    1    2  501    0 -0.19987381037E+02  0.19987619137E+02 -0.32183121279E-01  0.28266612022E+02  0.00000000000E+00 0.  1.
          1    1    1    2  502    0 -0.19593358164E+02 -0.85052773367E+01 -0.88747980028E+02  0.91282218344E+02  0.00000000000E+00 0.  1.
         22    1    1    2    0    0 -0.17715383643E+02  0.26310330281E+02  0.27425052521E+02  0.41930917029E+02  0.00000000000E+00 0.  1.
         22    1    1    2    0    0  0.57296122844E+02 -0.37792672081E+02  0.38746150843E+03  0.39349403079E+03  0.00000000000E+00 0.  1.
</event>
<event>
 6    1  0.3624778E-005  0.1366030E+03  0.7818608E-02  0.1292571E+00
          2   -1    0    0  502    0  0.00000000000E+00  0.00000000000E+00  0.17373165725E+03  0.17373165725E+03  0.00000000000E+00 0. -1.
          1   -1    0    0  501    0 -0.00000000000E+00 -0.00000000000E+00 -0.18797540667E+04  0.18797540667E+04  0.00000000000E+00 0. -1.
          2    1    1    2  501    0 -0.33896017994E+02 -0.72035926639E+02  0.20491613946E+02  0.82207183413E+02  0.00000000000E+00 0. -1.
          1    1    1    2  502    0 -0.27156188219E+00  0.81959262665E+02 -0.18151073203E+04  0.18169567906E+04  0.00000000000E+00 0. -1.
         22    1    1    2    0    0  0.83919409219E+01 -0.29979294129E+02  0.11062764217E+03  0.11492457510E+03  0.00000000000E+00 0. -1.
         22    1    1    2    0    0  0.25775638954E+02  0.20055958103E+02 -0.22034345255E+02  0.39397174896E+02  0.00000000000E+00 0.  1.
</event>
<event>
 6    1  0.3624778E-005  0.6242146E+02  0.7818608E-02  0.1390181E+00
          2   -1    0    0  502    0  0.00000000000E+00  0.00000000000E+00  0.49072175009E+02  0.49072175009E+02  0.00000000000E+00 0. -1.
          1   -1    0    0  501    0 -0.00000000000E+00 -0.00000000000E+00 -0.54086127401E+03  0.54086127401E+03  0.00000000000E+00 0.  1.
          2    1    1    2  501    0 -0.19515674863E+02  0.32383168021E+02  0.48870013576E+01  0.38123666124E+02  0.00000000000E+00 0. -1.
          1    1    1    2  502    0 -0.38593694742E+02 -0.14695351840E+02 -0.33592936875E+03  0.33845822110E+03  0.00000000000E+00 0.  1.
         22    1    1    2    0    0 -0.19128822544E+02  0.11306918291E+02  0.95014201784E+01  0.24166821027E+02  0.00000000000E+00 0. -1.
         22    1    1    2    0    0  0.77238192149E+02 -0.28994734472E+02 -0.17024815179E+03  0.18918474078E+03  0.00000000000E+00 0.  1.
</event>
<event>
 6    1  0.3624778E-005  0.1354691E+03  0.7818608E-02  0.1221994E+00
          2   -1    0    0  502    0  0.00000000000E+00  0.00000000000E+00  0.33841350687E+03  0.33841350687E+03  0.00000000000E+00 0.  1.
          1   -1    0    0  501    0 -0.00000000000E+00 -0.00000000000E+00 -0.13785209166E+03  0.13785209166E+03  0.00000000000E+00 0.  1.
          2    1    1    2  501    0  0.60070839584E+02 -0.66235729570E+02  0.21536485515E+02  0.91975528530E+02  0.00000000000E+00 0.  1.
          1    1    1    2  502    0  0.14564319268E+01 -0.25750600171E+02 -0.74704926907E+02  0.79031896771E+02  0.00000000000E+00 0.  1.
         22    1    1    2    0    0  0.30457272688E+02 -0.62493365313E+01  0.25094215362E+02  0.39955216322E+02  0.00000000000E+00 0. -1.
         22    1    1    2    0    0 -0.91984544199E+02  0.98235666272E+02  0.22863564124E+03  0.26530295691E+03  0.00000000000E+00 0.  1.
</event>
<event>
 6    1  0.3624778E-005  0.1394174E+03  0.7818608E-02  0.1260553E+00
          2   -1    0    0  502    0  0.00000000000E+00  0.00000000000E+00  0.65284857320E+02  0.65284857320E+02  0.00000000000E+00 0. -1.
          1   -1    0    0  501    0 -0.00000000000E+00 -0.00000000000E+00 -0.58783989617E+03  0.58783989617E+03  0.00000000000E+00 0.  1.
          2    1    1    2  501    0  0.12093296322E+02  0.21782620449E+02 -0.59367434949E+02  0.64383403933E+02  0.00000000000E+00 0. -1.
          1    1    1    2  502    0 -0.12884292400E+02  0.83474606236E+02 -0.41267407326E+03  0.42122904175E+03  0.00000000000E+00 0.  1.
         22    1    1    2    0    0 -0.52070663461E+02 -0.14476806777E+02 -0.10239806360E+02  0.55007141009E+02  0.00000000000E+00 0. -1.
         22    1    1    2    0    0  0.52861659539E+02 -0.90780419908E+02 -0.40273724284E+02  0.11250516680E+03  0.00000000000E+00 0. -1.
</event>
<event>
 6    1  0.3624778E-005  0.2445848E+03  0.7818608E-02  0.1190959E+00
          2   -1    0    0  502    0  0.00000000000E+00  0.00000000000E+00  0.47430693591E+03  0.47430693591E+03  0.00000000000E+00 0. -1.
          1   -1    0    0  501    0 -0.00000000000E+00 -0.00000000000E+00 -0.41804591308E+03  0.41804591308E+03  0.00000000000E+00 0. -1.
          2    1    1    2  501    0 -0.63341213972E+02  0.60219309712E+02  0.12048401269E+03  0.14884512745E+03  0.00000000000E+00 0. -1.
          1    1    1    2  502    0  0.14253244959E+03 -0.19844373976E+03 -0.32912616850E+03  0.40990175875E+03  0.00000000000E+00 0. -1.
         22    1    1    2    0    0 -0.84599524773E+02  0.95962528162E+02  0.97451288291E+02  0.16081865561E+03  0.00000000000E+00 0. -1.
         22    1    1    2    0    0  0.54082891555E+01  0.42261901891E+02  0.16745189034E+03  0.17278730718E+03  0.00000000000E+00 0.  1.
</event>
<event>
 6    1  0.3624778E-005  0.8732635E+02  0.7818608E-02  0.1312463E+00
          2   -1    0    0  502    0  0.00000000000E+00  0.00000000000E+00  0.73910884808E+02  0.73910884808E+02  0.00000000000E+00 0.  1.
          1   -1    0    0  501    0 -0.00000000000E+00 -0.00000000000E+00 -0.17327373081E+04  0.17327373081E+04  0.00000000000E+00 0. -1.
          2    1    1    2  501    0 -0.45268233790E+02 -0.74792891540E+01 -0.23187369246E+03  0.23636954544E+03  0.00000000000E+00 0.  1.
          1    1    1    2  502    0 -0.22002181342E+02  0.24043348445E+02 -0.14250967643E+04  0.14254693845E+04  0.00000000000E+00 0. -1.
         22    1    1    2    0    0 -0.17214564897E+02 -0.11257943762E+02 -0.45233845991E+02  0.49690878091E+02  0.00000000000E+00 0. -1.
         22    1    1    2    0    0  0.84484980029E+02 -0.53061155288E+01  0.43377879453E+02  0.95118384860E+02  0.00000000000E+00 0.  1.
</event>
<event>
 6    1  0.3624778E-005  0.3435732E+03  0.7818608E-02  0.1162517E+00
          2   -1    0    0  502    0  0.00000000000E+00  0.00000000000E+00  0.10992190967E+04  0.10992190967E+04  0.00000000000E+00 0.  1.
          1   -1    0    0  501    0 -0.00000000000E+00 -0.00000000000E+00 -0.30048048753E+03  0.30048048753E+03  0.00000000000E+00 0. -1.
          2    1    1    2  501    0 -0.66653193718E+02 -0.15254692223E+03  0.42376799162E+03  0.45529388579E+03  0.00000000000E+00 0.  1.
          1    1    1    2  502    0  0.17281426032E+02 -0.12397428783E+02 -0.26725501028E+03  0.26809995234E+03  0.00000000000E+00 0. -1.
         22    1    1    2    0    0  0.25421005361E+02 -0.12589351937E+02  0.14609371476E+03  0.14882235312E+03  0.00000000000E+00 0.  1.
         22    1    1    2    0    0  0.23950762324E+02  0.17753370295E+03  0.49613191303E+03  0.52748339294E+03  0.00000000000E+00 0.  1.
</event>
<event>
 6    1  0.3624778E-005  0.1272444E+03  0.7818608E-02  0.1233892E+00
          2   -1    0    0  502    0  0.00000000000E+00  0.00000000000E+00  0.91576243829E+03  0.91576243829E+03  0.00000000000E+00 0. -1.
          1   -1    0    0  501    0 -0.00000000000E+00 -0.00000000000E+00 -0.27739367901E+02  0.27739367901E+02  0.00000000000E+00 0. -1.
          2    1    1    2  501    0 -0.77310321443E+02  0.68970858913E+02  0.41338817572E+03  0.42617326172E+03  0.00000000000E+00 0. -1.
          1    1    1    2  502    0  0.31632561209E+02 -0.40166722284E+01  0.15937717107E+02  0.35647768669E+02  0.00000000000E+00 0. -1.
         22    1    1    2    0    0 -0.28582900629E+02  0.17051510441E+02  0.69391052210E+02  0.76960082793E+02  0.00000000000E+00 0.  1.
         22    1    1    2    0    0  0.74260660862E+02 -0.82005697126E+02  0.38930612536E+03  0.40472069301E+03  0.00000000000E+00 0. -1.
</event>
<event>
 6    1  0.3624778E-005  0.8336154E+02  0.7818608E-02  0.1413914E+00
          2   -1    0    0  502    0  0.00000000000E+00  0.00000000000E+00  0.99963661968E+02  0.99963661968E+02  0.00000000000E+00 0.  1.
          1   -1    0    0  501    0 -0.00000000000E+00 -0.00000000000E+00 -0.83471941748E+03  0.83471941748E+03  0.00000000000E+00 0.  1.
          2    1    1    2  501    0 -0.10390461836E+02 -0.21807885392E+02  0.75458116220E+01  0.25307801869E+02  0.00000000000E+00 0.  1.
          1    1    1    2  502    0  0.23158543570E+02 -0.17384107809E+02 -0.77244101161E+03  0.77298359734E+03  0.00000000000E+00 0.  1.
         22    1    1    2    0    0 -0.16648871000E+02  0.56133117194E+02 -0.35512574975E+02  0.68478133246E+02  0.00000000000E+00 0. -1.
         22    1    1    2    0    0  0.38807892658E+01 -0.16941123994E+02  0.65652019448E+02  0.67913546993E+02  0.00000000000E+00 0.  1.
</event>
<event>
 6    1  0.3624778E-005  0.1833077E+03  0.7818608E-02  0.1292092E+00
          2   -1    0    0  502    0  0.00000000000E+00  0.00000000000E+00  0.56963273661E+02  0.56963273661E+02  0.00000000000E+00 0.  1.
          1   -1    0    0  501    0 -0.00000000000E+00 -0.00000000000E+00 -0.97898411656E+03  0.97898411656E+03  0.00000000000E+00 0. -1.
          2    1    1    2  501    0 -0.57220146576E+02  0.84314272640E+02 -0.17820906878E+03  0.20528398365E+03  0.00000000000E+00 0.  1.
          1    1    1    2  502    0  0.12789891661E+03 -0.11177053573E+03 -0.60705313111E+03  0.63036837605E+03  0.00000000000E+00 0. -1.
         22    1    1    2    0    0 -0.83606029341E+02  0.28823945121E+02 -0.15466776284E+03  0.17816538614E+03  0.00000000000E+00 0.  1.
         22    1    1    2    0    0  0.12927259309E+02 -0.13676820293E+01  0.17909119840E+02  0.22129644390E+02  0.00000000000E+00 0.  1.
</event>
<event>
 6    1  0.3624778E-005  0.6350115E+02  0.7818608E-02  0.1398811E+00
          2   -1    0    0  502    0  0.00000000000E+00  0.00000000000E+00  0.17792237862E+03  0.17792237862E+03  0.00000000000E+00 0. -1.
          1   -1    0    0  501    0 -0.00000000000E+00 -0.00000000000E+00 -0.12832541657E+03  0.12832541657E+03  0.00000000000E+00 0. -1.
          2    1    1    2  501    0 -0.44560881258E+02  0.52695136271E+02 -0.66179978359E+02  0.95615056663E+02  0.00000000000E+00 0. -1.
          1    1    1    2  502    0  0.23183039862E+02 -0.23092409215E+02 -0.38865891164E+01  0.32951756790E+02  0.00000000000E+00 0. -1.
         22    1    1    2    0    0  0.80924514352E+01  0.17316599980E+02 -0.21242137668E+02  0.28575878251E+02  0.00000000000E+00 0.  1.
         22    1    1    2    0    0  0.13285389961E+02 -0.46919327036E+02  0.14090566719E+03  0.14910510348E+03  0.00000000000E+00 0. -1.
</event>
<event>
 6    1  0.3624778E-005  0.7449601E+02  0.7818608E-02  0.1382273E+00
          2   -1    0    0  502    0  0.00000000000E+00  0.00000000000E+00  0.36823406403E+02  0.36823406403E+02  0.00000000000E+00 0. -1.
          1   -1    0    0  501    0 -0.00000000000E+00 -0.00000000000E+00 -0.31348143030E+03  0.31348143030E+03  0.00000000000E+00 0. -1.
          2    1    1    2  501    0  0.58473955456E+01 -0.46082292461E+02 -0.61803855001E+02  0.77314204427E+02  0.00000000000E+00 0. -1.
          1    1    1    2  502    0 -0.12176455242E+02  0.40003268730E+02 -0.38101623081E+02  0.56570851618E+02  0.00000000000E+00 0. -1.
         22    1    1    2    0    0  0.20272785008E+02  0.43838846432E+02 -0.16269805727E+02  0.50966036209E+02  0.00000000000E+00 0. -1.
         22    1    1    2    0    0 -0.13943725312E+02 -0.37759822701E+02 -0.16048274009E+03  0.16545374445E+03  0.00000000000E+00 0. -1.
</event>
<event>
 6    1  0.3624778E-005  0.5280747E+03  0.7818608E-02  0.1061547E+00
          2   -1    0    0  502    0  0.00000000000E+00  0.00000000000E+00  0.41268541532E+03  0.41268541532E+03  0.00000000000E+00 0.  1.
          1   -1    0    0  501    0 -0.00000000000E+00 -0.00000000000E+00 -0.10974040746E+04  0.10974040746E+04  0.00000000000E+00 0. -1.
          2    1    1    2  501    0 -0.34205741679E+03  0.14277567999E+03  0.14567514027E+03  0.39825797879E+03  0.00000000000E+00 0.  1.
          1    1    1    2  502    0  0.36733731310E+03 -0.27166002974E+03 -0.80981004262E+03  0.92980007446E+03  0.00000000000E+00 0. -1.
         22    1    1    2    0    0 -0.64446670895E+02  0.82871727537E+02  0.23070985709E+02  0.10748658984E+03  0.00000000000E+00 0.  1.
         22    1    1    2    0    0  0.39166774586E+02  0.46012622215E+02 -0.43654742679E+02  0.74544846857E+02  0.00000000000E+00 0.  1.
</event>
<event>
 6    1  0.3624778E-005  0.2369220E+03  0.7818608E-02  0.1144216E+00
          2   -1    0    0  502    0  0.00000000000E+00  0.00000000000E+00  0.19751453428E+04  0.19751453428E+04  0.00000000000E+00 0. -1.
          1   -1    0    0  501    0 -0.00000000000E+00 -0.00000000000E+00 -0.13577804534E+03  0.13577804534E+03  0.00000000000E+00 0.  1.
          2    1    1    2  501    0  0.68893042965E+02 -0.16890609526E+03  0.13034401973E+04  0.13161427994E+04  0.00000000000E+00 0. -1.
          1    1    1    2  502    0  0.29472518842E+02  0.22627035083E+03 -0.54506531119E+01  0.22824681958E+03  0.00000000000E+00 0.  1.
         22    1    1    2    0    0  0.27387083027E+02 -0.24268053836E+01  0.12983876577E+03  0.13271792192E+03  0.00000000000E+00 0.  1.
         22    1    1    2    0    0 -0.12575264483E+03 -0.54937450188E+02  0.41153898746E+03  0.43381584724E+03  0.00000000000E+00 0. -1.
</event>
<event>
 6    1  0.4575226E-005  0.9725674E+02  0.7818608E-02  0.1366401E+00
          2   -1    0    0  502    0  0.00000000000E+00  0.00000000000E+00  0.54188826596E+03  0.54188826596E+03  0.00000000000E+00 0. -1.
          1   -1    0    0  501    0 -0.00000000000E+00 -0.00000000000E+00 -0.41987801654E+03  0.41987801654E+03  0.00000000000E+00 0. -1.
          2    1    1    2  501    0  0.19836450178E+02 -0.10457048895E+03 -0.38816755510E+03  0.40249536985E+03  0.00000000000E+00 0. -1.
          1    1    1    2  502    0 -0.22703203756E+02  0.51231369723E+02  0.31128360311E+03  0.31628716426E+03  0.00000000000E+00 0. -1.
         22    1    1    2    0    0 -0.16162649900E+02  0.17040337300E+02 -0.13216640917E+02  0.26949655735E+02  0.00000000000E+00 0.  1.
         22    1    1    2    0    0  0.19029403478E+02  0.36298781929E+02  0.21211084231E+03  0.21603409267E+03  0.00000000000E+00 0. -1.
</event>
<event>
 6    1  0.3624778E-005  0.2261752E+03  0.7818608E-02  0.1208154E+00
          2   -1    0    0  502    0  0.00000000000E+00  0.00000000000E+00  0.27253688194E+03  0.27253688194E+03  0.00000000000E+00 0. -1.
          1   -1    0    0  501    0 -0.00000000000E+00 -0.00000000000E+00 -0.13859978904E+04  0.13859978904E+04  0.00000000000E+00 0.  1.
          2    1    1    2  501    0 -0.66658206515E+02 -0.13917435859E+02 -0.12238001871E+03  0.14004956442E+03  0.00000000000E+00 0. -1.
          1    1    1    2  502    0  0.60073740684E+02 -0.17332429128E+02 -0.12378822321E+04  0.12394602406E+04  0.00000000000E+00 0.  1.
         22    1    1    2    0    0  0.82829657807E+01  0.68287912464E+02  0.69119131501E+02  0.97515644131E+02  0.00000000000E+00 0. -1.
         22    1    1    2    0    0 -0.16984999499E+01 -0.37038047478E+02  0.17768211089E+03  0.18150932316E+03  0.00000000000E+00 0. -1.
</event>
<event>
 6    1  0.3624778E-005  0.7061001E+02  0.7818608E-02  0.1430620E+00
          2   -1    0    0  502    0  0.00000000000E+00  0.00000000000E+00  0.56381183453E+02  0.56381183453E+02  0.00000000000E+00 0.  1.
          1   -1    0    0  501    0 -0.00000000000E+00 -0.00000000000E+00 -0.19804535949E+04  0.19804535949E+04  0.00000000000E+00 0. -1.
          2    1    1    2  501    0  0.19880377499E+02 -0.44897312389E+02 -0.31649055405E+03  0.32027686284E+03  0.00000000000E+00 0.  1.
          1    1    1    2  502    0  0.94057639049E+00  0.24360127807E+02 -0.15872614317E+04  0.15874486300E+04  0.00000000000E+00 0. -1.
         22    1    1    2    0    0  0.48154036717E+01  0.21606610520E+02  0.49769435157E+02  0.54470454436E+02  0.00000000000E+00 0.  1.
         22    1    1    2    0    0 -0.25636357562E+02 -0.10694259374E+01 -0.70089860854E+02  0.74638831015E+02  0.00000000000E+00 0.  1.
</event>
<event>
 6    1  0.3624778E-005  0.2410400E+03  0.7818608E-02  0.1200529E+00
          2   -1    0    0  502    0  0.00000000000E+00  0.00000000000E+00  0.30792982740E+03  0.30792982740E+03  0.00000000000E+00 0. -1.
          1   -1    0    0  501    0 -0.00000000000E+00 -0.00000000000E+00 -0.20806801493E+03  0.20806801493E+03  0.00000000000E+00 0. -1.
          2    1    1    2  501    0 -0.69395763560E+01  0.46898915520E+02  0.19898840506E+02  0.51416241115E+02  0.00000000000E+00 0. -1.
          1    1    1    2  502    0 -0.10582193976E+03  0.10514634112E+03 -0.95007449762E+02  0.17686280416E+03  0.00000000000E+00 0. -1.
         22    1    1    2    0    0  0.29708994908E+02  0.20516808052E+02  0.36921174410E+02  0.51640458082E+02  0.00000000000E+00 0. -1.
         22    1    1    2    0    0  0.83052521204E+02 -0.17256206469E+03  0.13804924731E+03  0.23607833897E+03  0.00000000000E+00 0. -1.
</event>
<event>
 6    1  0.3624778E-005  0.1779798E+03  0.7818608E-02  0.1240508E+00
          2   -1    0    0  502    0  0.00000000000E+00  0.00000000000E+00  0.18019141130E+04  0.18019141130E+04  0.00000000000E+00 0. -1.
          1   -1    0    0  501    0 -0.00000000000E+00 -0.00000000000E+00 -0.39071308663E+02  0.39071308663E+02  0.00000000000E+00 0. -1.
          2    1    1    2  501    0  0.47078385285E+02  0.25729838576E+02  0.91594944425E+01  0.54426972106E+02  0.00000000000E+00 0. -1.
          1    1    1    2  502    0 -0.11164199872E+03 -0.27671757236E+02  0.14159612053E+04  0.14206251430E+04  0.00000000000E+00 0. -1.
         22    1    1    2    0    0  0.95717076367E+02 -0.21118743309E+02  0.19798734306E+03  0.22092249328E+03  0.00000000000E+00 0. -1.
         22    1    1    2    0    0 -0.31153462929E+02  0.23060661969E+02  0.13973476155E+03  0.14501081328E+03  0.00000000000E+00 0. -1.
</event>
<event>
 6    1  0.3624778E-005  0.3727758E+03  0.7818608E-02  0.1154713E+00
          2   -1    0    0  502    0  0.00000000000E+00  0.00000000000E+00  0.26505255215E+03  0.26505255215E+03  0.00000000000E+00 0. -1.
          1   -1    0    0  501    0 -0.00000000000E+00 -0.00000000000E+00 -0.71658457731E+03  0.71658457731E+03  0.00000000000E+00 0. -1.
          2    1    1    2  501    0  0.13375608515E+03 -0.97673652609E+02  0.11681387711E+03  0.20267292521E+03  0.00000000000E+00 0. -1.
          1    1    1    2  502    0 -0.11302647681E+03 -0.80833327108E+02 -0.53865309061E+03  0.55628784209E+03  0.00000000000E+00 0. -1.
         22    1    1    2    0    0 -0.26288233559E+02  0.79570089991E+01  0.31135029583E+02  0.41518372836E+02  0.00000000000E+00 0. -1.
         22    1    1    2    0    0  0.55586252199E+01  0.17054997072E+03 -0.60827841235E+02  0.18115798932E+03  0.00000000000E+00 0. -1.
</event>
<event>
 6    1  0.3624778E-005  0.1169611E+03  0.7818608E-02  0.1248803E+00
          2   -1    0    0  502    0  0.00000000000E+00  0.00000000000E+00  0.35318464304E+03  0.35318464304E+03  0.00000000000E+00 0.  1.
          1   -1    0    0  501    0 -0.00000000000E+00 -0.00000000000E+00 -0.90296757897E+03  0.90296757897E+03  0.00000000000E+00 0. -1.
          2    1    1    2  501    0  0.78859840780E+02  0.40710331996E+02  0.17261746409E+03  0.19409532330E+03  0.00000000000E+00 0.  1.
          1    1    1    2  502    0  0.32984833310E+02  0.10428020095E+02 -0.84760608760E+03  0.84831174846E+03  0.00000000000E+00 0. -1.
         22    1    1    2    0    0  0.13207247018E+02  0.15269962433E+02  0.48895381012E+02  0.52899540743E+02  0.00000000000E+00 0. -1.
         22    1    1    2    0    0 -0.12505192111E+03 -0.66408314523E+02  0.76310306568E+02  0.16084560951E+03  0.00000000000E+00 0.  1.
</event>
<event>
 6    1  0.3624778E-005  0.1467876E+03  0.7818608E-02  0.1295622E+00
          2   -1    0    0  502    0  0.00000000000E+00  0.00000000000E+00  0.20324185571E+03  0.20324185571E+03  0.00000000000E+00 0. -1.
          1   -1    0    0  501    0 -0.00000000000E+00 -0.00000000000E+00 -0.10958837701E+04  0.10958837701E+04  0.00000000000E+00 0. -1.
          2    1    1    2  501    0 -0.19817032581E+02 -0.22513220046E+02  0.67213162841E+02  0.73601420613E+02  0.00000000000E+00 0. -1.
          1    1    1    2  502    0  0.10504960457E+03  0.23271993519E+02 -0.10468861277E+04  0.10524008597E+04  0.00000000000E+00 0. -1.
         22    1    1    2    0    0 -0.18045840127E+02 -0.15372576387E+02  0.10032894244E+03  0.10309153768E+03  0.00000000000E+00 0. -1.
         22    1    1    2    0    0 -0.67186731864E+02  0.14613802914E+02 -0.13297891948E+02  0.70031807805E+02  0.00000000000E+00 0.  1.
</event>
<event>
 6    1  0.3624778E-005  0.1198566E+03  0.7818608E-02  0.1305784E+00
          2   -1    0    0  502    0  0.00000000000E+00  0.00000000000E+00  0.12451435088E+03  0.12451435088E+03  0.00000000000E+00 0. -1.
          1   -1    0    0  501    0 -0.00000000000E+00 -0.00000000000E+00 -0.16554700276E+03  0.16554700276E+03  0.00000000000E+00 0. -1.
          2    1    1    2  501    0  0.27719656015E+02 -0.32278935929E+02 -0.78719273776E+01  0.43269807891E+02  0.00000000000E+00 0. -1.
          1    1    1    2  502    0  0.42876283917E+02  0.68191772810E+02 -0.57926079159E+02  0.99216552290E+02  0.00000000000E+00 0. -1.
         22    1    1    2    0    0 -0.60899343473E+02 -0.70700077541E+02 -0.14269196810E+02  0.94397250900E+02  0.00000000000E+00 0. -1.
         22    1    1    2    0    0 -0.96965964587E+01  0.34787240660E+02  0.39034551466E+02  0.53177742560E+02  0.00000000000E+00 0. -1.
</event>
<event>
 6    1  0.3624778E-005  0.1076096E+03  0.7818608E-02  0.1266357E+00
          2   -1    0    0  502    0  0.00000000000E+00  0.00000000000E+00  0.82904134191E+03  0.82904134191E+03  0.00000000000E+00 0.  1.
          1   -1    0    0  501    0 -0.00000000000E+00 -0.00000000000E+00 -0.14666855924E+03  0.14666855924E+03  0.00000000000E+00 0. -1.
          2    1    1    2  501    0  0.45522789071E+02  0.66479371741E+02  0.31672014707E+03  0.32680802125E+03  0.00000000000E+00 0.  1.
          1    1    1    2  502    0 -0.68858823960E+01 -0.24594882896E+02 -0.13152567767E+03  0.13398256427E+03  0.00000000000E+00 0. -1.
         22    1    1    2    0    0  0.16101943297E+02  0.32239584055E+02  0.21715456802E+03  0.22012444156E+03  0.00000000000E+00 0.  1.
         22    1    1    2    0    0 -0.54738849972E+02 -0.74124072900E+02  0.28002374525E+03  0.29479487408E+03  0.00000000000E+00 0.  1.
</event>
<event>
 6    1  0.3624778E-005  0.1027575E+03  0.7818608E-02  0.1367308E+00
          2   -1    0    0  502    0  0.00000000000E+00  0.00000000000E+00  0.62445624280E+02  0.62445624280E+02  0.00000000000E+00 0. -1.
          1   -1    0    0  501    0 -0.00000000000E+00 -0.00000000000E+00 -0.37839716207E+03  0.37839716207E+03  0.00000000000E+00 0. -1.
          2    1    1    2  501    0 -0.30263491333E+02  0.23120209435E+02 -0.13615183720E+03  0.14137802434E+03  0.00000000000E+00 0. -1.
          1    1    1    2  502    0  0.91059245835E+02 -0.34705279579E+02 -0.96798697028E+02  0.13735439720E+03  0.00000000000E+00 0. -1.
         22    1    1    2    0    0 -0.53267330595E+02  0.29697664792E+02 -0.11174941362E+03  0.12730786012E+03  0.00000000000E+00 0.  1.
         22    1    1    2    0    0 -0.75284239078E+01 -0.18112594648E+02  0.28748410068E+02  0.34802504693E+02  0.00000000000E+00 0. -1.
</event>
<event>
 6    1  0.3624778E-005  0.7282712E+02  0.7818608E-02  0.1357959E+00
          2   -1    0    0  502    0  0.00000000000E+00  0.00000000000E+00  0.82788067644E+02  0.82788067644E+02  0.00000000000E+00 0.  1.
          1   -1    0    0  501    0 -0.00000000000E+00 -0.00000000000E+00 -0.67232446409E+03  0.67232446409E+03  0.00000000000E+00 0. -1.
          2    1    1    2  501    0  0.18970151314E+02 -0.18422795501E+02  0.21812047281E+01  0.26533444726E+02  0.00000000000E+00 0.  1.
          1    1    1    2  502    0 -0.25764659149E+02  0.51678124055E+01 -0.60218250259E+03  0.60275558095E+03  0.00000000000E+00 0. -1.
         22    1    1    2    0    0  0.18178808728E+01  0.59066150029E+02 -0.28378937577E+02  0.65555158974E+02  0.00000000000E+00 0.  1.
         22    1    1    2    0    0  0.49766269622E+01 -0.45811166933E+02  0.38843838994E+02  0.60268347078E+02  0.00000000000E+00 0.  1.
</event>
<event>
 6    1  0.3624778E-005  0.2133366E+03  0.7818608E-02  0.1211307E+00
          2   -1    0    0  502    0  0.00000000000E+00  0.00000000000E+00  0.73276572585E+03  0.73276572585E+03  0.00000000000E+00 0. -1.
          1   -1    0    0  501    0 -0.00000000000E+00 -0.00000000000E+00 -0.17372540674E+03  0.17372540674E+03  0.00000000000E+00 0. -1.
          2    1    1    2  501    0  0.15870765150E+02 -0.67168255264E+02  0.72771107866E+02  0.10029501404E+03  0.00000000000E+00 0. -1.
          1    1    1    2  502    0  0.89405447508E+01 -0.31070569505E+02 -0.14796348483E+03  0.15145463503E+03  0.00000000000E+00 0. -1.
         22    1    1    2    0    0 -0.33146176542E+02 -0.22921293968E+02  0.18852324593E+03  0.19278243953E+03  0.00000000000E+00 0. -1.
         22    1    1    2    0    0  0.83348666411E+01  0.12116011874E+03  0.44570945014E+03  0.46195904398E+03  0.00000000000E+00 0. -1.
</event>
<event>
 6    1  0.3624778E-005  0.9093226E+02  0.7818608E-02  0.1312537E+00
          2   -1    0    0  502    0  0.00000000000E+00  0.00000000000E+00  0.14504421996E+03  0.14504421996E+03  0.00000000000E+00 0.  1.
          1   -1    0    0  501    0 -0.00000000000E+00 -0.00000000000E+00 -0.84525128710E+03  0.84525128710E+03  0.00000000000E+00 0. -1.
          2    1    1    2  501    0  0.28938942572E+02  0.74733050983E+00 -0.34699985459E+02  0.45189710011E+02  0.00000000000E+00 0.  1.
          1    1    1    2  502    0 -0.55619161653E+02 -0.48932888920E+02 -0.77010261600E+03  0.77365751979E+03  0.00000000000E+00 0. -1.
         22    1    1    2    0    0  0.11213842059E+01  0.82432790888E+02  0.98235400590E+02  0.12824436224E+03  0.00000000000E+00 0.  1.
         22    1    1    2    0    0  0.25558834875E+02 -0.34247232478E+02  0.63601337255E+01  0.43203915026E+02  0.00000000000E+00 0.  1.
</event>
<event>
 6    1  0.3624778E-005  0.2509326E+03  0.7818608E-02  0.1189977E+00
          2   -1    0    0  502    0  0.00000000000E+00  0.00000000000E+00  0.28698759651E+03  0.28698759651E+03  0.00000000000E+00 0.  1.
          1   -1    0    0  501    0 -0.00000000000E+00 -0.00000000000E+00 -0.25356720277E+03  0.25356720277E+03  0.00000000000E+00 0.  1.
          2    1    1    2  501    0  0.16335260870E+02  0.39280742933E+02 -0.58530185004E+02  0.72357446539E+02  0.00000000000E+00 0.  1.
          1    1    1    2  502    0 -0.24912296737E+02  0.19672411327E+02 -0.17042854270E+03  0.17335949488E+03  0.00000000000E+00 0.  1.
         22    1    1    2    0    0 -0.21354620190E+02  0.31844799749E+02  0.63613935746E+02  0.74275459578E+02  0.00000000000E+00 0.  1.
         22    1    1    2    0    0  0.29931656057E+02 -0.90797954009E+02  0.19876518570E+03  0.22056239828E+03  0.00000000000E+00 0.  1.
</event>
<event>
 6    1  0.3624778E-005  0.2951719E+03  0.7818608E-02  0.1141093E+00
          2   -1    0    0  502    0  0.00000000000E+00  0.00000000000E+00  0.16668320498E+04  0.16668320498E+04  0.00000000000E+00 0.  1.
          1   -1    0    0  501    0 -0.00000000000E+00 -0.00000000000E+00 -0.59261802589E+02  0.59261802589E+02  0.00000000000E+00 0.  1.
          2    1    1    2  501    0  0.12406132752E+03  0.18371466267E+03  0.48823716225E+03  0.53620687880E+03  0.00000000000E+00 0.  1.
          1    1    1    2  502    0 -0.15476605138E+03 -0.21678911462E+03  0.74156421015E+03  0.78795147608E+03  0.00000000000E+00 0.  1.
         22    1    1    2    0    0 -0.45687744240E+02  0.36913917605E+02  0.19907853383E+03  0.20756268913E+03  0.00000000000E+00 0. -1.
         22    1    1    2    0    0  0.76392468102E+02 -0.38394656536E+01  0.17869034093E+03  0.19437280834E+03  0.00000000000E+00 0.  1.
</event>
<event>
 6    1  0.3624778E-005  0.1633778E+03  0.7818608E-02  0.1251243E+00
          2   -1    0    0  502    0  0.00000000000E+00  0.00000000000E+00  0.65768812509E+03  0.65768812509E+03  0.00000000000E+00 0.  1.
          1   -1    0    0  501    0 -0.00000000000E+00 -0.00000000000E+00 -0.57481444828E+02  0.57481444828E+02  0.00000000000E+00 0.  1.
          2    1    1    2  501    0  0.26276418716E+02 -0.35696327773E+02  0.62366187641E+02  0.76512870537E+02  0.00000000000E+00 0.  1.
          1    1    1    2  502    0 -0.14435635628E+03  0.39832192028E+01  0.12519827311E+03  0.19112621805E+03  0.00000000000E+00 0.  1.
         22    1    1    2    0    0  0.12780802842E+03 -0.74746852583E+01  0.26254104885E+03  0.29209341892E+03  0.00000000000E+00 0.  1.
         22    1    1    2    0    0 -0.97280908536E+01  0.39187793829E+02  0.15010117066E+03  0.15543706240E+03  0.00000000000E+00 0.  1.
</event>
<event>
 6    1  0.3624778E-005  0.6187634E+02  0.7818608E-02  0.1447164E+00
          2   -1    0    0  502    0  0.00000000000E+00  0.00000000000E+00  0.79981796022E+02  0.79981796022E+02  0.00000000000E+00 0. -1.
          1   -1    0    0  501    0 -0.00000000000E+00 -0.00000000000E+00 -0.17521504357E+03  0.17521504357E+03  0.00000000000E+00 0. -1.
          2    1    1    2  501    0  0.37826387292E+01  0.30150813324E+02 -0.36177643706E+02  0.47246182957E+02  0.00000000000E+00 0. -1.
          1    1    1    2  502    0 -0.79074765533E+01 -0.57501446145E+02 -0.53950698148E+02  0.79244068074E+02  0.00000000000E+00 0. -1.
         22    1    1    2    0    0 -0.21720593754E+02  0.13697897755E+02  0.55648326797E+02  0.61287460962E+02  0.00000000000E+00 0. -1.
         22    1    1    2    0    0  0.25845431578E+02  0.13652735066E+02 -0.60753232488E+02  0.67419127597E+02  0.00000000000E+00 0.  1.
</event>
<event>
 6    1  0.3624778E-005  0.2556317E+03  0.7818608E-02  0.1175466E+00
          2   -1    0    0  502    0  0.00000000000E+00  0.00000000000E+00  0.24603041332E+03  0.24603041332E+03  0.00000000000E+00 0. -1.
          1   -1    0    0  501    0 -0.00000000000E+00 -0.00000000000E+00 -0.13624218011E+04  0.13624218011E+04  0.00000000000E+00 0. -1.
          2    1    1    2  501    0  0.12133533649E+03  0.55213871887E+02  0.11617762524E+02  0.13381258511E+03  0.00000000000E+00 0. -1.
          1    1    1    2  502    0 -0.21262970604E+03 -0.14002590839E+03 -0.12386010131E+04  0.12644963885E+04  0.00000000000E+00 0. -1.
         22    1    1    2    0    0  0.47725997114E+02  0.22501210180E+02  0.12231727122E+03  0.13321257486E+03  0.00000000000E+00 0.  1.
         22    1    1    2    0    0  0.43568372442E+02  0.62310826319E+02 -0.11725408391E+02  0.76930665900E+02  0.00000000000E+00 0. -1.
</event>
<event>
 6    1  0.3624778E-005  0.7559445E+02  0.7818608E-02  0.1458977E+00
          2   -1    0    0  502    0  0.00000000000E+00  0.00000000000E+00  0.71042298460E+02  0.71042298460E+02  0.00000000000E+00 0. -1.
          1   -1    0    0  501    0 -0.00000000000E+00 -0.00000000000E+00 -0.98451216862E+03  0.98451216862E+03  0.00000000000E+00 0. -1.
          2    1    1    2  501    0  0.15170392417E+02 -0.28574808118E+02 -0.41657178334E+03  0.41782617335E+03  0.00000000000E+00 0. -1.
          1    1    1    2  502    0 -0.29493186336E+02  0.28437012061E+02 -0.50746907902E+03  0.50912019982E+03  0.00000000000E+00 0. -1.
         22    1    1    2    0    0 -0.76125203658E+01 -0.90707516088E+01  0.66648879297E+02  0.67692703540E+02  0.00000000000E+00 0. -1.
         22    1    1    2    0    0  0.21935314284E+02  0.92085476661E+01 -0.56077887091E+02  0.60915390366E+02  0.00000000000E+00 0. -1.
</event>
<event>
 6    1  0.3624778E-005  0.7764283E+02  0.7818608E-02  0.1394707E+00
          2   -1    0    0  502    0  0.00000000000E+00  0.00000000000E+00  0.67172279817E+02  0.67172279817E+02  0.00000000000E+00 0.  1.
          1   -1    0    0  501    0 -0.00000000000E+00 -0.00000000000E+00 -0.40360542229E+03  0.40360542229E+03  0.00000000000E+00 0.  1.
          2    1    1    2  501    0  0.19845641636E+02 -0.19353955178E+02 -0.10496639280E+02  0.29641263623E+02  0.00000000000E+00 0.  1.
          1    1    1    2  502    0 -0.43074906965E+02 -0.32672167915E+02 -0.29335985860E+03  0.29830005834E+03  0.00000000000E+00 0.  1.
         22    1    1    2    0    0 -0.65535661858E+01  0.28353630708E+02  0.46630487206E+02  0.54966170880E+02  0.00000000000E+00 0.  1.
         22    1    1    2    0    0  0.29782831514E+02  0.23672492385E+02 -0.79207131800E+02  0.87870209267E+02  0.00000000000E+00 0.  1.
</event>
<event>
 6    1  0.3624778E-005  0.8687188E+02  0.7818608E-02  0.1438422E+00
          2   -1    0    0  502    0  0.00000000000E+00  0.00000000000E+00  0.32666543269E+02  0.32666543269E+02  0.00000000000E+00 0. -1.
          1   -1    0    0  501    0 -0.00000000000E+00 -0.00000000000E+00 -0.87798950560E+03  0.87798950560E+03  0.00000000000E+00 0. -1.
          2    1    1    2  501    0  0.31240101190E+01  0.21973005415E+02 -0.25422606155E+02  0.33747315596E+02  0.00000000000E+00 0. -1.
          1    1    1    2  502    0 -0.52356970328E+02 -0.56342696749E+02 -0.65420113220E+03  0.65870697066E+03  0.00000000000E+00 0. -1.
         22    1    1    2    0    0  0.76187489284E+01 -0.73252259573E+01  0.20414247902E+02  0.22987948755E+02  0.00000000000E+00 0. -1.
         22    1    1    2    0    0  0.41614211280E+02  0.41694917291E+02 -0.18611347187E+03  0.19521381386E+03  0.00000000000E+00 0.  1.
</event>
<event>
 6    1  0.3624778E-005  0.1147158E+03  0.7818608E-02  0.1315103E+00
          2   -1    0    0  502    0  0.00000000000E+00  0.00000000000E+00  0.13017895888E+03  0.13017895888E+03  0.00000000000E+00 0. -1.
          1   -1    0    0  501    0 -0.00000000000E+00 -0.00000000000E+00 -0.52743583063E+03  0.52743583063E+03  0.00000000000E+00 0. -1.
          2    1    1    2  501    0  0.65046339644E+02 -0.11474858960E+02 -0.44889360342E+02  0.79860837468E+02  0.00000000000E+00 0. -1.
          1    1    1    2  502    0 -0.62523180744E+02 -0.48296257716E+02 -0.41632619816E+03  0.42375603820E+03  0.00000000000E+00 0. -1.
         22    1    1    2    0    0  0.15122749775E+02  0.31324958580E+02  0.99361982845E+02  0.10527466089E+03  0.00000000000E+00 0. -1.
         22    1    1    2    0    0 -0.17645908675E+02  0.28446158096E+02 -0.35403296096E+02  0.48723252948E+02  0.00000000000E+00 0. -1.
</event>
<event>
 6    1  0.3624778E-005  0.2071643E+03  0.7818608E-02  0.1144198E+00
          2   -1    0    0  502    0  0.00000000000E+00  0.00000000000E+00  0.32082261639E+03  0.32082261639E+03  0.00000000000E+00 0.  1.
          1   -1    0    0  501    0 -0.00000000000E+00 -0.00000000000E+00 -0.19947425486E+03  0.19947425486E+03  0.00000000000E+00 0.  1.
          2    1    1    2  501    0 -0.11917264134E+03  0.14543440704E+03  0.13605428410E+03  0.23208630596E+03  0.00000000000E+00 0.  1.
          1    1    1    2  502    0 -0.37194267409E+02 -0.20580576084E+01  0.19053819989E+02  0.41841333456E+02  0.00000000000E+00 0.  1.
         22    1    1    2    0    0 -0.11842074376E+02  0.43844468373E+01  0.12478173866E+02  0.17752828581E+02  0.00000000000E+00 0.  1.
         22    1    1    2    0    0  0.16820898312E+03 -0.14776079626E+03 -0.46237916427E+02  0.22861640324E+03  0.00000000000E+00 0.  1.
</event>
<event>
 6    1  0.3624778E-005  0.7886445E+02  0.7818608E-02  0.1359602E+00
          2   -1    0    0  502    0  0.00000000000E+00  0.00000000000E+00  0.78653376315E+02  0.78653376315E+02  0.00000000000E+00 0.  1.
          1   -1    0    0  501    0 -0.00000000000E+00 -0.00000000000E+00 -0.57573056026E+03  0.57573056026E+03  0.00000000000E+00 0.  1.
          2    1    1    2  501    0 -0.17089140165E+02  0.12277944067E+02 -0.62485429740E+01  0.21950647175E+02  0.00000000000E+00 0.  1.
          1    1    1    2  502    0  0.48746015221E+02 -0.47261021401E+02 -0.49210782591E+03  0.49676945404E+03  0.00000000000E+00 0.  1.
         22    1    1    2    0    0 -0.19810171253E+02 -0.45204690542E+02 -0.17665726636E+02  0.52421224992E+02  0.00000000000E+00 0.  1.
         22    1    1    2    0    0 -0.11846703802E+02  0.80187767876E+02  0.18944911568E+02  0.83242610376E+02  0.00000000000E+00 0.  1.
</event>
<event>
 6    1  0.3624778E-005  0.1423316E+03  0.7818608E-02  0.1274936E+00
          2   -1    0    0  502    0  0.00000000000E+00  0.00000000000E+00  0.27649406509E+03  0.27649406509E+03  0.00000000000E+00 0. -1.
          1   -1    0    0  501    0 -0.00000000000E+00 -0.00000000000E+00 -0.36065958377E+03  0.36065958377E+03  0.00000000000E+00 0. -1.
          2    1    1    2  501    0 -0.15714776000E+02  0.75527912549E+02  0.87461691715E+02  0.11662318499E+03  0.00000000000E+00 0. -1.
          1    1    1    2  502    0  0.44615228330E+02 -0.12352460504E+03 -0.30523973470E+03  0.33229526372E+03  0.00000000000E+00 0. -1.
         22    1    1    2    0    0 -0.38420272047E+02 -0.10091654355E+00 -0.72366694092E+01  0.39095995606E+02  0.00000000000E+00 0. -1.
         22    1    1    2    0    0  0.95198197175E+01  0.48097609032E+02  0.14084919371E+03  0.14913920454E+03  0.00000000000E+00 0. -1.
</event>
<event>
 6    1  0.3624778E-005  0.2708254E+03  0.7818608E-02  0.1203343E+00
          2   -1    0    0  502    0  0.00000000000E+00  0.00000000000E+00  0.74065974481E+03  0.74065974481E+03  0.00000000000E+00 0. -1.
          1   -1    0    0  501    0 -0.00000000000E+00 -0.00000000000E+00 -0.11246118464E+03  0.11246118464E+03  0.00000000000E+00 0. -1.
          2    1    1    2  501    0 -0.91032342407E+02  0.16525900562E+02  0.34163270392E+03  0.35393911502E+03  0.00000000000E+00 0. -1.
          1    1    1    2  502    0 -0.34850005717E+02 -0.93407275372E+02 -0.48867073290E+02  0.11102897299E+03  0.00000000000E+00 0. -1.
         22    1    1    2    0    0 -0.23397635406E+02 -0.51170349412E+01  0.29428776646E+02  0.37943198127E+02  0.00000000000E+00 0. -1.
         22    1    1    2    0    0  0.14927998353E+03  0.81998409751E+02  0.30600415288E+03  0.35020964331E+03  0.00000000000E+00 0. -1.
</event>
<event>
 6    1  0.3624778E-005  0.3045855E+03  0.7818608E-02  0.1143543E+00
          2   -1    0    0  502    0  0.00000000000E+00  0.00000000000E+00  0.68793717116E+03  0.68793717116E+03  0.00000000000E+00 0. -1.
          1   -1    0    0  501    0 -0.00000000000E+00 -0.00000000000E+00 -0.40056929465E+03  0.40056929465E+03  0.00000000000E+00 0.  1.
          2    1    1    2  501    0 -0.21783244135E+02 -0.82502279518E+02 -0.85012676290E+01  0.85752011067E+02  0.00000000000E+00 0. -1.
          1    1    1    2  502    0 -0.14356485166E+02 -0.15378353944E+02 -0.34247700190E+03  0.34312257178E+03  0.00000000000E+00 0.  1.
         22    1    1    2    0    0 -0.48752503494E+02  0.43873461813E+02  0.24754321514E+03  0.25608461611E+03  0.00000000000E+00 0. -1.
         22    1    1    2    0    0  0.84892232795E+02  0.54007171649E+02  0.39080293091E+03  0.40354726685E+03  0.00000000000E+00 0. -1.
</event>
<event>
 6    1  0.3624778E-005  0.3523447E+03  0.7818608E-02  0.1166094E+00
          2   -1    0    0  502    0  0.00000000000E+00  0.00000000000E+00  0.33261233189E+03  0.33261233189E+03  0.00000000000E+00 0. -1.
          1   -1    0    0  501    0 -0.00000000000E+00 -0.00000000000E+00 -0.35028868512E+03  0.35028868512E+03  0.00000000000E+00 0. -1.
          2    1    1    2  501    0  0.78965063784E+02  0.79884688205E+02 -0.11765295313E+03  0.16266303233E+03  0.00000000000E+00 0. -1.
          1    1    1    2  502    0 -0.18246850280E+03 -0.12599891940E+03 -0.11349315662E+03  0.24910074027E+03  0.00000000000E+00 0. -1.
         22    1    1    2    0    0  0.12085911382E+03  0.64053061907E+02  0.15034520880E+03  0.20325698498E+03  0.00000000000E+00 0. -1.
         22    1    1    2    0    0 -0.17355674811E+02 -0.17938830708E+02  0.63124547715E+02  0.67880259425E+02  0.00000000000E+00 0. -1.
</event>
<event>
 6    1  0.3624778E-005  0.1476343E+03  0.7818608E-02  0.1282560E+00
          2   -1    0    0  502    0  0.00000000000E+00  0.00000000000E+00  0.21396983264E+03  0.21396983264E+03  0.00000000000E+00 0.  1.
          1   -1    0    0  501    0 -0.00000000000E+00 -0.00000000000E+00 -0.33347701944E+03  0.33347701944E+03  0.00000000000E+00 0. -1.
          2    1    1    2  501    0  0.77579925329E+02 -0.22781980115E+02  0.56440543888E+02  0.98606279853E+02  0.00000000000E+00 0.  1.
          1    1    1    2  502    0 -0.11056620679E+03  0.15612720464E+02 -0.26773803520E+03  0.29009015602E+03  0.00000000000E+00 0. -1.
         22    1    1    2    0    0  0.24281177562E+02 -0.17222650546E+02  0.11812272360E+03  0.12181614469E+03  0.00000000000E+00 0.  1.
         22    1    1    2    0    0  0.87051039009E+01  0.24391910197E+02 -0.26332419089E+02  0.36934271511E+02  0.00000000000E+00 0.  1.
</event>
<event>
 6    1  0.3624778E-005  0.1528389E+03  0.7818608E-02  0.1204051E+00
          2   -1    0    0  502    0  0.00000000000E+00  0.00000000000E+00  0.17945945965E+04  0.17945945965E+04  0.00000000000E+00 0. -1.
          1   -1    0    0  501    0 -0.00000000000E+00 -0.00000000000E+00 -0.91126108810E+03  0.91126108810E+03  0.00000000000E+00 0.  1.
          2    1    1    2  501    0 -0.76648660294E+01  0.12378148247E+03  0.11132462983E+04  0.11201329949E+04  0.00000000000E+00 0. -1.
          1    1    1    2  502    0 -0.41951453808E+02 -0.52935391339E+02 -0.89810241660E+03  0.90063867940E+03  0.00000000000E+00 0.  1.
         22    1    1    2    0    0  0.54500474915E+02 -0.10155843171E+03  0.58557174611E+03  0.59680707658E+03  0.00000000000E+00 0.  1.
         22    1    1    2    0    0 -0.48841550779E+01  0.30712340581E+02  0.82617880536E+02  0.88276933675E+02  0.00000000000E+00 0.  1.
</event>
<event>
 6    1  0.3624778E-005  0.6729392E+02  0.7818608E-02  0.1430576E+00
          2   -1    0    0  502    0  0.00000000000E+00  0.00000000000E+00  0.14401923348E+03  0.14401923348E+03  0.00000000000E+00 0. -1.
          1   -1    0    0  501    0 -0.00000000000E+00 -0.00000000000E+00 -0.31595003481E+03  0.31595003481E+03  0.00000000000E+00 0. -1.
          2    1    1    2  501    0  0.25408457506E+02  0.42581961705E+02 -0.12158721267E+03  0.13130979956E+03  0.00000000000E+00 0. -1.
          1    1    1    2  502    0 -0.20923767015E+02  0.12671185041E+01 -0.15500821269E+03  0.15641916640E+03  0.00000000000E+00 0. -1.
         22    1    1    2    0    0 -0.10594048172E+02 -0.23231634267E+02  0.13369605529E+03  0.13611237228E+03  0.00000000000E+00 0. -1.
         22    1    1    2    0    0  0.61093576806E+01 -0.20617445941E+02 -0.29031431268E+02  0.36127930053E+02  0.00000000000E+00 0. -1.
</event>
<event>
 6    1  0.3624778E-005  0.7024493E+02  0.7818608E-02  0.1407593E+00
          2   -1    0    0  502    0  0.00000000000E+00  0.00000000000E+00  0.12860796700E+03  0.12860796700E+03  0.00000000000E+00 0.  1.
          1   -1    0    0  501    0 -0.00000000000E+00 -0.00000000000E+00 -0.77747787353E+03  0.77747787353E+03  0.00000000000E+00 0.  1.
          2    1    1    2  501    0  0.13585897499E+01 -0.20032999799E+02 -0.27085744052E+02  0.33716529743E+02  0.00000000000E+00 0.  1.
          1    1    1    2  502    0 -0.26811434259E+02  0.46090216475E+02 -0.71079723306E+03  0.71279440766E+03  0.00000000000E+00 0.  1.
         22    1    1    2    0    0 -0.19473675543E+02 -0.25461556184E+02  0.10660745542E+03  0.11132234472E+03  0.00000000000E+00 0.  1.
         22    1    1    2    0    0  0.44926520053E+02 -0.59566049182E+00 -0.17594384837E+02  0.48252558411E+02  0.00000000000E+00 0.  1.
</event>
<event>
 6    1  0.3624778E-005  0.1803949E+03  0.7818608E-02  0.1188121E+00
          2   -1    0    0  502    0  0.00000000000E+00  0.00000000000E+00  0.18800701948E+03  0.18800701948E+03  0.00000000000E+00 0.  1.
          1   -1    0    0  501    0 -0.00000000000E+00 -0.00000000000E+00 -0.17777434779E+04  0.17777434779E+04  0.00000000000E+00 0. -1.
          2    1    1    2  501    0  0.58395862891E+01 -0.30154003120E+02 -0.22295141402E+02  0.37953102670E+02  0.00000000000E+00 0.  1.
          1    1    1    2  502    0 -0.99457858096E+02  0.15863198526E+03 -0.16840821937E+04  0.16944582637E+04  0.00000000000E+00 0. -1.
         22    1    1    2    0    0  0.33528864815E+02 -0.10798413412E+03  0.12585378762E+03  0.16918609238E+03  0.00000000000E+00 0.  1.
         22    1    1    2    0    0  0.60089406991E+02 -0.20493848030E+02 -0.92129109459E+01  0.64153038648E+02  0.00000000000E+00 0.  1.
</event>
<event>
 6    1  0.3624778E-005  0.1043576E+03  0.7818608E-02  0.1283573E+00
          2   -1    0    0  502    0  0.00000000000E+00  0.00000000000E+00  0.65722549373E+03  0.65722549373E+03  0.00000000000E+00 0.  1.
          1   -1    0    0  501    0 -0.00000000000E+00 -0.00000000000E+00 -0.18852361121E+03  0.18852361121E+03  0.00000000000E+00 0. -1.
          2    1    1    2  501    0 -0.29635136579E+02 -0.57552095812E+02  0.23566295250E+03  0.24439212801E+03  0.00000000000E+00 0.  1.
          1    1    1    2  502    0 -0.10253546106E+02  0.45010790876E+02 -0.17075658650E+03  0.17688673872E+03  0.00000000000E+00 0. -1.
         22    1    1    2    0    0  0.32681596003E+02 -0.54384351095E+02  0.18773305161E+03  0.19816519126E+03  0.00000000000E+00 0.  1.
         22    1    1    2    0    0  0.72070866824E+01  0.66925656031E+02  0.21606246491E+03  0.22630504696E+03  0.00000000000E+00 0.  1.
</event>
<event>
 6    1  0.3624778E-005  0.1991238E+03  0.7818608E-02  0.1233200E+00
          2   -1    0    0  502    0  0.00000000000E+00  0.00000000000E+00  0.25682558141E+03  0.25682558141E+03  0.00000000000E+00 0. -1.
          1   -1    0    0  501    0 -0.00000000000E+00 -0.00000000000E+00 -0.40727878859E+03  0.40727878859E+03  0.00000000000E+00 0. -1.
          2    1    1    2  501    0  0.84009419473E+02 -0.11060398524E+03 -0.28381407998E+03  0.31597667019E+03  0.00000000000E+00 0. -1.
          1    1    1    2  502    0 -0.10075802998E+03  0.13500146397E+03  0.14382531192E+03  0.22150236168E+03  0.00000000000E+00 0. -1.
         22    1    1    2    0    0  0.48865809679E+02 -0.25331731331E+02 -0.50906221164E+02  0.74973377415E+02  0.00000000000E+00 0.  1.
         22    1    1    2    0    0 -0.32117199175E+02  0.93425259828E+00  0.40441782045E+02  0.51651960715E+02  0.00000000000E+00 0. -1.
</event>
<event>
 6    1  0.3624778E-005  0.8974640E+02  0.7818608E-02  0.1324474E+00
          2   -1    0    0  502    0  0.00000000000E+00  0.00000000000E+00  0.31596499178E+03  0.31596499178E+03  0.00000000000E+00 0. -1.
          1   -1    0    0  501    0 -0.00000000000E+00 -0.00000000000E+00 -0.85468133723E+02  0.85468133723E+02  0.00000000000E+00 0. -1.
          2    1    1    2  501    0  0.33331264270E+02 -0.24338748134E+02 -0.36838172136E+02  0.55320870970E+02  0.00000000000E+00 0. -1.
          1    1    1    2  502    0 -0.23010245730E+02  0.11615612021E+01 -0.21426745943E+02  0.31463090673E+02  0.00000000000E+00 0. -1.
         22    1    1    2    0    0 -0.19363815059E+02  0.57775410512E+02  0.26451732193E+03  0.27144496495E+03  0.00000000000E+00 0. -1.
         22    1    1    2    0    0  0.90427965193E+01 -0.34598223579E+02  0.24244454196E+02  0.43204198905E+02  0.00000000000E+00 0. -1.
</event>
<event>
 6    1  0.3624778E-005  0.1640055E+03  0.7818608E-02  0.1287256E+00
          2   -1    0    0  502    0  0.00000000000E+00  0.00000000000E+00  0.80052068558E+02  0.80052068558E+02  0.00000000000E+00 0. -1.
          1   -1    0    0  501    0 -0.00000000000E+00 -0.00000000000E+00 -0.12353718460E+04  0.12353718460E+04  0.00000000000E+00 0. -1.
          2    1    1    2  501    0  0.57860742565E+02 -0.87698774631E+02 -0.11724718366E+03  0.15743520152E+03  0.00000000000E+00 0. -1.
          1    1    1    2  502    0 -0.23993834659E+02  0.11610308202E+03 -0.10147101762E+04  0.10216126328E+04  0.00000000000E+00 0. -1.
         22    1    1    2    0    0 -0.51252739550E+02 -0.38028776489E+02 -0.64470695327E+02  0.90716601064E+02  0.00000000000E+00 0.  1.
         22    1    1    2    0    0  0.17385831644E+02  0.96244691020E+01  0.41108277712E+02  0.45659479234E+02  0.00000000000E+00 0. -1.
</event>
<event>
 6    1  0.3624778E-005  0.4190543E+03  0.7818608E-02  0.1176797E+00
          2   -1    0    0  502    0  0.00000000000E+00  0.00000000000E+00  0.42999438590E+03  0.42999438590E+03  0.00000000000E+00 0. -1.
          1   -1    0    0  501    0 -0.00000000000E+00 -0.00000000000E+00 -0.47358694997E+03  0.47358694997E+03  0.00000000000E+00 0. -1.
          2    1    1    2  501    0 -0.84021604308E+01  0.30814334254E+03 -0.15013625075E+03  0.34287579331E+03  0.00000000000E+00 0. -1.
          1    1    1    2  502    0 -0.79937072366E+02 -0.30496405285E+03  0.20728374755E+03  0.37730566000E+03  0.00000000000E+00 0. -1.
         22    1    1    2    0    0 -0.60468361211E+01  0.99254426048E+01  0.23858765781E+02  0.26539015479E+02  0.00000000000E+00 0. -1.
         22    1    1    2    0    0  0.94386068918E+02 -0.13104732285E+02 -0.12459882666E+03  0.15686086707E+03  0.00000000000E+00 0. -1.
</event>
<event>
 6    1  0.3624778E-005  0.1999432E+03  0.7818608E-02  0.1227724E+00
          2   -1    0    0  502    0  0.00000000000E+00  0.00000000000E+00  0.85045212320E+02  0.85045212320E+02  0.00000000000E+00 0. -1.
          1   -1    0    0  501    0 -0.00000000000E+00 -0.00000000000E+00 -0.46614990834E+03  0.46614990834E+03  0.00000000000E+00 0. -1.
          2    1    1    2  501    0 -0.18733172424E+02  0.20315721714E+02 -0.19854777958E+03  0.20046166984E+03  0.00000000000E+00 0. -1.
          1    1    1    2  502    0 -0.45813479444E+02 -0.28554149205E+02 -0.20160223083E+03  0.20870475273E+03  0.00000000000E+00 0. -1.
         22    1    1    2    0    0  0.92720788921E+02 -0.13414337874E+02 -0.12495938606E+02  0.94515806299E+02  0.00000000000E+00 0. -1.
         22    1    1    2    0    0 -0.28174137052E+02  0.21652765365E+02  0.31541252994E+02  0.47512891798E+02  0.00000000000E+00 0. -1.
</event>
<event>
 6    1  0.3624778E-005  0.3398789E+03  0.7818608E-02  0.1162213E+00
          2   -1    0    0  502    0  0.00000000000E+00  0.00000000000E+00  0.49216396548E+03  0.49216396548E+03  0.00000000000E+00 0.  1.
          1   -1    0    0  501    0 -0.00000000000E+00 -0.00000000000E+00 -0.12265573826E+04  0.12265573826E+04  0.00000000000E+00 0. -1.
          2    1    1    2  501    0 -0.14213512360E+03 -0.11605936797E+03  0.28783274586E+03  0.34135005470E+03  0.00000000000E+00 0.  1.
          1    1    1    2  502    0  0.26089676124E+03  0.14484818346E+03 -0.11339132465E+04  0.11725217980E+04  0.00000000000E+00 0. -1.
         22    1    1    2    0    0 -0.13202353526E+03 -0.14133314596E+01  0.60334004475E+02  0.14516336819E+03  0.00000000000E+00 0.  1.
         22    1    1    2    0    0  0.13261897624E+02 -0.27375484037E+02  0.51353079008E+02  0.59686127186E+02  0.00000000000E+00 0. -1.
</event>
<event>
 6    1  0.3624778E-005  0.3698876E+03  0.7818608E-02  0.1143263E+00
          2   -1    0    0  502    0  0.00000000000E+00  0.00000000000E+00  0.33931613533E+03  0.33931613533E+03  0.00000000000E+00 0. -1.
          1   -1    0    0  501    0 -0.00000000000E+00 -0.00000000000E+00 -0.49613977897E+03  0.49613977897E+03  0.00000000000E+00 0. -1.
          2    1    1    2  501    0 -0.52887235067E+02  0.71308215739E+02 -0.11068777220E+03  0.14189328448E+03  0.00000000000E+00 0. -1.
          1    1    1    2  502    0 -0.99587528666E+01 -0.24912061962E+02 -0.35172213951E+03  0.35274388869E+03  0.00000000000E+00 0. -1.
         22    1    1    2    0    0 -0.35352994180E+02  0.10301743318E+02  0.89724720479E+02  0.96987038195E+02  0.00000000000E+00 0. -1.
         22    1    1    2    0    0  0.98198982113E+02 -0.56697897095E+02  0.21586154759E+03  0.24383170293E+03  0.00000000000E+00 0. -1.
</event>
<event>
 6    1  0.3624778E-005  0.1481782E+03  0.7818608E-02  0.1203687E+00
          2   -1    0    0  502    0  0.00000000000E+00  0.00000000000E+00  0.37721903775E+03  0.37721903775E+03  0.00000000000E+00 0.  1.
          1   -1    0    0  501    0 -0.00000000000E+00 -0.00000000000E+00 -0.10265286899E+03  0.10265286899E+03  0.00000000000E+00 0.  1.
          2    1    1    2  501    0  0.13598626184E+03  0.30904103072E+02  0.19759559147E+03  0.24184983929E+03  0.00000000000E+00 0.  1.
          1    1    1    2  502    0 -0.66160356949E+02  0.59419705792E+01 -0.65058087056E+01  0.66744478370E+02  0.00000000000E+00 0.  1.
         22    1    1    2    0    0 -0.10548577060E+03 -0.32651912770E+02  0.46739545255E+02  0.11990821614E+03  0.00000000000E+00 0.  1.
         22    1    1    2    0    0  0.35659865710E+02 -0.41941608809E+01  0.36736840753E+02  0.51369372942E+02  0.00000000000E+00 0.  1.
</event>
<event>
 6    1  0.3624778E-005  0.2369636E+03  0.7818608E-02  0.1209519E+00
          2   -1    0    0  502    0  0.00000000000E+00  0.00000000000E+00  0.40285422804E+03  0.40285422804E+03  0.00000000000E+00 0. -1.
          1   -1    0    0  501    0 -0.00000000000E+00 -0.00000000000E+00 -0.42196453613E+03  0.42196453613E+03  0.00000000000E+00 0. -1.
          2    1    1    2  501    0 -0.59258577026E+02 -0.81283851619E+02  0.10534198166E+03  0.14565567818E+03  0.00000000000E+00 0. -1.
          1    1    1    2  502    0 -0.53685466339E+02 -0.14865151551E+02 -0.36551551757E+03  0.36973598095E+03  0.00000000000E+00 0. -1.
         22    1    1    2    0    0  0.30871062839E+02 -0.52384496361E+01  0.14259092991E+03  0.14598848300E+03  0.00000000000E+00 0.  1.
         22    1    1    2    0    0  0.82072980525E+02  0.10138745281E+03  0.98472297909E+02  0.16343862204E+03  0.00000000000E+00 0. -1.
</event>
<event>
 6    1  0.3624778E-005  0.2060532E+03  0.7818608E-02  0.1145688E+00
          2   -1    0    0  502    0  0.00000000000E+00  0.00000000000E+00  0.74185706299E+03  0.74185706299E+03  0.00000000000E+00 0.  1.
          1   -1    0    0  501    0 -0.00000000000E+00 -0.00000000000E+00 -0.97780784893E+03  0.97780784893E+03  0.00000000000E+00 0. -1.
          2    1    1    2  501    0 -0.90202910555E+02 -0.20920343849E+03  0.10996239408E+03  0.25297108898E+03  0.00000000000E+00 0.  1.
          1    1    1    2  502    0  0.54947093938E+02  0.29525741752E+02 -0.88369324996E+03  0.88589204341E+03  0.00000000000E+00 0. -1.
         22    1    1    2    0    0  0.52517637334E+01 -0.12219133494E+02  0.58666502951E+01  0.14536362384E+02  0.00000000000E+00 0. -1.
         22    1    1    2    0    0  0.30004052884E+02  0.19189683023E+03  0.53191341965E+03  0.56626541714E+03  0.00000000000E+00 0.  1.
</event>
<event>
 6    1  0.3624778E-005  0.4902145E+02  0.7818608E-02  0.1466851E+00
          2   -1    0    0  502    0  0.00000000000E+00  0.00000000000E+00  0.38398680772E+02  0.38398680772E+02  0.00000000000E+00 0.  1.
          1   -1    0    0  501    0 -0.00000000000E+00 -0.00000000000E+00 -0.30028112129E+03  0.30028112129E+03  0.00000000000E+00 0. -1.
          2    1    1    2  501    0 -0.62603817434E+01  0.20190347136E+02 -0.12865733359E+03  0.13038233003E+03  0.00000000000E+00 0.  1.
          1    1    1    2  502    0 -0.15654654564E+02 -0.20236118306E+02 -0.45920139099E+02  0.52566413883E+02  0.00000000000E+00 0. -1.
         22    1    1    2    0    0  0.38831052647E+02  0.80211973318E+01  0.21654244091E+02  0.45178496472E+02  0.00000000000E+00 0.  1.
         22    1    1    2    0    0 -0.16916016340E+02 -0.79754261609E+01 -0.10895921192E+03  0.11055256168E+03  0.00000000000E+00 0. -1.
</event>
<event>
 6    1  0.3624778E-005  0.1065044E+03  0.7818608E-02  0.1392362E+00
          2   -1    0    0  502    0  0.00000000000E+00  0.00000000000E+00  0.31060441146E+02  0.31060441146E+02  0.00000000000E+00 0. -1.
          1   -1    0    0  501    0 -0.00000000000E+00 -0.00000000000E+00 -0.50948823048E+03  0.50948823048E+03  0.00000000000E+00 0. -1.
          2    1    1    2  501    0 -0.40852010568E+02 -0.16278625163E+02 -0.60716741845E+02  0.74969348035E+02  0.00000000000E+00 0. -1.
          1    1    1    2  502    0  0.61140174990E+01  0.44321005874E+02 -0.23936958556E+03  0.24351495080E+03  0.00000000000E+00 0. -1.
         22    1    1    2    0    0  0.44668777660E+02 -0.34239196987E+02 -0.19429199690E+03  0.20227951544E+03  0.00000000000E+00 0. -1.
         22    1    1    2    0    0 -0.99307845917E+01  0.61968162753E+01  0.15950534969E+02  0.19784857350E+02  0.00000000000E+00 0. -1.
</event>
<event>
 6    1  0.3624778E-005  0.9618913E+02  0.7818608E-02  0.1291845E+00
          2   -1    0    0  502    0  0.00000000000E+00  0.00000000000E+00  0.19132781828E+03  0.19132781828E+03  0.00000000000E+00 0.  1.
          1   -1    0    0  501    0 -0.00000000000E+00 -0.00000000000E+00 -0.36218319394E+03  0.36218319394E+03  0.00000000000E+00 0. -1.
          2    1    1    2  501    0  0.49816088458E+02 -0.39877186748E+01 -0.29145324612E+01  0.50060354264E+02  0.00000000000E+00 0.  1.
          1    1    1    2  502    0  0.65158843180E+01 -0.34318366881E+02 -0.30427262410E+03  0.30627118184E+03  0.00000000000E+00 0. -1.
         22    1    1    2    0    0 -0.91852575601E+02  0.17520289967E+02  0.12175442826E+03  0.15351871875E+03  0.00000000000E+00 0.  1.
         22    1    1    2    0    0  0.35520602825E+02  0.20785795588E+02  0.14577352635E+02  0.43660757358E+02  0.00000000000E+00 0. -1.
</event>
<event>
 6    1  0.3624778E-005  0.1211522E+03  0.7818608E-02  0.1288522E+00
          2   -1    0    0  502    0  0.00000000000E+00  0.00000000000E+00  0.41110751131E+03  0.41110751131E+03  0.00000000000E+00 0. -1.
          1   -1    0    0  501    0 -0.00000000000E+00 -0.00000000000E+00 -0.34702795450E+03  0.34702795450E+03  0.00000000000E+00 0.  1.
          2    1    1    2  501    0  0.52367580460E+02  0.55093893641E+02  0.19118505868E+03  0.20574116570E+03  0.00000000000E+00 0. -1.
          1    1    1    2  502    0 -0.49415353232E+02 -0.37358979481E+02 -0.31782951701E+03  0.32381039570E+03  0.00000000000E+00 0.  1.
         22    1    1    2    0    0 -0.43233946058E+02  0.86223463288E+01  0.17094877158E+03  0.17654178387E+03  0.00000000000E+00 0.  1.
         22    1    1    2    0    0  0.40281718830E+02 -0.26357260489E+02  0.19775243560E+02  0.52042120539E+02  0.00000000000E+00 0. -1.
</event>
<event>
 6    1  0.3624778E-005  0.6934218E+02  0.7818608E-02  0.1436693E+00
          2   -1    0    0  502    0  0.00000000000E+00  0.00000000000E+00  0.53939906828E+02  0.53939906828E+02  0.00000000000E+00 0.  1.
          1   -1    0    0  501    0 -0.00000000000E+00 -0.00000000000E+00 -0.36466852708E+03  0.36466852708E+03  0.00000000000E+00 0. -1.
          2    1    1    2  501    0 -0.12481179766E+02 -0.20885445554E+02 -0.22616487446E+02  0.33218777652E+02  0.00000000000E+00 0.  1.
          1    1    1    2  502    0  0.20696280585E+02 -0.55850575166E+01 -0.24991242566E+03  0.25083012059E+03  0.00000000000E+00 0. -1.
         22    1    1    2    0    0  0.49539432415E+01  0.43489558764E+02 -0.77927026060E+02  0.89378435126E+02  0.00000000000E+00 0.  1.
         22    1    1    2    0    0 -0.13169044061E+02 -0.17019055694E+02  0.39727318910E+02  0.45181100539E+02  0.00000000000E+00 0.  1.
</event>
<event>
 6    1  0.3624778E-005  0.8201557E+02  0.7818608E-02  0.1362449E+00
          2   -1    0    0  502    0  0.00000000000E+00  0.00000000000E+00  0.16575016224E+03  0.16575016224E+03  0.00000000000E+00 0. -1.
          1   -1    0    0  501    0 -0.00000000000E+00 -0.00000000000E+00 -0.75429538042E+03  0.75429538042E+03  0.00000000000E+00 0. -1.
          2    1    1    2  501    0 -0.29447494060E+02  0.96976372717E+01  0.20888509771E+02  0.37383538028E+02  0.00000000000E+00 0. -1.
          1    1    1    2  502    0  0.72754185033E+02 -0.16366438863E+02 -0.71023704592E+03  0.71414122774E+03  0.00000000000E+00 0. -1.
         22    1    1    2    0    0 -0.77714596351E+02 -0.17127904095E+02  0.98489088749E+02  0.12662157868E+03  0.00000000000E+00 0. -1.
         22    1    1    2    0    0  0.34407905378E+02  0.23796705686E+02  0.23142292170E+01  0.41899198213E+02  0.00000000000E+00 0.  1.
</event>
<event>
 6    1  0.3624778E-005  0.1782344E+03  0.7818608E-02  0.1190239E+00
          2   -1    0    0  502    0  0.00000000000E+00  0.00000000000E+00  0.14572009723E+03  0.14572009723E+03  0.00000000000E+00 0.  1.
          1   -1    0    0  501    0 -0.00000000000E+00 -0.00000000000E+00 -0.59538344447E+03  0.59538344447E+03  0.00000000000E+00 0.  1.
          2    1    1    2  501    0  0.13949632194E+03 -0.90365517184E+02 -0.18543992786E+03  0.24902433089E+03  0.00000000000E+00 0.  1.
          1    1    1    2  502    0 -0.48230304428E+02  0.16610124333E+03 -0.27211154563E+03  0.32242902873E+03  0.00000000000E+00 0.  1.
         22    1    1    2    0    0 -0.10161829525E+03 -0.46772544490E+02  0.45758667697E+02  0.12086275074E+03  0.00000000000E+00 0.  1.
         22    1    1    2    0    0  0.10352277734E+02 -0.28963181661E+02 -0.37870541445E+02  0.48787431327E+02  0.00000000000E+00 0.  1.
</event>
<event>
 6    1  0.3624778E-005  0.1428364E+03  0.7818608E-02  0.1215360E+00
          2   -1    0    0  502    0  0.00000000000E+00  0.00000000000E+00  0.12509009661E+03  0.12509009661E+03  0.00000000000E+00 0.  1.
          1   -1    0    0  501    0 -0.00000000000E+00 -0.00000000000E+00 -0.19812379379E+03  0.19812379379E+03  0.00000000000E+00 0.  1.
          2    1    1    2  501    0  0.66171277243E+02  0.39623102344E+02 -0.89113363952E+02  0.11785507968E+03  0.00000000000E+00 0.  1.
          1    1    1    2  502    0  0.25371830669E+02  0.21273171179E+02 -0.81205909972E+01  0.34091371367E+02  0.00000000000E+00 0.  1.
         22    1    1    2    0    0  0.11320087340E+02  0.30129160602E+02  0.39328831543E+01  0.32424963621E+02  0.00000000000E+00 0. -1.
         22    1    1    2    0    0 -0.10286319525E+03 -0.91025434125E+02  0.20267374613E+02  0.13884247574E+03  0.00000000000E+00 0.  1.
</event>
<event>
 6    1  0.3624778E-005  0.8017023E+02  0.7818608E-02  0.1335751E+00
          2   -1    0    0  502    0  0.00000000000E+00  0.00000000000E+00  0.61296048997E+03  0.61296048997E+03  0.00000000000E+00 0. -1.
          1   -1    0    0  501    0 -0.00000000000E+00 -0.00000000000E+00 -0.48734025476E+02  0.48734025476E+02  0.00000000000E+00 0. -1.
          2    1    1    2  501    0  0.15235410392E+02 -0.22686228886E+02  0.11727914837E+03  0.12042085099E+03  0.00000000000E+00 0. -1.
          1    1    1    2  502    0 -0.41796779562E+02 -0.14411007156E+02 -0.25596548089E+02  0.51086506859E+02  0.00000000000E+00 0. -1.
         22    1    1    2    0    0  0.69146077424E+02 -0.62040617252E+01  0.26459728974E+03  0.27355327843E+03  0.00000000000E+00 0. -1.
         22    1    1    2    0    0 -0.42584708254E+02  0.43301297767E+02  0.20794657448E+03  0.21663387917E+03  0.00000000000E+00 0. -1.
</event>
<event>
 6    1  0.3624778E-005  0.1926373E+03  0.7818608E-02  0.1213526E+00
          2   -1    0    0  502    0  0.00000000000E+00  0.00000000000E+00  0.16812140417E+03  0.16812140417E+03  0.00000000000E+00 0.  1.
          1   -1    0    0  501    0 -0.00000000000E+00 -0.00000000000E+00 -0.66523453119E+03  0.66523453119E+03  0.00000000000E+00 0.  1.
          2    1    1    2  501    0  0.16266946262E+02 -0.63881787556E+02 -0.48572026506E+02  0.81882465039E+02  0.00000000000E+00 0.  1.
          1    1    1    2  502    0  0.25160436854E+02  0.11249508902E+03 -0.56028246762E+03  0.57201803831E+03  0.00000000000E+00 0.  1.
         22    1    1    2    0    0  0.11450617020E+02 -0.56846045803E+02  0.11179616386E+03  0.12594035020E+03  0.00000000000E+00 0.  1.
         22    1    1    2    0    0 -0.52878000136E+02  0.82327443373E+01 -0.54796755098E-01  0.53515081803E+02  0.00000000000E+00 0. -1.
</event>
<event>
 6    1  0.3624778E-005  0.2923674E+03  0.7818608E-02  0.1196874E+00
          2   -1    0    0  502    0  0.00000000000E+00  0.00000000000E+00  0.43395109679E+02  0.43395109679E+02  0.00000000000E+00 0.  1.
          1   -1    0    0  501    0 -0.00000000000E+00 -0.00000000000E+00 -0.19041075875E+04  0.19041075875E+04  0.00000000000E+00 0. -1.
          2    1    1    2  501    0 -0.79317424404E+02  0.14662522176E+03 -0.28525969346E+03  0.33039870185E+03  0.00000000000E+00 0.  1.
          1    1    1    2  502    0  0.14129040844E+03 -0.79409139502E+02 -0.11947378955E+04  0.12056813136E+04  0.00000000000E+00 0. -1.
         22    1    1    2    0    0 -0.86068541494E+01  0.20146704329E+02 -0.56324274875E+01  0.22620607266E+02  0.00000000000E+00 0. -1.
         22    1    1    2    0    0 -0.53366129884E+02 -0.87362786588E+02 -0.37508246136E+03  0.38880207448E+03  0.00000000000E+00 0. -1.
</event>
<event>
 6    1  0.3624778E-005  0.7374250E+02  0.7818608E-02  0.1351630E+00
          2   -1    0    0  502    0  0.00000000000E+00  0.00000000000E+00  0.26536711833E+03  0.26536711833E+03  0.00000000000E+00 0. -1.
          1   -1    0    0  501    0 -0.00000000000E+00 -0.00000000000E+00 -0.13792346340E+03  0.13792346340E+03  0.00000000000E+00 0. -1.
          2    1    1    2  501    0  0.48719305473E+02  0.65599912509E+01  0.52684917955E+02  0.72057649080E+02  0.00000000000E+00 0. -1.
          1    1    1    2  502    0 -0.44122311043E+02 -0.30772039479E+02 -0.10133946294E+03  0.11473178938E+03  0.00000000000E+00 0. -1.
         22    1    1    2    0    0  0.47228764278E+02 -0.13552906732E+02  0.31616240065E+02  0.58427939310E+02  0.00000000000E+00 0. -1.
         22    1    1    2    0    0 -0.51825758709E+02  0.37764954961E+02  0.14448195985E+03  0.15807320396E+03  0.00000000000E+00 0. -1.
</event>
<event>
 6    1  0.3624778E-005  0.1643217E+03  0.7818608E-02  0.1198878E+00
          2   -1    0    0  502    0  0.00000000000E+00  0.00000000000E+00  0.41383377132E+03  0.41383377132E+03  0.00000000000E+00 0.  1.
          1   -1    0    0  501    0 -0.00000000000E+00 -0.00000000000E+00 -0.19766719259E+03  0.19766719259E+03  0.00000000000E+00 0.  1.
          2    1    1    2  501    0 -0.13385240397E+02  0.11945520179E+03  0.10406748602E+03  0.15899292921E+03  0.00000000000E+00 0.  1.
          1    1    1    2  502    0  0.10657778998E+03 -0.12125736028E+03 -0.10018177169E+03  0.18999621080E+03  0.00000000000E+00 0.  1.
         22    1    1    2    0    0 -0.11530736800E+03 -0.25635029995E+02  0.14969914978E+03  0.19069027065E+03  0.00000000000E+00 0.  1.
         22    1    1    2    0    0  0.22114818417E+02  0.27437188488E+02  0.62581714622E+02  0.71821553246E+02  0.00000000000E+00 0. -1.
</event>
<event>
 6    1  0.3624778E-005  0.1301119E+03  0.7818608E-02  0.1235675E+00
          2   -1    0    0  502    0  0.00000000000E+00  0.00000000000E+00  0.16234385623E+03  0.16234385623E+03  0.00000000000E+00 0.  1.
          1   -1    0    0  501    0 -0.00000000000E+00 -0.00000000000E+00 -0.29135787092E+03  0.29135787092E+03  0.00000000000E+00 0.  1.
          2    1    1    2  501    0 -0.99062467314E+02 -0.52695507404E+01 -0.22654511101E+02  0.10175641242E+03  0.00000000000E+00 0.  1.
          1    1    1    2  502    0  0.34311152919E+02  0.93705146406E+01 -0.18453499401E+03  0.18793143903E+03  0.00000000000E+00 0.  1.
         22    1    1    2    0    0 -0.30605843042E+02 -0.32540177370E+02  0.23602578888E+02  0.50523880510E+02  0.00000000000E+00 0.  1.
         22    1    1    2    0    0  0.95357157437E+02  0.28439213470E+02  0.54572911529E+02  0.11348999520E+03  0.00000000000E+00 0.  1.
</event>
<event>
 6    1  0.3624778E-005  0.2942225E+03  0.7818608E-02  0.1170068E+00
          2   -1    0    0  502    0  0.00000000000E+00  0.00000000000E+00  0.32786536244E+03  0.32786536244E+03  0.00000000000E+00 0. -1.
          1   -1    0    0  501    0 -0.00000000000E+00 -0.00000000000E+00 -0.41454263193E+03  0.41454263193E+03  0.00000000000E+00 0. -1.
          2    1    1    2  501    0 -0.98439608863E+02  0.10966525329E+02 -0.38468813934E+02  0.10625662763E+03  0.00000000000E+00 0. -1.
          1    1    1    2  502    0 -0.15507147873E+02 -0.14097265860E+02 -0.31837963451E+03  0.31906863871E+03  0.00000000000E+00 0. -1.
         22    1    1    2    0    0 -0.49672147228E+01  0.39345400461E+02  0.88214001628E+02  0.96718373863E+02  0.00000000000E+00 0. -1.
         22    1    1    2    0    0  0.11891397146E+03 -0.36214659930E+02  0.18195717733E+03  0.22036435416E+03  0.00000000000E+00 0. -1.
</event>
<event>
 6    1  0.3624778E-005  0.8218855E+02  0.7818608E-02  0.1366080E+00
          2   -1    0    0  502    0  0.00000000000E+00  0.00000000000E+00  0.26088565416E+03  0.26088565416E+03  0.00000000000E+00 0. -1.
          1   -1    0    0  501    0 -0.00000000000E+00 -0.00000000000E+00 -0.28174988951E+03  0.28174988951E+03  0.00000000000E+00 0. -1.
          2    1    1    2  501    0  0.39464906531E+02 -0.34848160897E+02 -0.86176256250E+00  0.52655634077E+02  0.00000000000E+00 0. -1.
          1    1    1    2  502    0 -0.22744331994E+02  0.16065935968E+02 -0.23552332625E+03  0.23716377494E+03  0.00000000000E+00 0. -1.
         22    1    1    2    0    0 -0.32282757480E+02 -0.16861806475E+02  0.27555069455E+01  0.36525193587E+02  0.00000000000E+00 0. -1.
         22    1    1    2    0    0  0.15562182943E+02  0.35644031403E+02  0.21276534651E+03  0.21629094107E+03  0.00000000000E+00 0. -1.
</event>
<event>
 6    1  0.3624778E-005  0.1451100E+03  0.7818608E-02  0.1269743E+00
          2   -1    0    0  502    0  0.00000000000E+00  0.00000000000E+00  0.79514837377E+03  0.79514837377E+03  0.00000000000E+00 0.  1.
          1   -1    0    0  501    0 -0.00000000000E+00 -0.00000000000E+00 -0.33682074834E+03  0.33682074834E+03  0.00000000000E+00 0.  1.
          2    1    1    2  501    0  0.27794121165E+02 -0.34289262255E+02  0.76718406921E+02  0.88509777075E+02  0.00000000000E+00 0.  1.
          1    1    1    2  502    0 -0.11090696370E+03  0.38079168255E+02 -0.31230379142E+03  0.33359261950E+03  0.00000000000E+00 0.  1.
         22    1    1    2    0    0  0.93282270789E+02 -0.42548659086E+02  0.58278581413E+03  0.59173581571E+03  0.00000000000E+00 0.  1.
         22    1    1    2    0    0 -0.10169428254E+02  0.38758753086E+02  0.11112719580E+03  0.11813090983E+03  0.00000000000E+00 0.  1.
</event>
<event>
 6    1  0.3624778E-005  0.2005204E+03  0.7818608E-02  0.1219256E+00
          2   -1    0    0  502    0  0.00000000000E+00  0.00000000000E+00  0.48567997639E+03  0.48567997639E+03  0.00000000000E+00 0.  1.
          1   -1    0    0  501    0 -0.00000000000E+00 -0.00000000000E+00 -0.19874555214E+03  0.19874555214E+03  0.00000000000E+00 0.  1.
          2    1    1    2  501    0 -0.27087348933E+02 -0.75458547252E+01 -0.14884929308E+00  0.28119149202E+02  0.00000000000E+00 0.  1.
          1    1    1    2  502    0 -0.39149299021E+02  0.12594413701E+03 -0.13945069732E+03  0.19194032991E+03  0.00000000000E+00 0.  1.
         22    1    1    2    0    0  0.40793429594E+02 -0.10155090867E+02  0.27753366420E+02  0.50373396909E+02  0.00000000000E+00 0. -1.
         22    1    1    2    0    0  0.25443218359E+02 -0.10824319142E+03  0.39878060444E+03  0.41399265250E+03  0.00000000000E+00 0.  1.
</event>
<event>
 6    1  0.3624778E-005  0.1883151E+03  0.7818608E-02  0.1295493E+00
          2   -1    0    0  502    0  0.00000000000E+00  0.00000000000E+00  0.45702294029E+02  0.45702294029E+02  0.00000000000E+00 0. -1.
          1   -1    0    0  501    0 -0.00000000000E+00 -0.00000000000E+00 -0.13285752042E+04  0.13285752042E+04  0.00000000000E+00 0.  1.
          2    1    1    2  501    0 -0.94705993902E+02 -0.10086702136E+02 -0.13943521862E+03  0.16885836383E+03  0.00000000000E+00 0. -1.
          1    1    1    2  502    0  0.91079797008E+01 -0.36399136883E+02 -0.97734000568E+03  0.97805998751E+03  0.00000000000E+00 0.  1.
         22    1    1    2    0    0  0.82003520036E+02  0.35821348773E+02 -0.18491712402E+03  0.20543147052E+03  0.00000000000E+00 0. -1.
         22    1    1    2    0    0  0.35944941658E+01  0.10664490246E+02  0.18819438130E+02  0.21927676394E+02  0.00000000000E+00 0. -1.
</event>
<event>
 6    1  0.3624778E-005  0.2657552E+03  0.7818608E-02  0.1194614E+00
          2   -1    0    0  502    0  0.00000000000E+00  0.00000000000E+00  0.16147478027E+03  0.16147478027E+03  0.00000000000E+00 0. -1.
          1   -1    0    0  501    0 -0.00000000000E+00 -0.00000000000E+00 -0.35780164515E+03  0.35780164515E+03  0.00000000000E+00 0.  1.
          2    1    1    2  501    0  0.16357720990E+03 -0.28312952030E+02 -0.10366562581E+03  0.19571839164E+03  0.00000000000E+00 0. -1.
          1    1    1    2  502    0 -0.72874683113E+02  0.32131971136E+02 -0.14218778209E+03  0.16297407274E+03  0.00000000000E+00 0.  1.
         22    1    1    2    0    0 -0.90153752175E+02 -0.34462858211E+02 -0.64866114883E+01  0.96733984493E+02  0.00000000000E+00 0. -1.
         22    1    1    2    0    0 -0.54877461364E+00  0.30643839104E+02  0.56013154505E+02  0.63849976556E+02  0.00000000000E+00 0. -1.
</event>
<event>
 6    1  0.3624778E-005  0.1474737E+03  0.7818608E-02  0.1315721E+00
          2   -1    0    0  502    0  0.00000000000E+00  0.00000000000E+00  0.42566333052E+02  0.42566333052E+02  0.00000000000E+00 0. -1.
          1   -1    0    0  501    0 -0.00000000000E+00 -0.00000000000E+00 -0.12184265033E+04  0.12184265033E+04  0.00000000000E+00 0. -1.
          2    1    1    2  501    0 -0.38761533078E+02  0.18092522610E+02 -0.64404615532E+03  0.64546513926E+03  0.00000000000E+00 0. -1.
          1    1    1    2  502    0 -0.51921493951E+02 -0.41662302400E+01  0.88670904265E+01  0.52837716654E+02  0.00000000000E+00 0. -1.
         22    1    1    2    0    0  0.86703709639E+02 -0.29620753033E+02 -0.53863258601E+03  0.54636982438E+03  0.00000000000E+00 0. -1.
         22    1    1    2    0    0  0.39793173902E+01  0.15694460663E+02 -0.20485193473E+01  0.16320156063E+02  0.00000000000E+00 0.  1.
</event>
<event>
 6    1  0.3624778E-005  0.1522935E+03  0.7818608E-02  0.1244982E+00
          2   -1    0    0  502    0  0.00000000000E+00  0.00000000000E+00  0.47022564330E+03  0.47022564330E+03  0.00000000000E+00 0. -1.
          1   -1    0    0  501    0 -0.00000000000E+00 -0.00000000000E+00 -0.10778439772E+03  0.10778439772E+03  0.00000000000E+00 0. -1.
          2    1    1    2  501    0  0.19506881579E+02 -0.25064207617E+02 -0.50261146539E+00  0.31764532905E+02  0.00000000000E+00 0. -1.
          1    1    1    2  502    0 -0.23590480791E+02  0.17597659353E+02 -0.80375998172E+02  0.85594915040E+02  0.00000000000E+00 0. -1.
         22    1    1    2    0    0 -0.21552270718E+02 -0.53498018492E+02  0.17312770234E+03  0.18248216262E+03  0.00000000000E+00 0. -1.
         22    1    1    2    0    0  0.25635869929E+02  0.60964566755E+02  0.27019215287E+03  0.27816843045E+03  0.00000000000E+00 0. -1.
</event>
<event>
 6    1  0.3624778E-005  0.1142381E+03  0.7818608E-02  0.1255863E+00
          2   -1    0    0  502    0  0.00000000000E+00  0.00000000000E+00  0.31899265238E+02  0.31899265238E+02  0.00000000000E+00 0. -1.
          1   -1    0    0  501    0 -0.00000000000E+00 -0.00000000000E+00 -0.13739355378E+04  0.13739355378E+04  0.00000000000E+00 0. -1.
          2    1    1    2  501    0 -0.25954080333E+02  0.77260257785E+02 -0.13047117283E+03  0.15383591472E+03  0.00000000000E+00 0. -1.
          1    1    1    2  502    0 -0.19943261319E+02 -0.16787819740E+02 -0.96183342877E+03  0.96218662912E+03  0.00000000000E+00 0. -1.
         22    1    1    2    0    0 -0.17454838990E+02  0.24216686189E+02 -0.17430074411E+02  0.34567713088E+02  0.00000000000E+00 0.  1.
         22    1    1    2    0    0  0.63352180642E+02 -0.84689124235E+02 -0.23230159654E+03  0.25524454610E+03  0.00000000000E+00 0. -1.
</event>
<event>
 6    1  0.3624778E-005  0.4631106E+02  0.7818608E-02  0.1495717E+00
          2   -1    0    0  502    0  0.00000000000E+00  0.00000000000E+00  0.53853238650E+02  0.53853238650E+02  0.00000000000E+00 0. -1.
          1   -1    0    0  501    0 -0.00000000000E+00 -0.00000000000E+00 -0.15575970890E+04  0.15575970890E+04  0.00000000000E+00 0.  1.
          2    1    1    2  501    0  0.27185348216E+02  0.94554509642E+01 -0.52308019334E+02  0.59704083589E+02  0.00000000000E+00 0. -1.
          1    1    1    2  502    0 -0.30447279342E+02 -0.51593195222E+01 -0.14246256551E+04  0.14249603196E+04  0.00000000000E+00 0.  1.
         22    1    1    2    0    0 -0.16907512152E+01  0.25888701398E+02 -0.69548057875E+02  0.74229481029E+02  0.00000000000E+00 0. -1.
         22    1    1    2    0    0  0.49526823413E+01 -0.30184832840E+02  0.42737881911E+02  0.52556443432E+02  0.00000000000E+00 0. -1.
</event>
<event>
 6    1  0.3624778E-005  0.3103548E+03  0.7818608E-02  0.1154265E+00
          2   -1    0    0  502    0  0.00000000000E+00  0.00000000000E+00  0.17818415124E+03  0.17818415124E+03  0.00000000000E+00 0.  1.
          1   -1    0    0  501    0 -0.00000000000E+00 -0.00000000000E+00 -0.73256611012E+03  0.73256611012E+03  0.00000000000E+00 0.  1.
          2    1    1    2  501    0  0.17566423548E+03 -0.22680308410E+02 -0.25949735559E+03  0.31418338207E+03  0.00000000000E+00 0.  1.
          1    1    1    2  502    0 -0.31353147577E+03 -0.15315924830E+02 -0.24378689523E+03  0.39745265647E+03  0.00000000000E+00 0.  1.
         22    1    1    2    0    0  0.11570800674E+03 -0.46947859817E+01 -0.82042627445E+02  0.14192031764E+03  0.00000000000E+00 0.  1.
         22    1    1    2    0    0  0.22159233551E+02  0.42691019221E+02  0.30944919374E+02  0.57193905172E+02  0.00000000000E+00 0. -1.
</event>
<event>
 6    1  0.3624778E-005  0.5573208E+02  0.7818608E-02  0.1430351E+00
          2   -1    0    0  502    0  0.00000000000E+00  0.00000000000E+00  0.11658925398E+03  0.11658925398E+03  0.00000000000E+00 0.  1.
          1   -1    0    0  501    0 -0.00000000000E+00 -0.00000000000E+00 -0.16349092891E+03  0.16349092891E+03  0.00000000000E+00 0.  1.
          2    1    1    2  501    0  0.26029789029E+02 -0.71178404854E+01 -0.17536022790E+02  0.32182692016E+02  0.00000000000E+00 0.  1.
          1    1    1    2  502    0 -0.15809312201E+02 -0.16708454782E+02 -0.10162849650E+03  0.10419912723E+03  0.00000000000E+00 0.  1.
         22    1    1    2    0    0 -0.84813540911E+01  0.45543527565E+02  0.98943876102E+02  0.10925217109E+03  0.00000000000E+00 0.  1.
         22    1    1    2    0    0 -0.17391227372E+01 -0.21717232298E+02 -0.26681031744E+02  0.34446192554E+02  0.00000000000E+00 0.  1.
</event>
<event>
 6    1  0.3624778E-005  0.1510879E+03  0.7818608E-02  0.1293735E+00
          2   -1    0    0  502    0  0.00000000000E+00  0.00000000000E+00  0.11821312279E+03  0.11821312279E+03  0.00000000000E+00 0. -1.
          1   -1    0    0  501    0 -0.00000000000E+00 -0.00000000000E+00 -0.37529494844E+03  0.37529494844E+03  0.00000000000E+00 0. -1.
          2    1    1    2  501    0  0.82289228596E+00 -0.67615593515E+02 -0.95450268068E+02  0.11697563555E+03  0.00000000000E+00 0. -1.
          1    1    1    2  502    0 -0.32851022835E+02  0.14965172548E+03 -0.15748938204E+03  0.21972194723E+03  0.00000000000E+00 0. -1.
         22    1    1    2    0    0  0.10585404827E+02 -0.75170190378E+02 -0.59886950304E+02  0.96690512117E+02  0.00000000000E+00 0. -1.
         22    1    1    2    0    0  0.21442725722E+02 -0.68659415848E+01  0.55744774765E+02  0.60119976329E+02  0.00000000000E+00 0. -1.
</event>
<event>
 6    1  0.3624778E-005  0.8848536E+02  0.7818608E-02  0.1313715E+00
          2   -1    0    0  502    0  0.00000000000E+00  0.00000000000E+00  0.23391311920E+02  0.23391311920E+02  0.00000000000E+00 0. -1.
          1   -1    0    0  501    0 -0.00000000000E+00 -0.00000000000E+00 -0.10356373382E+04  0.10356373382E+04  0.00000000000E+00 0. -1.
          2    1    1    2  501    0 -0.16231207294E+02 -0.37226069376E+02 -0.95615894639E+02  0.10388277836E+03  0.00000000000E+00 0. -1.
          1    1    1    2  502    0  0.56724070048E+00  0.20756886846E+02 -0.72013964985E+03  0.72043895328E+03  0.00000000000E+00 0. -1.
         22    1    1    2    0    0  0.67490469839E+02  0.30595372692E+02 -0.10305389214E+03  0.12692968539E+03  0.00000000000E+00 0. -1.
         22    1    1    2    0    0 -0.51826503245E+02 -0.14126190162E+02 -0.93436589645E+02  0.10777723309E+03  0.00000000000E+00 0. -1.
</event>
<event>
 6    1  0.3624778E-005  0.2299063E+03  0.7818608E-02  0.1182829E+00
          2   -1    0    0  502    0  0.00000000000E+00  0.00000000000E+00  0.66777090821E+03  0.66777090821E+03  0.00000000000E+00 0. -1.
          1   -1    0    0  501    0 -0.00000000000E+00 -0.00000000000E+00 -0.22169665013E+03  0.22169665013E+03  0.00000000000E+00 0. -1.
          2    1    1    2  501    0  0.20627013012E+02  0.13471347766E+03  0.12799800129E+03  0.18696706411E+03  0.00000000000E+00 0. -1.
          1    1    1    2  502    0  0.26311118034E+02 -0.21072708795E+03 -0.11517513419E+03  0.24158537220E+03  0.00000000000E+00 0. -1.
         22    1    1    2    0    0 -0.59369211010E+02 -0.15869408279E+02  0.21905406760E+03  0.22751093571E+03  0.00000000000E+00 0. -1.
         22    1    1    2    0    0  0.12431079964E+02  0.91883018566E+02  0.21419732337E+03  0.23340418632E+03  0.00000000000E+00 0. -1.
</event>
<event>
 6    1  0.3624778E-005  0.1049635E+03  0.7818608E-02  0.1273979E+00
          2   -1    0    0  502    0  0.00000000000E+00  0.00000000000E+00  0.94315553706E+02  0.94315553706E+02  0.00000000000E+00 0.  1.
          1   -1    0    0  501    0 -0.00000000000E+00 -0.00000000000E+00 -0.17931746207E+03  0.17931746207E+03  0.00000000000E+00 0. -1.
          2    1    1    2  501    0  0.38291809126E+02 -0.87215188404E+01 -0.16263491480E+02  0.42506807597E+02  0.00000000000E+00 0.  1.
          1    1    1    2  502    0  0.61665436446E+01  0.65807316144E+02 -0.54570973954E+02  0.85712428019E+02  0.00000000000E+00 0. -1.
         22    1    1    2    0    0 -0.70544183561E+02 -0.80728906026E+02  0.66586287713E+00  0.10721045413E+03  0.00000000000E+00 0.  1.
         22    1    1    2    0    0  0.26085830791E+02  0.23643108722E+02 -0.14833305805E+02  0.38203326023E+02  0.00000000000E+00 0. -1.
</event>
<event>
 6    1  0.3624778E-005  0.5277925E+03  0.7818608E-02  0.1065281E+00
          2   -1    0    0  502    0  0.00000000000E+00  0.00000000000E+00  0.11177689369E+04  0.11177689369E+04  0.00000000000E+00 0. -1.
          1   -1    0    0  501    0 -0.00000000000E+00 -0.00000000000E+00 -0.47403931855E+03  0.47403931855E+03  0.00000000000E+00 0.  1.
          2    1    1    2  501    0  0.15296301137E+03 -0.42609930678E+03  0.61097733844E+03  0.76042857006E+03  0.00000000000E+00 0. -1.
          1    1    1    2  502    0 -0.73324285094E+02  0.51898969945E+03 -0.18084273033E+03  0.55446447319E+03  0.00000000000E+00 0.  1.
         22    1    1    2    0    0 -0.90820827796E+02 -0.27116996570E+02  0.67665099820E+02  0.11645737417E+03  0.00000000000E+00 0.  1.
         22    1    1    2    0    0  0.11182101519E+02 -0.65773396098E+02  0.14592991047E+03  0.16045783807E+03  0.00000000000E+00 0. -1.
</event>
<event>
 6    1  0.3624778E-005  0.9595647E+02  0.7818608E-02  0.1388729E+00
          2   -1    0    0  502    0  0.00000000000E+00  0.00000000000E+00  0.15263593306E+03  0.15263593306E+03  0.00000000000E+00 0.  1.
          1   -1    0    0  501    0 -0.00000000000E+00 -0.00000000000E+00 -0.94513671314E+02  0.94513671314E+02  0.00000000000E+00 0.  1.
          2    1    1    2  501    0  0.11463176371E+02  0.27375967403E+02 -0.72411605014E+01  0.30549671179E+02  0.00000000000E+00 0.  1.
          1    1    1    2  502    0  0.43348868776E+02 -0.31804433746E+02 -0.19988480111E+02  0.57360140928E+02  0.00000000000E+00 0.  1.
         22    1    1    2    0    0 -0.71117396564E+02 -0.26368876567E+00 -0.11122915707E+01  0.71126583064E+02  0.00000000000E+00 0.  1.
         22    1    1    2    0    0  0.16305351417E+02  0.46921551089E+01  0.86464193927E+02  0.88113209202E+02  0.00000000000E+00 0.  1.
</event>
<event>
 6    1  0.3624778E-005  0.7737701E+02  0.7818608E-02  0.1346252E+00
          2   -1    0    0  502    0  0.00000000000E+00  0.00000000000E+00  0.18195450897E+03  0.18195450897E+03  0.00000000000E+00 0. -1.
          1   -1    0    0  501    0 -0.00000000000E+00 -0.00000000000E+00 -0.46632326480E+03  0.46632326480E+03  0.00000000000E+00 0. -1.
          2    1    1    2  501    0  0.17721597351E+02  0.30882083406E+02  0.83619936755E+01  0.36574321954E+02  0.00000000000E+00 0. -1.
          1    1    1    2  502    0 -0.15265686262E+01 -0.45267315518E+02 -0.42554252718E+03  0.42794614463E+03  0.00000000000E+00 0. -1.
         22    1    1    2    0    0 -0.65173809233E+02  0.12536770657E+02  0.11267432272E+03  0.13076811167E+03  0.00000000000E+00 0. -1.
         22    1    1    2    0    0  0.48978780509E+02  0.18484614549E+01  0.20137454952E+02  0.52989195520E+02  0.00000000000E+00 0. -1.
</event>
<event>
 6    1  0.3624778E-005  0.3539947E+03  0.7818608E-02  0.1166515E+00
          2   -1    0    0  502    0  0.00000000000E+00  0.00000000000E+00  0.13446955108E+04  0.13446955108E+04  0.00000000000E+00 0. -1.
          1   -1    0    0  501    0 -0.00000000000E+00 -0.00000000000E+00 -0.12020703777E+03  0.12020703777E+03  0.00000000000E+00 0. -1.
          2    1    1    2  501    0  0.20968286159E+03  0.17160913280E+03  0.20496920901E+03  0.33974839741E+03  0.00000000000E+00 0. -1.
          1    1    1    2  502    0 -0.16822138281E+03 -0.16540154733E+03  0.94391466546E+03  0.97294963958E+03  0.00000000000E+00 0. -1.
         22    1    1    2    0    0 -0.50953051679E+02 -0.28659428136E+02 -0.13354728187E+02  0.59966032563E+02  0.00000000000E+00 0. -1.
         22    1    1    2    0    0  0.94915728973E+01  0.22451842662E+02  0.88959326708E+02  0.92238478973E+02  0.00000000000E+00 0.  1.
</event>
<event>
 6    1  0.3624778E-005  0.1564821E+03  0.7818608E-02  0.1316119E+00
          2   -1    0    0  502    0  0.00000000000E+00  0.00000000000E+00  0.25463572941E+02  0.25463572941E+02  0.00000000000E+00 0.  1.
          1   -1    0    0  501    0 -0.00000000000E+00 -0.00000000000E+00 -0.18703276922E+04  0.18703276922E+04  0.00000000000E+00 0.  1.
          2    1    1    2  501    0 -0.93763817413E+01 -0.99955745076E+02 -0.10795513031E+04  0.10842094279E+04  0.00000000000E+00 0.  1.
          1    1    1    2  502    0  0.49348451307E+02  0.78217978550E+02 -0.54766898825E+03  0.55542294021E+03  0.00000000000E+00 0.  1.
         22    1    1    2    0    0  0.82480575026E+01  0.10631841976E+02  0.13923862128E+02  0.19363379171E+02  0.00000000000E+00 0.  1.
         22    1    1    2    0    0 -0.48220127068E+02  0.11105924550E+02 -0.23156769000E+03  0.23679551784E+03  0.00000000000E+00 0. -1.
</event>
<event>
 6    1  0.3624778E-005  0.8257907E+02  0.7818608E-02  0.1412693E+00
          2   -1    0    0  502    0  0.00000000000E+00  0.00000000000E+00  0.46932422478E+02  0.46932422478E+02  0.00000000000E+00 0. -1.
          1   -1    0    0  501    0 -0.00000000000E+00 -0.00000000000E+00 -0.37838519567E+03  0.37838519567E+03  0.00000000000E+00 0. -1.
          2    1    1    2  501    0 -0.21351818615E+02 -0.49795388471E+02 -0.14609944044E+03  0.15582210166E+03  0.00000000000E+00 0. -1.
          1    1    1    2  502    0  0.11713863631E+02  0.59281596581E+02 -0.94307148061E+02  0.11200607336E+03  0.00000000000E+00 0. -1.
         22    1    1    2    0    0  0.19411551404E+02  0.58917712909E+01 -0.12085883700E+03  0.12254949929E+03  0.00000000000E+00 0.  1.
         22    1    1    2    0    0 -0.97735964207E+01 -0.15377979401E+02  0.29812652303E+02  0.34939943829E+02  0.00000000000E+00 0. -1.
</event>
<event>
 6    1  0.3624778E-005  0.1112611E+03  0.7818608E-02  0.1346907E+00
          2   -1    0    0  502    0  0.00000000000E+00  0.00000000000E+00  0.83799337747E+02  0.83799337747E+02  0.00000000000E+00 0. -1.
          1   -1    0    0  501    0 -0.00000000000E+00 -0.00000000000E+00 -0.12511996346E+04  0.12511996346E+04  0.00000000000E+00 0. -1.
          2    1    1    2  501    0 -0.95211996709E+02  0.97685101290E+01 -0.78941046579E+03  0.79519156912E+03  0.00000000000E+00 0. -1.
          1    1    1    2  502    0  0.12446925626E+03 -0.55124943033E+01 -0.38981793783E+03  0.40924443552E+03  0.00000000000E+00 0. -1.
         22    1    1    2    0    0 -0.91839289810E+01  0.42599184724E+01 -0.57243225755E+02  0.58131560720E+02  0.00000000000E+00 0. -1.
         22    1    1    2    0    0 -0.20073330571E+02 -0.85159342982E+01  0.69071332538E+02  0.72431406971E+02  0.00000000000E+00 0. -1.
</event>
<event>
 6    1  0.3624778E-005  0.1942554E+03  0.7818608E-02  0.1237260E+00
          2   -1    0    0  502    0  0.00000000000E+00  0.00000000000E+00  0.58071361719E+02  0.58071361719E+02  0.00000000000E+00 0.  1.
          1   -1    0    0  501    0 -0.00000000000E+00 -0.00000000000E+00 -0.10223662036E+04  0.10223662036E+04  0.00000000000E+00 0.  1.
          2    1    1    2  501    0 -0.85356863428E+02  0.16980142204E+02 -0.22058036906E+03  0.23712827452E+03  0.00000000000E+00 0.  1.
          1    1    1    2  502    0 -0.13586208024E+02 -0.72522244319E+02 -0.64227229169E+03  0.64649652562E+03  0.00000000000E+00 0.  1.
         22    1    1    2    0    0  0.88545492511E+02  0.25439591329E+02 -0.12635772244E+03  0.15637695185E+03  0.00000000000E+00 0.  1.
         22    1    1    2    0    0  0.10397578942E+02  0.30102510785E+02  0.24915541283E+02  0.40435813345E+02  0.00000000000E+00 0.  1.
</event>
<event>
 6    1  0.3624778E-005  0.2620548E+03  0.7818608E-02  0.1106116E+00
          2   -1    0    0  502    0  0.00000000000E+00  0.00000000000E+00  0.97497818456E+02  0.97497818456E+02  0.00000000000E+00 0.  1.
          1   -1    0    0  501    0 -0.00000000000E+00 -0.00000000000E+00 -0.11426540277E+04  0.11426540277E+04  0.00000000000E+00 0.  1.
          2    1    1    2  501    0 -0.23406686775E+03  0.11281952656E+03 -0.46393033924E+03  0.53173950748E+03  0.00000000000E+00 0.  1.
          1    1    1    2  502    0  0.22229307043E+02 -0.62383888312E+01 -0.35798643605E+03  0.35873018828E+03  0.00000000000E+00 0.  1.
         22    1    1    2    0    0  0.22603077881E+03 -0.11368520842E+03 -0.20617722303E+03  0.32637905398E+03  0.00000000000E+00 0.  1.
         22    1    1    2    0    0 -0.14193218105E+02  0.71040706880E+01 -0.17062210914E+02  0.23303096399E+02  0.00000000000E+00 0. -1.
</event>
<event>
 6    1  0.3624778E-005  0.1575230E+03  0.7818608E-02  0.1239001E+00
          2   -1    0    0  502    0  0.00000000000E+00  0.00000000000E+00  0.26494663929E+03  0.26494663929E+03  0.00000000000E+00 0.  1.
          1   -1    0    0  501    0 -0.00000000000E+00 -0.00000000000E+00 -0.60304257070E+03  0.60304257070E+03  0.00000000000E+00 0. -1.
          2    1    1    2  501    0 -0.36790218092E+02 -0.44841771017E+02  0.30257910742E+02  0.65420529940E+02  0.00000000000E+00 0.  1.
          1    1    1    2  502    0  0.15581384585E+02  0.14897354736E+03 -0.54352533259E+03  0.56378691411E+03  0.00000000000E+00 0. -1.
         22    1    1    2    0    0 -0.35971411560E+02 -0.96830550567E+02  0.12666138052E+03  0.16344174280E+03  0.00000000000E+00 0.  1.
         22    1    1    2    0    0  0.57180245067E+02 -0.73012257737E+01  0.48510109904E+02  0.75340023139E+02  0.00000000000E+00 0. -1.
</event>
<event>
 6    1  0.3624778E-005  0.4755356E+03  0.7818608E-02  0.1162718E+00
          2   -1    0    0  502    0  0.00000000000E+00  0.00000000000E+00  0.38165492749E+03  0.38165492749E+03  0.00000000000E+00 0.  1.
          1   -1    0    0  501    0 -0.00000000000E+00 -0.00000000000E+00 -0.16903908406E+04  0.16903908406E+04  0.00000000000E+00 0. -1.
          2    1    1    2  501    0  0.13211183029E+03 -0.19059402850E+03  0.47935589948E+02  0.23680675705E+03  0.00000000000E+00 0.  1.
          1    1    1    2  502    0  0.20278509190E+02  0.24381665236E+02 -0.15270933033E+04  0.15274225482E+04  0.00000000000E+00 0. -1.
         22    1    1    2    0    0 -0.15839948620E+03  0.17539835903E+03  0.13820327412E+03  0.27377933917E+03  0.00000000000E+00 0.  1.
         22    1    1    2    0    0  0.60091467188E+01 -0.91859957670E+01  0.32218526160E+02  0.34037123710E+02  0.00000000000E+00 0. -1.
</event>
<event>
 6    1  0.3624778E-005  0.7560884E+02  0.7818608E-02  0.1373560E+00
          2   -1    0    0  502    0  0.00000000000E+00  0.00000000000E+00  0.46986386849E+02  0.46986386849E+02  0.00000000000E+00 0.  1.
          1   -1    0    0  501    0 -0.00000000000E+00 -0.00000000000E+00 -0.60287434728E+03  0.60287434728E+03  0.00000000000E+00 0.  1.
          2    1    1    2  501    0  0.15639301441E+02  0.16099041730E+02  0.91735374384E+00  0.22463491093E+02  0.00000000000E+00 0.  1.
          1    1    1    2  502    0 -0.37072604368E+02 -0.52314693364E+02 -0.46259677800E+03  0.46701925458E+03  0.00000000000E+00 0.  1.
         22    1    1    2    0    0 -0.93044956567E+01 -0.43413728728E+02 -0.34034793764E+02  0.55943656192E+02  0.00000000000E+00 0. -1.
         22    1    1    2    0    0  0.30737798584E+02  0.79629380363E+02 -0.60173742408E+02  0.10443433226E+03  0.00000000000E+00 0.  1.
</event>
<event>
 6    1  0.3624778E-005  0.1484623E+03  0.7818608E-02  0.1260509E+00
          2   -1    0    0  502    0  0.00000000000E+00  0.00000000000E+00  0.10873197957E+03  0.10873197957E+03  0.00000000000E+00 0. -1.
          1   -1    0    0  501    0 -0.00000000000E+00 -0.00000000000E+00 -0.14423093093E+03  0.14423093093E+03  0.00000000000E+00 0.  1.
          2    1    1    2  501    0 -0.55855239159E+02 -0.10389598336E+00 -0.38789482216E+02  0.68003253352E+02  0.00000000000E+00 0. -1.
          1    1    1    2  502    0  0.34857922360E+02 -0.11974785111E+02 -0.40101055051E+02  0.54466180754E+02  0.00000000000E+00 0.  1.
         22    1    1    2    0    0 -0.50585316443E+02  0.87812747190E+01  0.20248022047E+02  0.55190283766E+02  0.00000000000E+00 0. -1.
         22    1    1    2    0    0  0.71582633242E+02  0.32974063750E+01  0.23143563862E+02  0.75303192621E+02  0.00000000000E+00 0.  1.
</event>
<event>
 6    1  0.3624778E-005  0.3137398E+03  0.7818608E-02  0.1190193E+00
          2   -1    0    0  502    0  0.00000000000E+00  0.00000000000E+00  0.15549016963E+03  0.15549016963E+03  0.00000000000E+00 0.  1.
          1   -1    0    0  501    0 -0.00000000000E+00 -0.00000000000E+00 -0.54816179005E+03  0.54816179005E+03  0.00000000000E+00 0.  1.
          2    1    1    2  501    0  0.13427399012E+03 -0.68003864734E+02 -0.39916096617E+02  0.15571552527E+03  0.00000000000E+00 0.  1.
          1    1    1    2  502    0 -0.73485539587E+02 -0.65820178021E+02 -0.34137631071E+03  0.35534519256E+03  0.00000000000E+00 0.  1.
         22    1    1    2    0    0  0.27595187991E+01 -0.20344030323E+02  0.12653625199E+02  0.24116565768E+02  0.00000000000E+00 0. -1.
         22    1    1    2    0    0 -0.63547969333E+02  0.15416807308E+03 -0.24032838295E+02  0.16847467608E+03  0.00000000000E+00 0.  1.
</event>
<event>
 6    1  0.3624778E-005  0.1661542E+03  0.7818608E-02  0.1186876E+00
          2   -1    0    0  502    0  0.00000000000E+00  0.00000000000E+00  0.47728618463E+03  0.47728618463E+03  0.00000000000E+00 0. -1.
          1   -1    0    0  501    0 -0.00000000000E+00 -0.00000000000E+00 -0.17813717158E+03  0.17813717158E+03  0.00000000000E+00 0. -1.
          2    1    1    2  501    0  0.42142134135E+02  0.76849629971E+02 -0.20849437377E+02  0.90091753979E+02  0.00000000000E+00 0. -1.
          1    1    1    2  502    0 -0.21926580635E+03 -0.71231189752E+01  0.24019114048E+03  0.32529988722E+03  0.00000000000E+00 0. -1.
         22    1    1    2    0    0  0.66173190486E+02  0.29363552896E+02  0.26250627024E+01  0.72443083396E+02  0.00000000000E+00 0.  1.
         22    1    1    2    0    0  0.11095048173E+03 -0.99090063892E+02  0.77182247243E+02  0.16758863162E+03  0.00000000000E+00 0. -1.
</event>
<event>
 6    1  0.3624778E-005  0.9516161E+02  0.7818608E-02  0.1312732E+00
          2   -1    0    0  502    0  0.00000000000E+00  0.00000000000E+00  0.26976219971E+03  0.26976219971E+03  0.00000000000E+00 0. -1.
          1   -1    0    0  501    0 -0.00000000000E+00 -0.00000000000E+00 -0.12503993314E+03  0.12503993314E+03  0.00000000000E+00 0. -1.
          2    1    1    2  501    0 -0.82639380949E+00  0.24517633196E+02  0.46206763916E+01  0.24962930809E+02  0.00000000000E+00 0. -1.
          1    1    1    2  502    0  0.40260392172E+01 -0.30560511077E+02 -0.98096634705E+02  0.10282559783E+03  0.00000000000E+00 0. -1.
         22    1    1    2    0    0  0.44648324529E+02  0.38394363764E+02  0.15431189462E+03  0.16516585868E+03  0.00000000000E+00 0. -1.
         22    1    1    2    0    0 -0.47847969937E+02 -0.32351485883E+02  0.83886330251E+02  0.10184774553E+03  0.00000000000E+00 0. -1.
</event>
<event>
 6    1  0.3624778E-005  0.4019329E+03  0.7818608E-02  0.1186015E+00
          2   -1    0    0  502    0  0.00000000000E+00  0.00000000000E+00  0.31581578536E+02  0.31581578536E+02  0.00000000000E+00 0. -1.
          1   -1    0    0  501    0 -0.00000000000E+00 -0.00000000000E+00 -0.32882534045E+04  0.32882534045E+04  0.00000000000E+00 0.  1.
          2    1    1    2  501    0 -0.82499030967E+02 -0.14553452161E+03 -0.45007343706E+03  0.48015881314E+03  0.00000000000E+00 0. -1.
          1    1    1    2  502    0 -0.94920761552E+02  0.23956102042E+02 -0.18083233949E+04  0.18109713820E+04  0.00000000000E+00 0.  1.
         22    1    1    2    0    0 -0.47343092595E+01 -0.96089971755E+01 -0.81707850234E+01  0.13472499352E+02  0.00000000000E+00 0. -1.
         22    1    1    2    0    0  0.18215410178E+03  0.13118741674E+03 -0.99010420901E+03  0.10152322886E+04  0.00000000000E+00 0. -1.
</event>
<event>
 6    1  0.3624778E-005  0.1049086E+03  0.7818608E-02  0.1316712E+00
          2   -1    0    0  502    0  0.00000000000E+00  0.00000000000E+00  0.10229101887E+04  0.10229101887E+04  0.00000000000E+00 0. -1.
          1   -1    0    0  501    0 -0.00000000000E+00 -0.00000000000E+00 -0.21736461510E+02  0.21736461510E+02  0.00000000000E+00 0. -1.
          2    1    1    2  501    0  0.51092900323E+02 -0.57428076946E+02  0.13541060012E+03  0.15570645173E+03  0.00000000000E+00 0. -1.
          1    1    1    2  502    0 -0.24064195878E+01  0.46636642806E+02  0.44068793571E+03  0.44315530459E+03  0.00000000000E+00 0. -1.
         22    1    1    2    0    0 -0.13088105223E+02 -0.42199320291E+02  0.56509325309E+02  0.71731338884E+02  0.00000000000E+00 0. -1.
         22    1    1    2    0    0 -0.35598375512E+02  0.52990754431E+02  0.36856586600E+03  0.37405355495E+03  0.00000000000E+00 0. -1.
</event>
<event>
 6    1  0.3982653E-005  0.2865681E+03  0.7818608E-02  0.1186692E+00
          2   -1    0    0  502    0  0.00000000000E+00  0.00000000000E+00  0.47636124450E+03  0.47636124450E+03  0.00000000000E+00 0. -1.
          1   -1    0    0  501    0 -0.00000000000E+00 -0.00000000000E+00 -0.11922777356E+04  0.11922777356E+04  0.00000000000E+00 0.  1.
          2    1    1    2  501    0  0.41917786652E+02  0.10957406637E+03  0.50106457915E+02  0.12757050593E+03  0.00000000000E+00 0. -1.
          1    1    1    2  502    0 -0.55874800541E+02 -0.24061763428E+02 -0.11378584125E+04  0.11394835360E+04  0.00000000000E+00 0.  1.
         22    1    1    2    0    0  0.32460995095E+02 -0.10798999400E+03  0.34107033536E+03  0.35922768361E+03  0.00000000000E+00 0. -1.
         22    1    1    2    0    0 -0.18503981205E+02  0.22477691059E+02  0.30765128089E+02  0.42357254657E+02  0.00000000000E+00 0. -1.
</event>
<event>
 6    1  0.3624778E-005  0.4917776E+02  0.7818608E-02  0.1453301E+00
          2   -1    0    0  502    0  0.00000000000E+00  0.00000000000E+00  0.34432827331E+02  0.34432827331E+02  0.00000000000E+00 0. -1.
          1   -1    0    0  501    0 -0.00000000000E+00 -0.00000000000E+00 -0.35876758471E+03  0.35876758471E+03  0.00000000000E+00 0. -1.
          2    1    1    2  501    0 -0.12722572773E+02  0.21311255836E+02 -0.15995253924E+03  0.16186676093E+03  0.00000000000E+00 0. -1.
          1    1    1    2  502    0  0.21527032469E+02 -0.15029635655E+00 -0.77138492116E+02  0.80086095434E+02  0.00000000000E+00 0. -1.
         22    1    1    2    0    0 -0.64963889932E+00 -0.46713946786E+02  0.12171087912E+02  0.48277844152E+02  0.00000000000E+00 0. -1.
         22    1    1    2    0    0 -0.81548207968E+01  0.25552987307E+02 -0.99414813938E+02  0.10296971153E+03  0.00000000000E+00 0. -1.
</event>
<event>
 6    1  0.3624778E-005  0.1471871E+03  0.7818608E-02  0.1266888E+00
          2   -1    0    0  502    0  0.00000000000E+00  0.00000000000E+00  0.33352541968E+03  0.33352541968E+03  0.00000000000E+00 0.  1.
          1   -1    0    0  501    0 -0.00000000000E+00 -0.00000000000E+00 -0.31083878334E+03  0.31083878334E+03  0.00000000000E+00 0.  1.
          2    1    1    2  501    0 -0.48648501310E+02  0.44763890032E+02  0.65879706272E+02  0.93330692856E+02  0.00000000000E+00 0.  1.
          1    1    1    2  502    0  0.69462503910E+02  0.47667072874E+01 -0.27319164181E+03  0.28192451845E+03  0.00000000000E+00 0.  1.
         22    1    1    2    0    0 -0.38194561916E+02 -0.86204975460E+02  0.12524728656E+03  0.15677054935E+03  0.00000000000E+00 0.  1.
         22    1    1    2    0    0  0.17380559316E+02  0.36674378140E+02  0.10475128533E+03  0.11233844236E+03  0.00000000000E+00 0.  1.
</event>
<event>
 6    1  0.3624778E-005  0.2848446E+03  0.7818608E-02  0.1093321E+00
          2   -1    0    0  502    0  0.00000000000E+00  0.00000000000E+00  0.38650244899E+03  0.38650244899E+03  0.00000000000E+00 0. -1.
          1   -1    0    0  501    0 -0.00000000000E+00 -0.00000000000E+00 -0.83288523522E+03  0.83288523522E+03  0.00000000000E+00 0. -1.
          2    1    1    2  501    0 -0.10750585061E+03  0.29222189909E+03 -0.16018543906E+03  0.35015785170E+03  0.00000000000E+00 0. -1.
          1    1    1    2  502    0  0.80917792457E+02 -0.30465614573E+02 -0.50094299692E+03  0.50835000636E+03  0.00000000000E+00 0. -1.
         22    1    1    2    0    0  0.26969002266E+02 -0.27342877183E+03  0.21548645558E+03  0.34917765233E+03  0.00000000000E+00 0. -1.
         22    1    1    2    0    0 -0.38094411526E+00  0.11672487318E+02 -0.74080582660E+00  0.11702173811E+02  0.00000000000E+00 0. -1.
</event>
<event>
 6    1  0.3624778E-005  0.9022726E+02  0.7818608E-02  0.1341014E+00
          2   -1    0    0  502    0  0.00000000000E+00  0.00000000000E+00  0.89918160277E+03  0.89918160277E+03  0.00000000000E+00 0. -1.
          1   -1    0    0  501    0 -0.00000000000E+00 -0.00000000000E+00 -0.82063659038E+02  0.82063659038E+02  0.00000000000E+00 0. -1.
          2    1    1    2  501    0 -0.32419804221E+02 -0.28222262042E+02  0.22069941615E+03  0.22484610752E+03  0.00000000000E+00 0. -1.
          1    1    1    2  502    0  0.81121248906E+02  0.22353138279E+02 -0.49033464231E+02  0.97388913278E+02  0.00000000000E+00 0. -1.
         22    1    1    2    0    0  0.36106879058E+02  0.27279314750E+02  0.20069444698E+03  0.20573314944E+03  0.00000000000E+00 0.  1.
         22    1    1    2    0    0 -0.84808323742E+02 -0.21410190986E+02  0.44475754483E+03  0.45327709157E+03  0.00000000000E+00 0. -1.
</event>
<event>
 6    1  0.3624778E-005  0.2114139E+03  0.7818608E-02  0.1197254E+00
          2   -1    0    0  502    0  0.00000000000E+00  0.00000000000E+00  0.78528375900E+02  0.78528375900E+02  0.00000000000E+00 0. -1.
          1   -1    0    0  501    0 -0.00000000000E+00 -0.00000000000E+00 -0.52920685310E+03  0.52920685310E+03  0.00000000000E+00 0.  1.
          2    1    1    2  501    0 -0.10200032114E+03 -0.62098729562E+02 -0.38815829552E+02  0.12556666098E+03  0.00000000000E+00 0. -1.
          1    1    1    2  502    0  0.49473428635E+01  0.39288043593E+02 -0.25760594496E+03  0.26063163555E+03  0.00000000000E+00 0.  1.
         22    1    1    2    0    0  0.29345235984E+02  0.45009893556E+02 -0.23888779587E+01  0.53784199638E+02  0.00000000000E+00 0. -1.
         22    1    1    2    0    0  0.67707742294E+02 -0.22199207586E+02 -0.15186782473E+03  0.16775273283E+03  0.00000000000E+00 0.  1.
</event>
<event>
 6    1  0.3624778E-005  0.1284645E+03  0.7818608E-02  0.1267370E+00
          2   -1    0    0  502    0  0.00000000000E+00  0.00000000000E+00  0.20005767496E+03  0.20005767496E+03  0.00000000000E+00 0.  1.
          1   -1    0    0  501    0 -0.00000000000E+00 -0.00000000000E+00 -0.81234184472E+03  0.81234184472E+03  0.00000000000E+00 0. -1.
          2    1    1    2  501    0 -0.93347309673E+01 -0.75502019440E+02  0.26894064230E+02  0.80690661372E+02  0.00000000000E+00 0.  1.
          1    1    1    2  502    0  0.16351669000E+01  0.10569939208E+03 -0.75113440768E+03  0.75853670555E+03  0.00000000000E+00 0. -1.
         22    1    1    2    0    0 -0.51500049776E+02 -0.42532841185E+02  0.81779465959E+02  0.10558967165E+03  0.00000000000E+00 0.  1.
         22    1    1    2    0    0  0.59199613843E+02  0.12335468541E+02  0.30176707743E+02  0.67582481114E+02  0.00000000000E+00 0.  1.
</event>
<event>
 6    1  0.3624778E-005  0.5725482E+02  0.7818608E-02  0.1414751E+00
          2   -1    0    0  502    0  0.00000000000E+00  0.00000000000E+00  0.72593524740E+02  0.72593524740E+02  0.00000000000E+00 0. -1.
          1   -1    0    0  501    0 -0.00000000000E+00 -0.00000000000E+00 -0.18839742707E+04  0.18839742707E+04  0.00000000000E+00 0. -1.
          2    1    1    2  501    0 -0.21962019069E+02  0.27478375138E+02 -0.20421917413E+02  0.40674882823E+02  0.00000000000E+00 0. -1.
          1    1    1    2  502    0  0.30466911675E+02 -0.25346246918E+01 -0.17891078607E+04  0.17893690492E+04  0.00000000000E+00 0. -1.
         22    1    1    2    0    0  0.25391868537E+02 -0.43899168484E+02  0.43501414740E+02  0.66815096092E+02  0.00000000000E+00 0. -1.
         22    1    1    2    0    0 -0.33896761143E+02  0.18955418038E+02 -0.45352382588E+02  0.59708767324E+02  0.00000000000E+00 0. -1.
</event>
<event>
 6    1  0.3624778E-005  0.1695336E+03  0.7818608E-02  0.1215950E+00
          2   -1    0    0  502    0  0.00000000000E+00  0.00000000000E+00  0.12166913815E+03  0.12166913815E+03  0.00000000000E+00 0. -1.
          1   -1    0    0  501    0 -0.00000000000E+00 -0.00000000000E+00 -0.93596049589E+03  0.93596049589E+03  0.00000000000E+00 0. -1.
          2    1    1    2  501    0 -0.15965921583E+02 -0.13198698888E+03 -0.62494099214E+03  0.63892622386E+03  0.00000000000E+00 0. -1.
          1    1    1    2  502    0  0.76331495756E+01  0.83464063039E+02  0.80674210416E+02  0.11633074838E+03  0.00000000000E+00 0. -1.
         22    1    1    2    0    0  0.36641952417E+02 -0.20476988861E+02 -0.18304341319E+03  0.18779465078E+03  0.00000000000E+00 0. -1.
         22    1    1    2    0    0 -0.28309180410E+02  0.68999914698E+02 -0.86981162833E+02  0.11457801103E+03  0.00000000000E+00 0.  1.
</event>
<event>
 6    1  0.3624778E-005  0.9662284E+02  0.7818608E-02  0.1310806E+00
          2   -1    0    0  502    0  0.00000000000E+00  0.00000000000E+00  0.71733867417E+03  0.71733867417E+03  0.00000000000E+00 0. -1.
          1   -1    0    0  501    0 -0.00000000000E+00 -0.00000000000E+00 -0.16004665434E+03  0.16004665434E+03  0.00000000000E+00 0. -1.
          2    1    1    2  501    0 -0.17384834885E+02 -0.82265699478E+02  0.19467844849E+03  0.21206031241E+03  0.00000000000E+00 0. -1.
          1    1    1    2  502    0  0.49308901844E+01  0.86151067734E+02 -0.13002174957E+03  0.15605119516E+03  0.00000000000E+00 0. -1.
         22    1    1    2    0    0  0.32431573393E+01 -0.66118312925E+02  0.25041543189E+03  0.25901744710E+03  0.00000000000E+00 0.  1.
         22    1    1    2    0    0  0.92107873618E+01  0.62232944670E+02  0.24221988902E+03  0.25025637383E+03  0.00000000000E+00 0. -1.
</event>
<event>
 6    1  0.3624778E-005  0.1308874E+03  0.7818608E-02  0.1323012E+00
          2   -1    0    0  502    0  0.00000000000E+00  0.00000000000E+00  0.76928008618E+02  0.76928008618E+02  0.00000000000E+00 0.  1.
          1   -1    0    0  501    0 -0.00000000000E+00 -0.00000000000E+00 -0.13000638981E+04  0.13000638981E+04  0.00000000000E+00 0. -1.
          2    1    1    2  501    0  0.26051435489E+02  0.91827347919E+02 -0.25850717882E+03  0.27556650852E+03  0.00000000000E+00 0.  1.
          1    1    1    2  502    0  0.15109053652E+02 -0.10387097432E+03 -0.96605020818E+03  0.97173580130E+03  0.00000000000E+00 0. -1.
         22    1    1    2    0    0 -0.29422467180E+02  0.28640386190E+02 -0.55619952608E+02  0.69134162497E+02  0.00000000000E+00 0.  1.
         22    1    1    2    0    0 -0.11738021961E+02 -0.16596759789E+02  0.57041450158E+02  0.60555434365E+02  0.00000000000E+00 0.  1.
</event>
<event>
 6    1  0.3624778E-005  0.1926584E+03  0.7818608E-02  0.1294763E+00
          2   -1    0    0  502    0  0.00000000000E+00  0.00000000000E+00  0.25834065886E+03  0.25834065886E+03  0.00000000000E+00 0. -1.
          1   -1    0    0  501    0 -0.00000000000E+00 -0.00000000000E+00 -0.53542402200E+03  0.53542402200E+03  0.00000000000E+00 0. -1.
          2    1    1    2  501    0 -0.14321116525E+03  0.71290038573E+02 -0.38233678318E+03  0.41445521256E+03  0.00000000000E+00 0. -1.
          1    1    1    2  502    0  0.13209844188E+03 -0.90616360469E+02  0.17359864968E+03  0.23621560978E+03  0.00000000000E+00 0. -1.
         22    1    1    2    0    0 -0.10096911361E+02 -0.33983428477E+01  0.34262705356E+02  0.35880765481E+02  0.00000000000E+00 0. -1.
         22    1    1    2    0    0  0.21209634738E+02  0.22724664744E+02 -0.10260793501E+03  0.10721309304E+03  0.00000000000E+00 0. -1.
</event>
<event>
 6    1  0.3624778E-005  0.1095233E+03  0.7818608E-02  0.1265357E+00
          2   -1    0    0  502    0  0.00000000000E+00  0.00000000000E+00  0.28625333308E+03  0.28625333308E+03  0.00000000000E+00 0. -1.
          1   -1    0    0  501    0 -0.00000000000E+00 -0.00000000000E+00 -0.20651430563E+03  0.20651430563E+03  0.00000000000E+00 0. -1.
          2    1    1    2  501    0  0.34969987140E+02 -0.67178527437E+02  0.77781300287E+02  0.10856235638E+03  0.00000000000E+00 0. -1.
          1    1    1    2  502    0 -0.27199427963E+02  0.10005984462E+02 -0.16512121819E+03  0.16764529609E+03  0.00000000000E+00 0. -1.
         22    1    1    2    0    0 -0.31224783940E+02  0.85395670048E+02  0.76487189181E+02  0.11881791828E+03  0.00000000000E+00 0. -1.
         22    1    1    2    0    0  0.23454224762E+02 -0.28223127074E+02  0.90591756175E+02  0.97742067954E+02  0.00000000000E+00 0.  1.
</event>
<event>
 6    1  0.3624778E-005  0.6751777E+02  0.7818608E-02  0.1387959E+00
          2   -1    0    0  502    0  0.00000000000E+00  0.00000000000E+00  0.19403660672E+03  0.19403660672E+03  0.00000000000E+00 0. -1.
          1   -1    0    0  501    0 -0.00000000000E+00 -0.00000000000E+00 -0.43085930311E+02  0.43085930311E+02  0.00000000000E+00 0. -1.
          2    1    1    2  501    0 -0.36451299347E+01  0.31736925379E+02  0.16669837627E+02  0.36033358035E+02  0.00000000000E+00 0. -1.
          1    1    1    2  502    0 -0.78208790879E+01 -0.20410175431E+02  0.72080774490E+01  0.23015164378E+02  0.00000000000E+00 0. -1.
         22    1    1    2    0    0 -0.34433667339E+02  0.64644258769E+01 -0.65764727391E+01  0.35647107064E+02  0.00000000000E+00 0. -1.
         22    1    1    2    0    0  0.45899676361E+02 -0.17791175825E+02  0.13364923407E+03  0.14242690755E+03  0.00000000000E+00 0. -1.
</event>
<event>
 6    1  0.3624778E-005  0.1099031E+03  0.7818608E-02  0.1261905E+00
          2   -1    0    0  502    0  0.00000000000E+00  0.00000000000E+00  0.49443143811E+03  0.49443143811E+03  0.00000000000E+00 0.  1.
          1   -1    0    0  501    0 -0.00000000000E+00 -0.00000000000E+00 -0.38788135656E+03  0.38788135656E+03  0.00000000000E+00 0. -1.
          2    1    1    2  501    0 -0.86146130287E+02  0.87085518639E+01  0.23539374671E+03  0.25081309900E+03  0.00000000000E+00 0.  1.
          1    1    1    2  502    0  0.26492747003E+02  0.15399909233E+02 -0.36034111141E+03  0.36164172799E+03  0.00000000000E+00 0. -1.
         22    1    1    2    0    0  0.87820910572E+02 -0.32735116445E+02  0.10846746054E+03  0.14335023606E+03  0.00000000000E+00 0.  1.
         22    1    1    2    0    0 -0.28167527288E+02  0.86266553489E+01  0.12302998570E+03  0.12650773162E+03  0.00000000000E+00 0. -1.
</event>
<event>
 6    1  0.3624778E-005  0.3149601E+03  0.7818608E-02  0.1151657E+00
          2   -1    0    0  502    0  0.00000000000E+00  0.00000000000E+00  0.18976268283E+03  0.18976268283E+03  0.00000000000E+00 0. -1.
          1   -1    0    0  501    0 -0.00000000000E+00 -0.00000000000E+00 -0.84281375111E+03  0.84281375111E+03  0.00000000000E+00 0.  1.
          2    1    1    2  501    0 -0.11768887923E+03 -0.77841174985E+02 -0.68759966958E+02  0.15696449877E+03  0.00000000000E+00 0. -1.
          1    1    1    2  502    0 -0.19284743969E+02  0.12019621414E+02 -0.66461518996E+03  0.66500355140E+03  0.00000000000E+00 0.  1.
         22    1    1    2    0    0  0.12800525882E+03  0.19381497251E+02  0.95565337654E+02  0.16091526492E+03  0.00000000000E+00 0. -1.
         22    1    1    2    0    0  0.89683643725E+01  0.46440056321E+02 -0.15241249013E+02  0.49693118860E+02  0.00000000000E+00 0. -1.
</event>
<event>
 6    1  0.3624778E-005  0.1722005E+03  0.7818608E-02  0.1281135E+00
          2   -1    0    0  502    0  0.00000000000E+00  0.00000000000E+00  0.20896507449E+03  0.20896507449E+03  0.00000000000E+00 0. -1.
          1   -1    0    0  501    0 -0.00000000000E+00 -0.00000000000E+00 -0.19644049277E+03  0.19644049277E+03  0.00000000000E+00 0. -1.
          2    1    1    2  501    0 -0.84509197919E+02 -0.11043988927E+02 -0.60046511774E+01  0.85439042949E+02  0.00000000000E+00 0. -1.
          1    1    1    2  502    0  0.15062564121E+03 -0.28904427248E+02 -0.39397320634E+02  0.15835308199E+03  0.00000000000E+00 0. -1.
         22    1    1    2    0    0 -0.80239567688E+02  0.53063984959E+02 -0.44754963265E+01  0.96302672807E+02  0.00000000000E+00 0.  1.
         22    1    1    2    0    0  0.14123124398E+02 -0.13115568785E+02  0.62402049855E+02  0.65310769506E+02  0.00000000000E+00 0. -1.
</event>
<event>
 6    1  0.3624778E-005  0.2077052E+03  0.7818608E-02  0.1214057E+00
          2   -1    0    0  502    0  0.00000000000E+00  0.00000000000E+00  0.36006520230E+02  0.36006520230E+02  0.00000000000E+00 0. -1.
          1   -1    0    0  501    0 -0.00000000000E+00 -0.00000000000E+00 -0.12356055147E+04  0.12356055147E+04  0.00000000000E+00 0. -1.
          2    1    1    2  501    0  0.39579490073E+01  0.37508301043E+02 -0.46449952940E+03  0.46602827256E+03  0.00000000000E+00 0. -1.
          1    1    1    2  502    0 -0.39886994257E+02 -0.89042625471E+02 -0.60265216905E+03  0.61049913868E+03  0.00000000000E+00 0. -1.
         22    1    1    2    0    0  0.36917873705E+02  0.93737108381E+02 -0.98734022304E+02  0.14106020717E+03  0.00000000000E+00 0. -1.
         22    1    1    2    0    0 -0.98882845484E+00 -0.42202783954E+02 -0.33713273675E+02  0.54024416490E+02  0.00000000000E+00 0. -1.
</event>
<event>
 6    1  0.3624778E-005  0.1184553E+03  0.7818608E-02  0.1370463E+00
          2   -1    0    0  502    0  0.00000000000E+00  0.00000000000E+00  0.31406588362E+02  0.31406588362E+02  0.00000000000E+00 0. -1.
          1   -1    0    0  501    0 -0.00000000000E+00 -0.00000000000E+00 -0.99074182582E+03  0.99074182582E+03  0.00000000000E+00 0. -1.
          2    1    1    2  501    0  0.30198371938E+02 -0.11012371631E+02 -0.52351601784E+03  0.52450189221E+03  0.00000000000E+00 0. -1.
          1    1    1    2  502    0 -0.56305371078E+02 -0.22603444098E+02 -0.31655890502E+03  0.32232088180E+03  0.00000000000E+00 0. -1.
         22    1    1    2    0    0  0.29646169837E+02  0.45240656940E+02 -0.14066849915E+03  0.15070912075E+03  0.00000000000E+00 0. -1.
         22    1    1    2    0    0 -0.35391706967E+01 -0.11624841211E+02  0.21408184551E+02  0.24616519416E+02  0.00000000000E+00 0. -1.
</event>
<event>
 6    1  0.3624778E-005  0.4809256E+03  0.7818608E-02  0.1096294E+00
          2   -1    0    0  502    0  0.00000000000E+00  0.00000000000E+00  0.21484344100E+03  0.21484344100E+03  0.00000000000E+00 0.  1.
          1   -1    0    0  501    0 -0.00000000000E+00 -0.00000000000E+00 -0.12995073152E+04  0.12995073152E+04  0.00000000000E+00 0.  1.
          2    1    1    2  501    0 -0.29986458930E+02  0.88253263818E+02 -0.45925334550E+03  0.46861654009E+03  0.00000000000E+00 0.  1.
          1    1    1    2  502    0 -0.10010326966E+02 -0.17922397171E+02 -0.80927333133E+03  0.80953365820E+03  0.00000000000E+00 0.  1.
         22    1    1    2    0    0  0.83933548594E+02 -0.38775226353E+02  0.98103396949E+02  0.13480591697E+03  0.00000000000E+00 0.  1.
         22    1    1    2    0    0 -0.43936762698E+02 -0.31555640293E+02  0.85759405668E+02  0.10139464094E+03  0.00000000000E+00 0.  1.
</event>
<event>
 6    1  0.3624778E-005  0.1913895E+03  0.7818608E-02  0.1228079E+00
          2   -1    0    0  502    0  0.00000000000E+00  0.00000000000E+00  0.40189486948E+03  0.40189486948E+03  0.00000000000E+00 0. -1.
          1   -1    0    0  501    0 -0.00000000000E+00 -0.00000000000E+00 -0.16457609446E+04  0.16457609446E+04  0.00000000000E+00 0.  1.
          2    1    1    2  501    0  0.11590961606E+02 -0.19095778558E+02  0.42054550045E+01  0.22730706137E+02  0.00000000000E+00 0. -1.
          1    1    1    2  502    0  0.10416140366E+03  0.10609020298E+03 -0.16097121468E+04  0.16165636160E+04  0.00000000000E+00 0.  1.
         22    1    1    2    0    0 -0.12668257627E+03 -0.48291434538E+02  0.33135156104E+03  0.35801451756E+03  0.00000000000E+00 0. -1.
         22    1    1    2    0    0  0.10930211002E+02 -0.38702989884E+02  0.30289055602E+02  0.50346974366E+02  0.00000000000E+00 0.  1.
</event>
<event>
 6    1  0.3624778E-005  0.1537073E+03  0.7818608E-02  0.1284658E+00
          2   -1    0    0  502    0  0.00000000000E+00  0.00000000000E+00  0.50912862862E+02  0.50912862862E+02  0.00000000000E+00 0.  1.
          1   -1    0    0  501    0 -0.00000000000E+00 -0.00000000000E+00 -0.13545990014E+04  0.13545990014E+04  0.00000000000E+00 0. -1.
          2    1    1    2  501    0 -0.10033892585E+02 -0.26176451955E+02 -0.51997104483E+02  0.59072705304E+02  0.00000000000E+00 0.  1.
          1    1    1    2  502    0  0.10135526522E+03  0.99268691890E+02 -0.11265783890E+04  0.11354761246E+04  0.00000000000E+00 0. -1.
         22    1    1    2    0    0 -0.11642968949E+03 -0.76595614023E+02 -0.12236821062E+03  0.18546358040E+03  0.00000000000E+00 0.  1.
         22    1    1    2    0    0  0.25108316858E+02  0.35033740876E+01 -0.27424344297E+01  0.25499453955E+02  0.00000000000E+00 0.  1.
</event>
<event>
 6    1  0.3624778E-005  0.3132760E+03  0.7818608E-02  0.1144531E+00
          2   -1    0    0  502    0  0.00000000000E+00  0.00000000000E+00  0.38138726020E+03  0.38138726020E+03  0.00000000000E+00 0.  1.
          1   -1    0    0  501    0 -0.00000000000E+00 -0.00000000000E+00 -0.28184985512E+03  0.28184985512E+03  0.00000000000E+00 0. -1.
          2    1    1    2  501    0 -0.94801439029E+01  0.19009856893E+03  0.80545768899E+02  0.20667597810E+03  0.00000000000E+00 0.  1.
          1    1    1    2  502    0  0.14260937281E+03 -0.94128348843E+02 -0.11771244386E+03  0.20749409319E+03  0.00000000000E+00 0. -1.
         22    1    1    2    0    0 -0.13121331160E+02 -0.57432446972E+02 -0.53508906461E+01  0.59154774341E+02  0.00000000000E+00 0. -1.
         22    1    1    2    0    0 -0.12000789775E+03 -0.38537773115E+02  0.14205497068E+03  0.18991226968E+03  0.00000000000E+00 0.  1.
</event>
<event>
 6    1  0.3624778E-005  0.8800660E+02  0.7818608E-02  0.1323952E+00
          2   -1    0    0  502    0  0.00000000000E+00  0.00000000000E+00  0.21254210348E+02  0.21254210348E+02  0.00000000000E+00 0. -1.
          1   -1    0    0  501    0 -0.00000000000E+00 -0.00000000000E+00 -0.61996503865E+03  0.61996503865E+03  0.00000000000E+00 0. -1.
          2    1    1    2  501    0 -0.10662421827E+02 -0.30905950820E+02 -0.18438274705E+03  0.18725881140E+03  0.00000000000E+00 0. -1.
          1    1    1    2  502    0  0.58923622453E+01  0.53932738093E+02 -0.80929772440E+02  0.97432480407E+02  0.00000000000E+00 0. -1.
         22    1    1    2    0    0 -0.58956749489E+02 -0.17364982661E+01 -0.16462120669E+03  0.17486868052E+03  0.00000000000E+00 0. -1.
         22    1    1    2    0    0  0.63726809071E+02 -0.21290289007E+02 -0.16877710213E+03  0.18165927668E+03  0.00000000000E+00 0. -1.
</event>
<event>
 6    1  0.3624778E-005  0.1697471E+03  0.7818608E-02  0.1191579E+00
          2   -1    0    0  502    0  0.00000000000E+00  0.00000000000E+00  0.10003843548E+04  0.10003843548E+04  0.00000000000E+00 0.  1.
          1   -1    0    0  501    0 -0.00000000000E+00 -0.00000000000E+00 -0.14233622974E+03  0.14233622974E+03  0.00000000000E+00 0. -1.
          2    1    1    2  501    0  0.31822451087E+02  0.22155235998E+03  0.28934792412E+03  0.36581462218E+03  0.00000000000E+00 0.  1.
          1    1    1    2  502    0  0.25985593320E+02 -0.14319457081E+03 -0.37069360135E+02  0.15018013727E+03  0.00000000000E+00 0. -1.
         22    1    1    2    0    0 -0.80154158189E+02 -0.96861647215E+02  0.54598149588E+03  0.56027016842E+03  0.00000000000E+00 0.  1.
         22    1    1    2    0    0  0.22346113783E+02  0.18503858048E+02  0.59788065193E+02  0.66455656670E+02  0.00000000000E+00 0.  1.
</event>
<event>
 6    1  0.3624778E-005  0.1013145E+03  0.7818608E-02  0.1283658E+00
          2   -1    0    0  502    0  0.00000000000E+00  0.00000000000E+00  0.30179843890E+03  0.30179843890E+03  0.00000000000E+00 0.  1.
          1   -1    0    0  501    0 -0.00000000000E+00 -0.00000000000E+00 -0.95536349872E+02  0.95536349872E+02  0.00000000000E+00 0. -1.
          2    1    1    2  501    0  0.39959726114E+02  0.67814283688E+02  0.26717202594E-01  0.78711863762E+02  0.00000000000E+00 0.  1.
          1    1    1    2  502    0 -0.89747349995E-01 -0.38179645360E+02 -0.29201654535E+02  0.48066932521E+02  0.00000000000E+00 0. -1.
         22    1    1    2    0    0  0.29724565150E+02  0.21887231740E+02  0.29831740446E+02  0.47460862030E+02  0.00000000000E+00 0.  1.
         22    1    1    2    0    0 -0.69594543914E+02 -0.51521870068E+02  0.20560528591E+03  0.22309513046E+03  0.00000000000E+00 0.  1.
</event>
<event>
 6    1  0.3624778E-005  0.1370628E+03  0.7818608E-02  0.1263999E+00
          2   -1    0    0  502    0  0.00000000000E+00  0.00000000000E+00  0.47364709661E+02  0.47364709661E+02  0.00000000000E+00 0.  1.
          1   -1    0    0  501    0 -0.00000000000E+00 -0.00000000000E+00 -0.84805173758E+03  0.84805173758E+03  0.00000000000E+00 0.  1.
          2    1    1    2  501    0 -0.55512820020E+02  0.29918968266E+02 -0.10834729462E+03  0.12536328849E+03  0.00000000000E+00 0.  1.
          1    1    1    2  502    0  0.55854538202E+02  0.15086417573E+02 -0.61099883363E+03  0.61373194811E+03  0.00000000000E+00 0.  1.
         22    1    1    2    0    0  0.57628793836E+02 -0.22011088586E+02 -0.69345628029E+02  0.92813695252E+02  0.00000000000E+00 0.  1.
         22    1    1    2    0    0 -0.57970512017E+02 -0.22994297253E+02 -0.11995271640E+02  0.63507515393E+02  0.00000000000E+00 0.  1.
</event>
<event>
 6    1  0.3624778E-005  0.1087264E+03  0.7818608E-02  0.1317543E+00
          2   -1    0    0  502    0  0.00000000000E+00  0.00000000000E+00  0.62595528809E+02  0.62595528809E+02  0.00000000000E+00 0.  1.
          1   -1    0    0  501    0 -0.00000000000E+00 -0.00000000000E+00 -0.51028396213E+03  0.51028396213E+03  0.00000000000E+00 0.  1.
          2    1    1    2  501    0 -0.51123237179E+02 -0.37562053081E+02 -0.60739921736E+02  0.87828419682E+02  0.00000000000E+00 0.  1.
          1    1    1    2  502    0  0.86513862823E+02  0.42536176256E+02 -0.33072148007E+03  0.34448609860E+03  0.00000000000E+00 0.  1.
         22    1    1    2    0    0  0.38732417970E+02  0.53686413155E+01  0.10292728976E+02  0.40434673007E+02  0.00000000000E+00 0. -1.
         22    1    1    2    0    0 -0.74123043614E+02 -0.10342764491E+02 -0.66519760494E+02  0.10013029965E+03  0.00000000000E+00 0.  1.
</event>
<event>
 6    1  0.3624778E-005  0.8265577E+02  0.7818608E-02  0.1378792E+00
          2   -1    0    0  502    0  0.00000000000E+00  0.00000000000E+00  0.17908618949E+03  0.17908618949E+03  0.00000000000E+00 0.  1.
          1   -1    0    0  501    0 -0.00000000000E+00 -0.00000000000E+00 -0.23219225073E+03  0.23219225073E+03  0.00000000000E+00 0. -1.
          2    1    1    2  501    0 -0.38001150809E+02  0.18181538345E+02  0.33210493605E+02  0.53643197937E+02  0.00000000000E+00 0.  1.
          1    1    1    2  502    0  0.46982597606E+02 -0.38393851096E+02 -0.18860699882E+03  0.19812635433E+03  0.00000000000E+00 0. -1.
         22    1    1    2    0    0  0.20790132098E+02  0.23249776208E+02 -0.17687050317E+02  0.35855451960E+02  0.00000000000E+00 0.  1.
         22    1    1    2    0    0 -0.29771578895E+02 -0.30374634563E+01  0.11997749430E+03  0.12365343599E+03  0.00000000000E+00 0.  1.
</event>
<event>
 6    1  0.3624778E-005  0.2011538E+03  0.7818608E-02  0.1149860E+00
          2   -1    0    0  502    0  0.00000000000E+00  0.00000000000E+00  0.11762406778E+03  0.11762406778E+03  0.00000000000E+00 0. -1.
          1   -1    0    0  501    0 -0.00000000000E+00 -0.00000000000E+00 -0.47811102870E+03  0.47811102870E+03  0.00000000000E+00 0. -1.
          2    1    1    2  501    0 -0.33792412472E+02  0.39342678456E+01 -0.12575177244E+02  0.36270383054E+02  0.00000000000E+00 0. -1.
          1    1    1    2  502    0  0.13736396957E+03  0.12840068604E+03 -0.28207116491E+03  0.33899813920E+03  0.00000000000E+00 0. -1.
         22    1    1    2    0    0 -0.10434931825E+03 -0.15113196674E+03 -0.39102058892E+02  0.18777279516E+03  0.00000000000E+00 0. -1.
         22    1    1    2    0    0  0.77776115011E+00  0.18797012860E+02 -0.26738559885E+02  0.32693779065E+02  0.00000000000E+00 0.  1.
</event>
<event>
 6    1  0.3624778E-005  0.2446919E+03  0.7818608E-02  0.1252809E+00
          2   -1    0    0  502    0  0.00000000000E+00  0.00000000000E+00  0.39863510387E+03  0.39863510387E+03  0.00000000000E+00 0.  1.
          1   -1    0    0  501    0 -0.00000000000E+00 -0.00000000000E+00 -0.12162886663E+03  0.12162886663E+03  0.00000000000E+00 0.  1.
          2    1    1    2  501    0 -0.31906234687E+01 -0.50287970705E+02  0.99910567253E+02  0.11189808544E+03  0.00000000000E+00 0.  1.
          1    1    1    2  502    0 -0.14730838781E+03  0.42988767396E+02  0.14423555512E+03  0.21059841073E+03  0.00000000000E+00 0.  1.
         22    1    1    2    0    0  0.13956355642E+03  0.11315943612E+02 -0.21951220232E+02  0.14173176401E+03  0.00000000000E+00 0.  1.
         22    1    1    2    0    0  0.10935454864E+02 -0.40167403031E+01  0.54811335099E+02  0.56035710320E+02  0.00000000000E+00 0.  1.
</event>
<event>
 6    1  0.3624778E-005  0.4194108E+03  0.7818608E-02  0.1173677E+00
          2   -1    0    0  502    0  0.00000000000E+00  0.00000000000E+00  0.48480665501E+03  0.48480665501E+03  0.00000000000E+00 0.  1.
          1   -1    0    0  501    0 -0.00000000000E+00 -0.00000000000E+00 -0.18226107081E+04  0.18226107081E+04  0.00000000000E+00 0. -1.
          2    1    1    2  501    0  0.18804685911E+03  0.10381249292E+03  0.22157993563E+03  0.30860382820E+03  0.00000000000E+00 0.  1.
          1    1    1    2  502    0 -0.15063642966E+02 -0.35577903888E+02 -0.17219693157E+04  0.17224026895E+04  0.00000000000E+00 0. -1.
         22    1    1    2    0    0  0.10118456143E+02  0.72406250901E+01  0.43664037108E+02  0.45402179937E+02  0.00000000000E+00 0.  1.
         22    1    1    2    0    0 -0.18310167229E+03 -0.75475214119E+02  0.11892128987E+03  0.23100866548E+03  0.00000000000E+00 0.  1.
</event>
<event>
 6    1  0.3624778E-005  0.3605481E+03  0.7818608E-02  0.1126283E+00
          2   -1    0    0  502    0  0.00000000000E+00  0.00000000000E+00  0.38809182819E+03  0.38809182819E+03  0.00000000000E+00 0.  1.
          1   -1    0    0  501    0 -0.00000000000E+00 -0.00000000000E+00 -0.30672923021E+03  0.30672923021E+03  0.00000000000E+00 0.  1.
          2    1    1    2  501    0  0.19294804878E+03  0.17025363151E+02 -0.59160880373E+02  0.20253104030E+03  0.00000000000E+00 0.  1.
          1    1    1    2  502    0 -0.44936921601E+02  0.14975283923E+03  0.17639985307E+03  0.23571624454E+03  0.00000000000E+00 0.  1.
         22    1    1    2    0    0 -0.96302344186E+02 -0.13588432333E+03 -0.77154484459E+02  0.18355245925E+03  0.00000000000E+00 0.  1.
         22    1    1    2    0    0 -0.51708782988E+02 -0.30893879044E+02  0.41278109748E+02  0.73021314319E+02  0.00000000000E+00 0.  1.
</event>
<event>
 6    1  0.3624778E-005  0.1037733E+03  0.7818608E-02  0.1308469E+00
          2   -1    0    0  502    0  0.00000000000E+00  0.00000000000E+00  0.22230266184E+03  0.22230266184E+03  0.00000000000E+00 0. -1.
          1   -1    0    0  501    0 -0.00000000000E+00 -0.00000000000E+00 -0.35018972633E+03  0.35018972633E+03  0.00000000000E+00 0. -1.
          2    1    1    2  501    0 -0.13807580087E+01 -0.43977866643E+02 -0.98363611696E+02  0.10775601771E+03  0.00000000000E+00 0. -1.
          1    1    1    2  502    0  0.23030315847E+02  0.11251214697E+03 -0.20752121275E+03  0.23718016866E+03  0.00000000000E+00 0. -1.
         22    1    1    2    0    0 -0.23702158596E+02 -0.15590932565E+02 -0.11633088289E+02  0.30662652258E+02  0.00000000000E+00 0.  1.
         22    1    1    2    0    0  0.20526007580E+01 -0.52943347764E+02  0.18963084825E+03  0.19689354954E+03  0.00000000000E+00 0. -1.
</event>
<event>
 6    1  0.3624778E-005  0.7608417E+02  0.7818608E-02  0.1398771E+00
          2   -1    0    0  502    0  0.00000000000E+00  0.00000000000E+00  0.51451612654E+02  0.51451612654E+02  0.00000000000E+00 0. -1.
          1   -1    0    0  501    0 -0.00000000000E+00 -0.00000000000E+00 -0.32237912383E+03  0.32237912383E+03  0.00000000000E+00 0. -1.
          2    1    1    2  501    0 -0.11606291407E+01 -0.22544323727E+02 -0.35866865083E+02  0.42379542272E+02  0.00000000000E+00 0. -1.
          1    1    1    2  502    0 -0.27955994050E+02  0.37949813279E+01 -0.19726908226E+03  0.19927626628E+03  0.00000000000E+00 0. -1.
         22    1    1    2    0    0 -0.14187642469E+02 -0.24686083601E+02  0.29586289603E+02  0.41061422952E+02  0.00000000000E+00 0. -1.
         22    1    1    2    0    0  0.43304265660E+02  0.43435426000E+02 -0.67377853438E+02  0.91113504982E+02  0.00000000000E+00 0.  1.
</event>
<event>
 6    1  0.3624778E-005  0.1281826E+03  0.7818608E-02  0.1302880E+00
          2   -1    0    0  502    0  0.00000000000E+00  0.00000000000E+00  0.27108073219E+03  0.27108073219E+03  0.00000000000E+00 0. -1.
          1   -1    0    0  501    0 -0.00000000000E+00 -0.00000000000E+00 -0.33989146640E+03  0.33989146640E+03  0.00000000000E+00 0. -1.
          2    1    1    2  501    0 -0.22661730684E+02  0.17430984827E+02 -0.31384916048E+03  0.31514867730E+03  0.00000000000E+00 0. -1.
          1    1    1    2  502    0  0.78159550712E+01 -0.29468971724E+02  0.10200376465E+03  0.10646256361E+03  0.00000000000E+00 0. -1.
         22    1    1    2    0    0  0.25121590160E+02 -0.17502964941E+02 -0.10733052958E+02  0.32444514169E+02  0.00000000000E+00 0.  1.
         22    1    1    2    0    0 -0.10275814547E+02  0.29540951837E+02  0.15376771457E+03  0.15691644351E+03  0.00000000000E+00 0. -1.
</event>
<event>
 6    1  0.3624778E-005  0.6934228E+02  0.7818608E-02  0.1428788E+00
          2   -1    0    0  502    0  0.00000000000E+00  0.00000000000E+00  0.32656052247E+02  0.32656052247E+02  0.00000000000E+00 0. -1.
          1   -1    0    0  501    0 -0.00000000000E+00 -0.00000000000E+00 -0.50840499262E+03  0.50840499262E+03  0.00000000000E+00 0. -1.
          2    1    1    2  501    0 -0.15850008887E+02  0.29251056194E+02 -0.14655552388E+03  0.15028429276E+03  0.00000000000E+00 0. -1.
          1    1    1    2  502    0  0.52667002993E+02 -0.53460755088E+02 -0.16006742504E+03  0.17678644207E+03  0.00000000000E+00 0. -1.
         22    1    1    2    0    0 -0.31097610535E+02  0.86862521396E+00 -0.18341294545E+03  0.18603258975E+03  0.00000000000E+00 0. -1.
         22    1    1    2    0    0 -0.57193835714E+01  0.23341073680E+02  0.14286954004E+02  0.27957720288E+02  0.00000000000E+00 0. -1.
</event>
<event>
 6    1  0.3624778E-005  0.1625910E+03  0.7818608E-02  0.1224779E+00
          2   -1    0    0  502    0  0.00000000000E+00  0.00000000000E+00  0.21508042275E+03  0.21508042275E+03  0.00000000000E+00 0.  1.
          1   -1    0    0  501    0 -0.00000000000E+00 -0.00000000000E+00 -0.15703623385E+04  0.15703623385E+04  0.00000000000E+00 0. -1.
          2    1    1    2  501    0  0.35948591305E+02  0.26889484805E+01  0.23642112221E+02  0.43110104743E+02  0.00000000000E+00 0.  1.
          1    1    1    2  502    0 -0.15701868270E+03 -0.43339519394E+02 -0.15121729960E+04  0.15209208890E+04  0.00000000000E+00 0. -1.
         22    1    1    2    0    0  0.70815824738E+02 -0.84366421189E+01  0.61139535525E+00  0.71319224392E+02  0.00000000000E+00 0.  1.
         22    1    1    2    0    0  0.50254266654E+02  0.49087213032E+02  0.13263757271E+03  0.15009254310E+03  0.00000000000E+00 0.  1.
</event>
<event>
 6    1  0.3624778E-005  0.2890299E+03  0.7818608E-02  0.1185271E+00
          2   -1    0    0  502    0  0.00000000000E+00  0.00000000000E+00  0.57565118313E+02  0.57565118313E+02  0.00000000000E+00 0. -1.
          1   -1    0    0  501    0 -0.00000000000E+00 -0.00000000000E+00 -0.15496052848E+04  0.15496052848E+04  0.00000000000E+00 0. -1.
          2    1    1    2  501    0  0.51008621562E+02 -0.47032069424E+02 -0.48173983892E+03  0.48671055817E+03  0.00000000000E+00 0. -1.
          1    1    1    2  502    0  0.57373566192E+02 -0.14717372686E+02 -0.92260508483E+03  0.92450444548E+03  0.00000000000E+00 0. -1.
         22    1    1    2    0    0 -0.12491954149E+03  0.37576528205E+02 -0.99817727294E+02  0.16425731643E+03  0.00000000000E+00 0. -1.
         22    1    1    2    0    0  0.16537353740E+02  0.24172913904E+02  0.12122484568E+02  0.31698083025E+02  0.00000000000E+00 0.  1.
</event>
<event>
 6    1  0.3624778E-005  0.1982231E+03  0.7818608E-02  0.1197126E+00
          2   -1    0    0  502    0  0.00000000000E+00  0.00000000000E+00  0.91352797786E+03  0.91352797786E+03  0.00000000000E+00 0. -1.
          1   -1    0    0  501    0 -0.00000000000E+00 -0.00000000000E+00 -0.11987945658E+03  0.11987945658E+03  0.00000000000E+00 0. -1.
          2    1    1    2  501    0 -0.31125275696E+02 -0.38873578139E+02  0.10195287186E+03  0.11346508690E+03  0.00000000000E+00 0. -1.
          1    1    1    2  502    0  0.27278316233E+02  0.18893395540E+03 -0.10014904883E+02  0.19115555017E+03  0.00000000000E+00 0. -1.
         22    1    1    2    0    0 -0.45554823100E+02 -0.10059420883E+03  0.55983265588E+03  0.57061987290E+03  0.00000000000E+00 0. -1.
         22    1    1    2    0    0  0.49401782562E+02 -0.49466168427E+02  0.14187789842E+03  0.15816692448E+03  0.00000000000E+00 0.  1.
</event>
<event>
 6    1  0.3624778E-005  0.8645370E+02  0.7818608E-02  0.1314914E+00
          2   -1    0    0  502    0  0.00000000000E+00  0.00000000000E+00  0.83327277255E+02  0.83327277255E+02  0.00000000000E+00 0. -1.
          1   -1    0    0  501    0 -0.00000000000E+00 -0.00000000000E+00 -0.61051695787E+03  0.61051695787E+03  0.00000000000E+00 0. -1.
          2    1    1    2  501    0 -0.32525338321E+02 -0.33475738484E+02 -0.13784257541E+03  0.14553040333E+03  0.00000000000E+00 0. -1.
          1    1    1    2  502    0  0.70556203125E+02 -0.27434451036E+02 -0.39443339615E+03  0.40163233299E+03  0.00000000000E+00 0. -1.
         22    1    1    2    0    0 -0.19666565639E+02 -0.23475320981E+02 -0.39106175902E+02  0.49670489155E+02  0.00000000000E+00 0. -1.
         22    1    1    2    0    0 -0.18364299164E+02  0.84385510501E+02  0.44192466846E+02  0.97011009645E+02  0.00000000000E+00 0. -1.
</event>
<event>
 6    1  0.3624778E-005  0.4784124E+02  0.7818608E-02  0.1494755E+00
          2   -1    0    0  502    0  0.00000000000E+00  0.00000000000E+00  0.70962691350E+02  0.70962691350E+02  0.00000000000E+00 0.  1.
          1   -1    0    0  501    0 -0.00000000000E+00 -0.00000000000E+00 -0.97024262006E+03  0.97024262006E+03  0.00000000000E+00 0. -1.
          2    1    1    2  501    0  0.35766524766E+02 -0.73617581630E+01 -0.11262793927E+03  0.11839971487E+03  0.00000000000E+00 0.  1.
          1    1    1    2  502    0 -0.41424376415E+02  0.87915331193E+00 -0.80005997906E+03  0.80113215012E+03  0.00000000000E+00 0. -1.
         22    1    1    2    0    0  0.25265945600E+02 -0.13670386872E+02 -0.46976147914E+02  0.55063653684E+02  0.00000000000E+00 0.  1.
         22    1    1    2    0    0 -0.19608093951E+02  0.20152991723E+02  0.60384137526E+02  0.66609792737E+02  0.00000000000E+00 0.  1.
</event>
<event>
 6    1  0.3624778E-005  0.3161411E+03  0.7818608E-02  0.1160022E+00
          2   -1    0    0  502    0  0.00000000000E+00  0.00000000000E+00  0.37621748490E+03  0.37621748490E+03  0.00000000000E+00 0. -1.
          1   -1    0    0  501    0 -0.00000000000E+00 -0.00000000000E+00 -0.50839020623E+03  0.50839020623E+03  0.00000000000E+00 0.  1.
          2    1    1    2  501    0  0.62007271367E+02 -0.18973309702E+03  0.24047123967E+03  0.31252194630E+03  0.00000000000E+00 0. -1.
          1    1    1    2  502    0 -0.59013667109E+02  0.18512944319E+03 -0.39878269090E+03  0.44360247768E+03  0.00000000000E+00 0.  1.
         22    1    1    2    0    0  0.38037496661E+02 -0.11614872792E+02  0.60609861661E+02  0.72493529041E+02  0.00000000000E+00 0. -1.
         22    1    1    2    0    0 -0.41031100920E+02  0.16218526622E+02 -0.34471131768E+02  0.55989738112E+02  0.00000000000E+00 0.  1.
</event>
<event>
 6    1  0.3624778E-005  0.3355349E+03  0.7818608E-02  0.1121821E+00
          2   -1    0    0  502    0  0.00000000000E+00  0.00000000000E+00  0.11945979389E+03  0.11945979389E+03  0.00000000000E+00 0. -1.
          1   -1    0    0  501    0 -0.00000000000E+00 -0.00000000000E+00 -0.16932940726E+04  0.16932940726E+04  0.00000000000E+00 0.  1.
          2    1    1    2  501    0  0.13074775989E+03  0.23413426536E+02 -0.44890233563E+03  0.46814150873E+03  0.00000000000E+00 0. -1.
          1    1    1    2  502    0  0.22337404716E+02 -0.29506232916E+02 -0.11479871431E+04  0.11485835007E+04  0.00000000000E+00 0.  1.
         22    1    1    2    0    0 -0.87846885616E+02 -0.48843552057E+02 -0.16768170879E+02  0.10190161650E+03  0.00000000000E+00 0. -1.
         22    1    1    2    0    0 -0.65238278990E+02  0.54936358438E+02  0.39823370969E+02  0.94127240474E+02  0.00000000000E+00 0. -1.
</event>
<event>
 6    1  0.3624778E-005  0.9583274E+02  0.7818608E-02  0.1389859E+00
          2   -1    0    0  502    0  0.00000000000E+00  0.00000000000E+00  0.10760210360E+03  0.10760210360E+03  0.00000000000E+00 0.  1.
          1   -1    0    0  501    0 -0.00000000000E+00 -0.00000000000E+00 -0.28738609880E+03  0.28738609880E+03  0.00000000000E+00 0.  1.
          2    1    1    2  501    0  0.47816205812E+01  0.24713887615E+02  0.16404597315E+02  0.30045814176E+02  0.00000000000E+00 0.  1.
          1    1    1    2  502    0  0.35685976552E+02  0.40795790327E+01 -0.22625817501E+03  0.22909145259E+03  0.00000000000E+00 0.  1.
         22    1    1    2    0    0 -0.53056177028E+02 -0.39806600995E+02 -0.30506555836E+02  0.73008036220E+02  0.00000000000E+00 0.  1.
         22    1    1    2    0    0  0.12588579896E+02  0.11013134348E+02  0.60576138337E+02  0.62842899422E+02  0.00000000000E+00 0.  1.
</event>
<event>
 6    1  0.3624778E-005  0.4802725E+02  0.7818608E-02  0.1491726E+00
          2   -1    0    0  502    0  0.00000000000E+00  0.00000000000E+00  0.46972420430E+02  0.46972420430E+02  0.00000000000E+00 0. -1.
          1   -1    0    0  501    0 -0.00000000000E+00 -0.00000000000E+00 -0.72066456738E+03  0.72066456738E+03  0.00000000000E+00 0. -1.
          2    1    1    2  501    0 -0.29259468339E+02 -0.26215274798E+02 -0.90985230080E+02  0.99104334985E+02  0.00000000000E+00 0. -1.
          1    1    1    2  502    0  0.19525903577E+02  0.68003561395E+01 -0.53676519898E+03  0.53716327554E+03  0.00000000000E+00 0. -1.
         22    1    1    2    0    0  0.27431627570E+02  0.74903823382E+01  0.36466456729E+02  0.46242864153E+02  0.00000000000E+00 0. -1.
         22    1    1    2    0    0 -0.17698062809E+02  0.11924536320E+02 -0.82408174624E+02  0.85126513135E+02  0.00000000000E+00 0. -1.
</event>
<event>
 6    1  0.3624778E-005  0.5216540E+02  0.7818608E-02  0.1452339E+00
          2   -1    0    0  502    0  0.00000000000E+00  0.00000000000E+00  0.71687983103E+02  0.71687983103E+02  0.00000000000E+00 0.  1.
          1   -1    0    0  501    0 -0.00000000000E+00 -0.00000000000E+00 -0.85879801576E+03  0.85879801576E+03  0.00000000000E+00 0. -1.
          2    1    1    2  501    0  0.13063467537E+02  0.41227424818E+02 -0.10098860083E+03  0.10985923830E+03  0.00000000000E+00 0.  1.
          1    1    1    2  502    0  0.10907350599E+02 -0.30292148801E+02 -0.68837052703E+03  0.68912304203E+03  0.00000000000E+00 0. -1.
         22    1    1    2    0    0 -0.38596376139E+02 -0.97313213663E+01  0.59952739357E+02  0.71963253283E+02  0.00000000000E+00 0.  1.
         22    1    1    2    0    0  0.14625558004E+02 -0.12039546513E+01 -0.57703644155E+02  0.59540465252E+02  0.00000000000E+00 0.  1.
</event>
<event>
 6    1  0.3624778E-005  0.1092428E+03  0.7818608E-02  0.1366886E+00
          2   -1    0    0  502    0  0.00000000000E+00  0.00000000000E+00  0.63182804585E+02  0.63182804585E+02  0.00000000000E+00 0. -1.
          1   -1    0    0  501    0 -0.00000000000E+00 -0.00000000000E+00 -0.41825737670E+03  0.41825737670E+03  0.00000000000E+00 0. -1.
          2    1    1    2  501    0 -0.15551865055E+02 -0.47706722566E+02 -0.11406566154E+03  0.12461447359E+03  0.00000000000E+00 0. -1.
          1    1    1    2  502    0  0.30266729534E+02  0.98557432534E+02 -0.17952349598E+03  0.20702253025E+03  0.00000000000E+00 0. -1.
         22    1    1    2    0    0 -0.12675406308E+02  0.10468970835E+02  0.33159862381E+02  0.37011373232E+02  0.00000000000E+00 0. -1.
         22    1    1    2    0    0 -0.20394581707E+01 -0.61319680803E+02 -0.94645276977E+02  0.11279180421E+03  0.00000000000E+00 0. -1.
</event>
<event>
 6    1  0.3624778E-005  0.3988097E+02  0.7818608E-02  0.1527853E+00
          2   -1    0    0  502    0  0.00000000000E+00  0.00000000000E+00  0.64699144110E+02  0.64699144110E+02  0.00000000000E+00 0. -1.
          1   -1    0    0  501    0 -0.00000000000E+00 -0.00000000000E+00 -0.42848639035E+03  0.42848639035E+03  0.00000000000E+00 0. -1.
          2    1    1    2  501    0  0.30987143997E+02  0.79132444226E+01 -0.74612629547E+02  0.81177995900E+02  0.00000000000E+00 0. -1.
          1    1    1    2  502    0 -0.34108876374E+02  0.17873197839E+02 -0.28661697622E+03  0.28919225042E+03  0.00000000000E+00 0. -1.
         22    1    1    2    0    0 -0.11288453480E+02 -0.28886713548E+02  0.55140516654E+02  0.63264112879E+02  0.00000000000E+00 0. -1.
         22    1    1    2    0    0  0.14410185857E+02  0.31002712860E+01 -0.57698157130E+02  0.59551175259E+02  0.00000000000E+00 0.  1.
</event>
<event>
 6    1  0.3624778E-005  0.9205118E+02  0.7818608E-02  0.1386656E+00
          2   -1    0    0  502    0  0.00000000000E+00  0.00000000000E+00  0.11123624133E+03  0.11123624133E+03  0.00000000000E+00 0. -1.
          1   -1    0    0  501    0 -0.00000000000E+00 -0.00000000000E+00 -0.20376269799E+03  0.20376269799E+03  0.00000000000E+00 0. -1.
          2    1    1    2  501    0  0.14548600520E+02  0.15792033977E+02 -0.18392396404E+02  0.28272431089E+02  0.00000000000E+00 0. -1.
          1    1    1    2  502    0 -0.77626215315E+02 -0.23068075759E+02 -0.11838980658E+03  0.14343678651E+03  0.00000000000E+00 0. -1.
         22    1    1    2    0    0  0.77737824096E+02  0.20692504385E+02 -0.14074956745E+02  0.81666721743E+02  0.00000000000E+00 0. -1.
         22    1    1    2    0    0 -0.14660209301E+02 -0.13416462603E+02  0.58330703067E+02  0.61622999975E+02  0.00000000000E+00 0.  1.
</event>
<event>
 6    1  0.3624778E-005  0.7857235E+02  0.7818608E-02  0.1370587E+00
          2   -1    0    0  502    0  0.00000000000E+00  0.00000000000E+00  0.20469014924E+02  0.20469014924E+02  0.00000000000E+00 0.  1.
          1   -1    0    0  501    0 -0.00000000000E+00 -0.00000000000E+00 -0.63549429460E+03  0.63549429460E+03  0.00000000000E+00 0.  1.
          2    1    1    2  501    0 -0.37455958443E+02  0.32190392064E+02 -0.18369964887E+03  0.19022284605E+03  0.00000000000E+00 0.  1.
          1    1    1    2  502    0  0.45753235090E+02 -0.13227284633E+02 -0.17743222276E+03  0.18371312760E+03  0.00000000000E+00 0.  1.
         22    1    1    2    0    0  0.41324235020E+02 -0.43546224577E+01 -0.27568789881E+02  0.49866755582E+02  0.00000000000E+00 0.  1.
         22    1    1    2    0    0 -0.49621511667E+02 -0.14608484973E+02 -0.22632461816E+03  0.23216058029E+03  0.00000000000E+00 0.  1.
</event>
<event>
 6    1  0.3624778E-005  0.1508586E+03  0.7818608E-02  0.1326164E+00
          2   -1    0    0  502    0  0.00000000000E+00  0.00000000000E+00  0.86601716732E+02  0.86601716732E+02  0.00000000000E+00 0. -1.
          1   -1    0    0  501    0 -0.00000000000E+00 -0.00000000000E+00 -0.92639606809E+03  0.92639606809E+03  0.00000000000E+00 0. -1.
          2    1    1    2  501    0 -0.88470632894E+02 -0.41632533904E+02 -0.15168011036E+03  0.18046378208E+03  0.00000000000E+00 0. -1.
          1    1    1    2  502    0  0.13001976167E+03  0.71210642586E+02 -0.68361329782E+03  0.69950213366E+03  0.00000000000E+00 0. -1.
         22    1    1    2    0    0 -0.32099486721E+02 -0.37843326000E+02 -0.59006584758E+02  0.77099101262E+02  0.00000000000E+00 0. -1.
         22    1    1    2    0    0 -0.94496420564E+01  0.82652173187E+01  0.54505641577E+02  0.55932767821E+02  0.00000000000E+00 0.  1.
</event>
<event>
 6    1  0.3624778E-005  0.2896059E+03  0.7818608E-02  0.1206148E+00
          2   -1    0    0  502    0  0.00000000000E+00  0.00000000000E+00  0.68340617946E+02  0.68340617946E+02  0.00000000000E+00 0. -1.
          1   -1    0    0  501    0 -0.00000000000E+00 -0.00000000000E+00 -0.17633609680E+04  0.17633609680E+04  0.00000000000E+00 0. -1.
          2    1    1    2  501    0 -0.84346748274E+01 -0.99331827190E+02 -0.28318975147E+03  0.30022390140E+03  0.00000000000E+00 0. -1.
          1    1    1    2  502    0  0.14461103789E+03  0.59089046580E+02 -0.13024068627E+04  0.13117421635E+04  0.00000000000E+00 0. -1.
         22    1    1    2    0    0  0.12018705631E+02 -0.13982693818E+02  0.10785528362E+02  0.21361007315E+02  0.00000000000E+00 0. -1.
         22    1    1    2    0    0 -0.14819506870E+03  0.54225474428E+02 -0.12020926429E+03  0.19837451370E+03  0.00000000000E+00 0. -1.
</event>
<event>
 6    1  0.3624778E-005  0.9787643E+02  0.7818608E-02  0.1286626E+00
          2   -1    0    0  502    0  0.00000000000E+00  0.00000000000E+00  0.48736759983E+03  0.48736759983E+03  0.00000000000E+00 0.  1.
          1   -1    0    0  501    0 -0.00000000000E+00 -0.00000000000E+00 -0.29432789403E+02  0.29432789403E+02  0.00000000000E+00 0.  1.
          2    1    1    2  501    0  0.55845212621E+02 -0.42869243412E+01  0.10546544059E+03  0.11941534513E+03  0.00000000000E+00 0.  1.
          1    1    1    2  502    0 -0.76376271955E+00  0.20378492041E+02  0.84812591261E+00  0.20410428435E+02  0.00000000000E+00 0.  1.
         22    1    1    2    0    0 -0.94168611513E+02 -0.13541336902E+02  0.22102801167E+03  0.24063349132E+03  0.00000000000E+00 0.  1.
         22    1    1    2    0    0  0.39087161611E+02 -0.25502307974E+01  0.13059323225E+03  0.13634112436E+03  0.00000000000E+00 0.  1.
</event>
<event>
 6    1  0.3624778E-005  0.1006909E+03  0.7818608E-02  0.1373081E+00
          2   -1    0    0  502    0  0.00000000000E+00  0.00000000000E+00  0.38192845521E+02  0.38192845521E+02  0.00000000000E+00 0. -1.
          1   -1    0    0  501    0 -0.00000000000E+00 -0.00000000000E+00 -0.23105279139E+04  0.23105279139E+04  0.00000000000E+00 0. -1.
          2    1    1    2  501    0 -0.41582151979E+02 -0.63634328598E+01 -0.18222689445E+03  0.18701927629E+03  0.00000000000E+00 0. -1.
          1    1    1    2  502    0  0.21485114474E+02  0.42353577402E+02 -0.20054739192E+04  0.20060361603E+04  0.00000000000E+00 0. -1.
         22    1    1    2    0    0  0.22571581730E+02 -0.54775570595E+02 -0.10944257235E+03  0.12444884925E+03  0.00000000000E+00 0. -1.
         22    1    1    2    0    0 -0.24745442244E+01  0.18785426052E+02  0.24808317639E+02  0.31216473619E+02  0.00000000000E+00 0. -1.
</event>
<event>
 6    1  0.3624778E-005  0.8137851E+02  0.7818608E-02  0.1329249E+00
          2   -1    0    0  502    0  0.00000000000E+00  0.00000000000E+00  0.52608748330E+02  0.52608748330E+02  0.00000000000E+00 0.  1.
          1   -1    0    0  501    0 -0.00000000000E+00 -0.00000000000E+00 -0.43062772312E+03  0.43062772312E+03  0.00000000000E+00 0. -1.
          2    1    1    2  501    0  0.15214392931E+02  0.24284406060E+02 -0.25761382932E+02  0.38533867967E+02  0.00000000000E+00 0.  1.
          1    1    1    2  502    0 -0.21212912690E+02  0.88947614266E+01 -0.30792776234E+03  0.30878570444E+03  0.00000000000E+00 0. -1.
         22    1    1    2    0    0  0.20680550400E+02  0.42707216369E+02 -0.13344575220E+01  0.47469698459E+02  0.00000000000E+00 0. -1.
         22    1    1    2    0    0 -0.14682030641E+02 -0.75886383856E+02 -0.42995371996E+02  0.88447200586E+02  0.00000000000E+00 0. -1.
</event>
<event>
 6    1  0.3624778E-005  0.7901400E+02  0.7818608E-02  0.1342808E+00
          2   -1    0    0  502    0  0.00000000000E+00  0.00000000000E+00  0.37636129684E+03  0.37636129684E+03  0.00000000000E+00 0.  1.
          1   -1    0    0  501    0 -0.00000000000E+00 -0.00000000000E+00 -0.24791405578E+02  0.24791405578E+02  0.00000000000E+00 0.  1.
          2    1    1    2  501    0  0.22039022218E+02 -0.63268499213E+01  0.54383643802E+02  0.59019727578E+02  0.00000000000E+00 0.  1.
          1    1    1    2  502    0 -0.22753983940E+02  0.39072382827E+01  0.68696902855E+01  0.24087402118E+02  0.00000000000E+00 0.  1.
         22    1    1    2    0    0  0.34841839687E+01 -0.58426561200E+02  0.20517542195E+03  0.21336062515E+03  0.00000000000E+00 0.  1.
         22    1    1    2    0    0 -0.27692222467E+01  0.60846172839E+02  0.85141135218E+02  0.10468494757E+03  0.00000000000E+00 0.  1.
</event>
<event>
 6    1  0.3624778E-005  0.6261692E+02  0.7818608E-02  0.1391226E+00
          2   -1    0    0  502    0  0.00000000000E+00  0.00000000000E+00  0.71497348794E+02  0.71497348794E+02  0.00000000000E+00 0. -1.
          1   -1    0    0  501    0 -0.00000000000E+00 -0.00000000000E+00 -0.33552305195E+04  0.33552305195E+04  0.00000000000E+00 0. -1.
          2    1    1    2  501    0  0.50676978853E+02 -0.39096682845E+02 -0.11478907572E+03  0.13142769380E+03  0.00000000000E+00 0. -1.
          1    1    1    2  502    0 -0.43073312816E+02  0.24497896084E+02 -0.31656961072E+04  0.31660839061E+04  0.00000000000E+00 0. -1.
         22    1    1    2    0    0  0.35596834645E+02 -0.19593102108E+02 -0.44596844833E+02  0.60331607438E+02  0.00000000000E+00 0. -1.
         22    1    1    2    0    0 -0.43200500682E+02  0.34191888869E+02  0.41348857111E+02  0.68884660905E+02  0.00000000000E+00 0. -1.
</event>
<event>
 6    1  0.3624778E-005  0.1872603E+03  0.7818608E-02  0.1218035E+00
          2   -1    0    0  502    0  0.00000000000E+00  0.00000000000E+00  0.45036041548E+03  0.45036041548E+03  0.00000000000E+00 0. -1.
          1   -1    0    0  501    0 -0.00000000000E+00 -0.00000000000E+00 -0.98294976968E+02  0.98294976968E+02  0.00000000000E+00 0. -1.
          2    1    1    2  501    0  0.12249742058E+03 -0.25634703524E+01  0.74567413551E+02  0.14343112840E+03  0.00000000000E+00 0. -1.
          1    1    1    2  502    0 -0.15528003767E+03  0.25579990519E+01  0.10363214556E+03  0.18670312009E+03  0.00000000000E+00 0. -1.
         22    1    1    2    0    0  0.66617811348E+02 -0.40736483488E+02  0.11841341969E+03  0.14184192554E+03  0.00000000000E+00 0. -1.
         22    1    1    2    0    0 -0.33835194265E+02  0.40741954788E+02  0.55452459706E+02  0.76679218426E+02  0.00000000000E+00 0. -1.
</event>
<event>
 6    1  0.3624778E-005  0.1786647E+03  0.7818608E-02  0.1273007E+00
          2   -1    0    0  502    0  0.00000000000E+00  0.00000000000E+00  0.22720029803E+03  0.22720029803E+03  0.00000000000E+00 0.  1.
          1   -1    0    0  501    0 -0.00000000000E+00 -0.00000000000E+00 -0.13118587296E+03  0.13118587296E+03  0.00000000000E+00 0.  1.
          2    1    1    2  501    0 -0.74396240143E+02  0.61467313260E+02 -0.46194363452E+02  0.10699042182E+03  0.00000000000E+00 0.  1.
          1    1    1    2  502    0  0.27114078650E+02 -0.53394233439E+02  0.23448764928E+01  0.59930091535E+02  0.00000000000E+00 0.  1.
         22    1    1    2    0    0  0.67056389193E+02 -0.11989211358E+02  0.21550662731E+02  0.71447404325E+02  0.00000000000E+00 0.  1.
         22    1    1    2    0    0 -0.19774227701E+02  0.39161315375E+01  0.11831324930E+03  0.12001825331E+03  0.00000000000E+00 0.  1.
</event>
<event>
 6    1  0.3624778E-005  0.7738088E+02  0.7818608E-02  0.1344865E+00
          2   -1    0    0  502    0  0.00000000000E+00  0.00000000000E+00  0.36405030755E+03  0.36405030755E+03  0.00000000000E+00 0. -1.
          1   -1    0    0  501    0 -0.00000000000E+00 -0.00000000000E+00 -0.66308553334E+02  0.66308553334E+02  0.00000000000E+00 0. -1.
          2    1    1    2  501    0 -0.12471735476E+02  0.50572452672E+02 -0.33302708032E+01  0.52193944655E+02  0.00000000000E+00 0. -1.
          1    1    1    2  502    0  0.96129734510E+01 -0.18837686035E+02 -0.21456705252E+02  0.30127360887E+02  0.00000000000E+00 0. -1.
         22    1    1    2    0    0 -0.23121473682E+02  0.28147488189E+02  0.26884911378E+02  0.45273414896E+02  0.00000000000E+00 0. -1.
         22    1    1    2    0    0  0.25980235707E+02 -0.59882254826E+02  0.29564381889E+03  0.30276414045E+03  0.00000000000E+00 0. -1.
</event>
<event>
 6    1  0.3624778E-005  0.1077707E+03  0.7818608E-02  0.1378185E+00
          2   -1    0    0  502    0  0.00000000000E+00  0.00000000000E+00  0.66683491989E+02  0.66683491989E+02  0.00000000000E+00 0. -1.
          1   -1    0    0  501    0 -0.00000000000E+00 -0.00000000000E+00 -0.10502694898E+04  0.10502694898E+04  0.00000000000E+00 0.  1.
          2    1    1    2  501    0 -0.24172673324E+02 -0.43257559350E+01  0.17239476545E+02  0.30003830615E+02  0.00000000000E+00 0. -1.
          1    1    1    2  502    0 -0.94329318764E+01  0.22016064442E+02 -0.94766670717E+03  0.94796934295E+03  0.00000000000E+00 0.  1.
         22    1    1    2    0    0 -0.82346309261E+01 -0.11582526614E+02  0.36870945395E+02  0.39514942536E+02  0.00000000000E+00 0. -1.
         22    1    1    2    0    0  0.41840236127E+02 -0.61077818928E+01 -0.90029712598E+02  0.99464865703E+02  0.00000000000E+00 0. -1.
</event>
<event>
 6    1  0.3624778E-005  0.1783931E+03  0.7818608E-02  0.1207251E+00
          2   -1    0    0  502    0  0.00000000000E+00  0.00000000000E+00  0.12096947724E+03  0.12096947724E+03  0.00000000000E+00 0.  1.
          1   -1    0    0  501    0 -0.00000000000E+00 -0.00000000000E+00 -0.42283077905E+03  0.42283077905E+03  0.00000000000E+00 0.  1.
          2    1    1    2  501    0  0.51566117576E+02  0.70730838666E+02 -0.12102622689E+03  0.14936285889E+03  0.00000000000E+00 0.  1.
          1    1    1    2  502    0 -0.13406790682E+03 -0.76141605671E+02 -0.18843790832E+03  0.24347606257E+03  0.00000000000E+00 0.  1.
         22    1    1    2    0    0  0.48757060580E+02 -0.59647937861E+02  0.96598802109E+01  0.77643034028E+02  0.00000000000E+00 0.  1.
         22    1    1    2    0    0  0.33744728664E+02  0.65058704867E+02 -0.20570468101E+01  0.73318300806E+02  0.00000000000E+00 0.  1.
</event>
<event>
 6    1  0.3624778E-005  0.1470168E+03  0.7818608E-02  0.1223960E+00
          2   -1    0    0  502    0  0.00000000000E+00  0.00000000000E+00  0.69216894766E+03  0.69216894766E+03  0.00000000000E+00 0. -1.
          1   -1    0    0  501    0 -0.00000000000E+00 -0.00000000000E+00 -0.11719747225E+03  0.11719747225E+03  0.00000000000E+00 0.  1.
          2    1    1    2  501    0 -0.61667777495E+01  0.10785734120E+03  0.43244899801E+02  0.11636733458E+03  0.00000000000E+00 0. -1.
          1    1    1    2  502    0  0.92060798503E+02 -0.12332387668E+03  0.16064894863E+02  0.15473218808E+03  0.00000000000E+00 0.  1.
         22    1    1    2    0    0 -0.95034469946E+02 -0.17652468149E+02  0.47634719116E+03  0.48605535347E+03  0.00000000000E+00 0. -1.
         22    1    1    2    0    0  0.91404491922E+01  0.33119003625E+02  0.39314489585E+02  0.52211543780E+02  0.00000000000E+00 0. -1.
</event>
<event>
 6    1  0.3624778E-005  0.1914853E+03  0.7818608E-02  0.1175955E+00
          2   -1    0    0  502    0  0.00000000000E+00  0.00000000000E+00  0.21754450016E+03  0.21754450016E+03  0.00000000000E+00 0. -1.
          1   -1    0    0  501    0 -0.00000000000E+00 -0.00000000000E+00 -0.79770684371E+03  0.79770684371E+03  0.00000000000E+00 0.  1.
          2    1    1    2  501    0 -0.16381441833E+03  0.17391320756E+02  0.38648029942E+02  0.16920783643E+03  0.00000000000E+00 0. -1.
          1    1    1    2  502    0  0.16553770058E+03  0.84893970555E+02 -0.65726698243E+03  0.68308828327E+03  0.00000000000E+00 0.  1.
         22    1    1    2    0    0 -0.21748930232E+02  0.20244512893E+02  0.23538548506E+02  0.37906721492E+02  0.00000000000E+00 0.  1.
         22    1    1    2    0    0  0.20025647984E+02 -0.12252980420E+03  0.14918060422E+02  0.12504850268E+03  0.00000000000E+00 0. -1.
</event>
<event>
 6    1  0.3624778E-005  0.1774648E+03  0.7818608E-02  0.1229485E+00
          2   -1    0    0  502    0  0.00000000000E+00  0.00000000000E+00  0.36237528031E+03  0.36237528031E+03  0.00000000000E+00 0. -1.
          1   -1    0    0  501    0 -0.00000000000E+00 -0.00000000000E+00 -0.33813521827E+03  0.33813521827E+03  0.00000000000E+00 0.  1.
          2    1    1    2  501    0 -0.28723991411E+02 -0.28342144854E+02 -0.64526900650E+01  0.40865414063E+02  0.00000000000E+00 0. -1.
          1    1    1    2  502    0  0.10811899941E+02  0.19972408517E+02 -0.30180571518E+03  0.30265902266E+03  0.00000000000E+00 0.  1.
         22    1    1    2    0    0 -0.47550874156E+02 -0.22134813098E+02  0.92264217167E+02  0.10613068055E+03  0.00000000000E+00 0. -1.
         22    1    1    2    0    0  0.65462965626E+02  0.30504549435E+02  0.24023425012E+03  0.25085538132E+03  0.00000000000E+00 0. -1.
</event>
<event>
 6    1  0.3624778E-005  0.7940727E+02  0.7818608E-02  0.1332962E+00
          2   -1    0    0  502    0  0.00000000000E+00  0.00000000000E+00  0.24820063501E+02  0.24820063501E+02  0.00000000000E+00 0.  1.
          1   -1    0    0  501    0 -0.00000000000E+00 -0.00000000000E+00 -0.43618935834E+03  0.43618935834E+03  0.00000000000E+00 0.  1.
          2    1    1    2  501    0 -0.11050500060E+02 -0.21287252544E+02 -0.19181536610E+02  0.30711431409E+02  0.00000000000E+00 0.  1.
          1    1    1    2  502    0  0.23436202045E+02 -0.14578839424E+02 -0.16026046132E+03  0.16261984377E+03  0.00000000000E+00 0.  1.
         22    1    1    2    0    0 -0.83316595560E+01 -0.48455320354E+02 -0.81488139668E+02  0.95171694994E+02  0.00000000000E+00 0.  1.
         22    1    1    2    0    0 -0.40540424281E+01  0.84321412321E+02 -0.15043915725E+03  0.17250645167E+03  0.00000000000E+00 0.  1.
</event>
<event>
 6    1  0.3624778E-005  0.2078309E+03  0.7818608E-02  0.1258937E+00
          2   -1    0    0  502    0  0.00000000000E+00  0.00000000000E+00  0.14958252616E+03  0.14958252616E+03  0.00000000000E+00 0. -1.
          1   -1    0    0  501    0 -0.00000000000E+00 -0.00000000000E+00 -0.31089171941E+03  0.31089171941E+03  0.00000000000E+00 0. -1.
          2    1    1    2  501    0  0.44177518358E+02  0.92435490582E+02  0.18287508517E+02  0.10406923664E+03  0.00000000000E+00 0. -1.
          1    1    1    2  502    0  0.37308657896E+02 -0.11897843347E+03 -0.15692528351E+03  0.20043290196E+03  0.00000000000E+00 0. -1.
         22    1    1    2    0    0  0.95842533626E+01 -0.13848423113E+02  0.36430236593E+02  0.40134758919E+02  0.00000000000E+00 0.  1.
         22    1    1    2    0    0 -0.91070429617E+02  0.40391366001E+02 -0.59101654854E+02  0.11583734806E+03  0.00000000000E+00 0.  1.
</event>
<event>
 6    1  0.3624778E-005  0.7277584E+02  0.7818608E-02  0.1394863E+00
          2   -1    0    0  502    0  0.00000000000E+00  0.00000000000E+00  0.20391345283E+03  0.20391345283E+03  0.00000000000E+00 0.  1.
          1   -1    0    0  501    0 -0.00000000000E+00 -0.00000000000E+00 -0.75488627191E+02  0.75488627191E+02  0.00000000000E+00 0.  1.
          2    1    1    2  501    0 -0.24715032061E+02  0.13541906679E+02 -0.16797083204E+02  0.32807896160E+02  0.00000000000E+00 0.  1.
          1    1    1    2  502    0  0.46366806720E+02  0.30344552438E+02  0.76829178722E+02  0.94728007111E+02  0.00000000000E+00 0.  1.
         22    1    1    2    0    0 -0.45187437689E+02 -0.17643621030E+02 -0.23164892464E+02  0.53756991460E+02  0.00000000000E+00 0.  1.
         22    1    1    2    0    0  0.23535663031E+02 -0.26242838087E+02  0.91557622584E+02  0.98109185291E+02  0.00000000000E+00 0. -1.
</event>
<event>
 6    1  0.3624778E-005  0.5678520E+02  0.7818608E-02  0.1439727E+00
          2   -1    0    0  502    0  0.00000000000E+00  0.00000000000E+00  0.91905661184E+02  0.91905661184E+02  0.00000000000E+00 0. -1.
          1   -1    0    0  501    0 -0.00000000000E+00 -0.00000000000E+00 -0.17885775574E+04  0.17885775574E+04  0.00000000000E+00 0.  1.
          2    1    1    2  501    0 -0.38740459779E+02 -0.19806371624E+01 -0.53790857148E+01  0.39162235771E+02  0.00000000000E+00 0. -1.
          1    1    1    2  502    0  0.47498781150E+02 -0.13903580620E+02 -0.17132883901E+04  0.17140030780E+04  0.00000000000E+00 0.  1.
         22    1    1    2    0    0  0.34580153097E+02  0.13465837974E+02  0.59386616972E+02  0.70027752041E+02  0.00000000000E+00 0. -1.
         22    1    1    2    0    0 -0.43338474468E+02  0.24183798079E+01 -0.37391037419E+02  0.57290152813E+02  0.00000000000E+00 0. -1.
</event>
<event>
 6    1  0.3624778E-005  0.7150200E+02  0.7818608E-02  0.1356046E+00
          2   -1    0    0  502    0  0.00000000000E+00  0.00000000000E+00  0.11481444093E+03  0.11481444093E+03  0.00000000000E+00 0.  1.
          1   -1    0    0  501    0 -0.00000000000E+00 -0.00000000000E+00 -0.14075844740E+03  0.14075844740E+03  0.00000000000E+00 0.  1.
          2    1    1    2  501    0 -0.37140446179E+02 -0.18072912715E+02 -0.55266133415E+02  0.68995568111E+02  0.00000000000E+00 0.  1.
          1    1    1    2  502    0  0.34371596312E+02 -0.34412291181E+02  0.47531157414E+01  0.48869259526E+02  0.00000000000E+00 0.  1.
         22    1    1    2    0    0 -0.16146506384E+02 -0.18700570006E+02 -0.35094560980E+02  0.42919100612E+02  0.00000000000E+00 0.  1.
         22    1    1    2    0    0  0.18915356251E+02  0.71185773901E+02  0.59663572184E+02  0.94788960084E+02  0.00000000000E+00 0. -1.
</event>
<event>
 6    1  0.3624778E-005  0.9818910E+02  0.7818608E-02  0.1309880E+00
          2   -1    0    0  502    0  0.00000000000E+00  0.00000000000E+00  0.10429779049E+03  0.10429779049E+03  0.00000000000E+00 0. -1.
          1   -1    0    0  501    0 -0.00000000000E+00 -0.00000000000E+00 -0.24523440835E+03  0.24523440835E+03  0.00000000000E+00 0.  1.
          2    1    1    2  501    0 -0.11531255513E+02  0.25905691597E+02 -0.32640504513E+02  0.43237451888E+02  0.00000000000E+00 0. -1.
          1    1    1    2  502    0  0.54351561425E+02 -0.27925249523E+02 -0.15105574762E+03  0.16294707938E+03  0.00000000000E+00 0.  1.
         22    1    1    2    0    0 -0.72633616804E+01 -0.60529453715E+02  0.27573906227E+01  0.61026014068E+02  0.00000000000E+00 0. -1.
         22    1    1    2    0    0 -0.35556944231E+02  0.62549011641E+02  0.40002243646E+02  0.82321653512E+02  0.00000000000E+00 0. -1.
</event>
<event>
 6    1  0.3624778E-005  0.7431372E+02  0.7818608E-02  0.1350253E+00
          2   -1    0    0  502    0  0.00000000000E+00  0.00000000000E+00  0.59379161725E+03  0.59379161725E+03  0.00000000000E+00 0.  1.
          1   -1    0    0  501    0 -0.00000000000E+00 -0.00000000000E+00 -0.12951716099E+02  0.12951716099E+02  0.00000000000E+00 0. -1.
          2    1    1    2  501    0 -0.14067378012E+02 -0.17168021500E+02  0.73434560908E+02  0.76715492713E+02  0.00000000000E+00 0.  1.
          1    1    1    2  502    0  0.22518861905E+02 -0.76993151351E+01  0.48977137814E+02  0.54453086446E+02  0.00000000000E+00 0. -1.
         22    1    1    2    0    0  0.45578641785E+02  0.40725671293E+02  0.14874361343E+03  0.16081248529E+03  0.00000000000E+00 0. -1.
         22    1    1    2    0    0 -0.54030125678E+02 -0.15858334658E+02  0.30968458899E+03  0.31476226889E+03  0.00000000000E+00 0.  1.
</event>
<event>
 6    1  0.3624778E-005  0.3208928E+03  0.7818608E-02  0.1077070E+00
          2   -1    0    0  502    0  0.00000000000E+00  0.00000000000E+00  0.54297800472E+03  0.54297800472E+03  0.00000000000E+00 0.  1.
          1   -1    0    0  501    0 -0.00000000000E+00 -0.00000000000E+00 -0.75290548828E+03  0.75290548828E+03  0.00000000000E+00 0.  1.
          2    1    1    2  501    0 -0.28236920137E+03 -0.11704348782E+02 -0.26421014953E+03  0.38688029257E+03  0.00000000000E+00 0.  1.
          1    1    1    2  502    0 -0.11945402153E+02 -0.16861733222E+02 -0.37406640894E+03  0.37463674270E+03  0.00000000000E+00 0.  1.
         22    1    1    2    0    0  0.30558261288E+03  0.30810783971E+02  0.41924121561E+03  0.51970494953E+03  0.00000000000E+00 0.  1.
         22    1    1    2    0    0 -0.11268009351E+02 -0.22447019670E+01  0.91078593033E+01  0.14661508202E+02  0.00000000000E+00 0. -1.
</event>
<event>
 6    1  0.5691623E-005  0.6681491E+02  0.7818608E-02  0.1424509E+00
          2   -1    0    0  502    0  0.00000000000E+00  0.00000000000E+00  0.74229201874E+02  0.74229201874E+02  0.00000000000E+00 0.  1.
          1   -1    0    0  501    0 -0.00000000000E+00 -0.00000000000E+00 -0.20643900889E+04  0.20643900889E+04  0.00000000000E+00 0.  1.
          2    1    1    2  501    0  0.58595547650E+02 -0.19172554520E+02 -0.28731178298E+03  0.29385214937E+03  0.00000000000E+00 0.  1.
          1    1    1    2  502    0 -0.48361409243E+02  0.24831922350E+02 -0.17167809696E+04  0.17176415074E+04  0.00000000000E+00 0.  1.
         22    1    1    2    0    0 -0.22205831218E+02 -0.18139147379E+02  0.66161544732E+02  0.72107403289E+02  0.00000000000E+00 0.  1.
         22    1    1    2    0    0  0.11971692811E+02  0.12479779550E+02 -0.52229679124E+02  0.55018230686E+02  0.00000000000E+00 0.  1.
</event>
<event>
 6    1  0.3624778E-005  0.4190701E+03  0.7818608E-02  0.1158103E+00
          2   -1    0    0  502    0  0.00000000000E+00  0.00000000000E+00  0.21948540636E+03  0.21948540636E+03  0.00000000000E+00 0.  1.
          1   -1    0    0  501    0 -0.00000000000E+00 -0.00000000000E+00 -0.13905858507E+04  0.13905858507E+04  0.00000000000E+00 0. -1.
          2    1    1    2  501    0 -0.25087962170E+03 -0.11746822508E+03 -0.66557416955E+02  0.28490219066E+03  0.00000000000E+00 0.  1.
          1    1    1    2  502    0  0.37932711449E+03  0.16277913896E+03 -0.10549368681E+04  0.11328185660E+04  0.00000000000E+00 0. -1.
         22    1    1    2    0    0 -0.12758301411E+03 -0.27475891082E+02 -0.82871094386E+02  0.15459614602E+03  0.00000000000E+00 0.  1.
         22    1    1    2    0    0 -0.86447868654E+00 -0.17835022796E+02  0.33264935129E+02  0.37754354327E+02  0.00000000000E+00 0.  1.
</event>
<event>
 6    1  0.3624778E-005  0.5430730E+03  0.7818608E-02  0.1065523E+00
          2   -1    0    0  502    0  0.00000000000E+00  0.00000000000E+00  0.42207556791E+03  0.42207556791E+03  0.00000000000E+00 0. -1.
          1   -1    0    0  501    0 -0.00000000000E+00 -0.00000000000E+00 -0.56004136750E+03  0.56004136750E+03  0.00000000000E+00 0. -1.
          2    1    1    2  501    0  0.16221573554E+03  0.25357696047E+03 -0.21118653006E+02  0.30176351211E+03  0.00000000000E+00 0. -1.
          1    1    1    2  502    0 -0.30482532502E+03 -0.87015424596E+01 -0.19281971493E+03  0.36079583989E+03  0.00000000000E+00 0. -1.
         22    1    1    2    0    0  0.76223381704E+02 -0.40730996553E+02  0.58120967409E+02  0.10414924316E+03  0.00000000000E+00 0. -1.
         22    1    1    2    0    0  0.66386207773E+02 -0.20414442145E+03  0.17851600941E+02  0.21540834025E+03  0.00000000000E+00 0.  1.
</event>
<event>
 6    1  0.3624778E-005  0.9507991E+02  0.7818608E-02  0.1360568E+00
          2   -1    0    0  502    0  0.00000000000E+00  0.00000000000E+00  0.45119137326E+02  0.45119137326E+02  0.00000000000E+00 0.  1.
          1   -1    0    0  501    0 -0.00000000000E+00 -0.00000000000E+00 -0.59652570052E+03  0.59652570052E+03  0.00000000000E+00 0.  1.
          2    1    1    2  501    0 -0.17949492126E+02 -0.12394204088E+02 -0.35164080404E+03  0.35231669791E+03  0.00000000000E+00 0.  1.
          1    1    1    2  502    0 -0.38017769868E+02  0.28617324205E+02 -0.11853216310E+03  0.12772695784E+03  0.00000000000E+00 0.  1.
         22    1    1    2    0    0  0.12781230024E+02 -0.24588195944E+02  0.30686193458E+02  0.41347088043E+02  0.00000000000E+00 0.  1.
         22    1    1    2    0    0  0.43186031971E+02  0.83650758274E+01 -0.11191978952E+03  0.12025409405E+03  0.00000000000E+00 0.  1.
</event>
<event>
 6    1  0.3624778E-005  0.6354342E+02  0.7818608E-02  0.1415673E+00
          2   -1    0    0  502    0  0.00000000000E+00  0.00000000000E+00  0.73825132279E+02  0.73825132279E+02  0.00000000000E+00 0. -1.
          1   -1    0    0  501    0 -0.00000000000E+00 -0.00000000000E+00 -0.27191511758E+03  0.27191511758E+03  0.00000000000E+00 0. -1.
          2    1    1    2  501    0 -0.27647193221E+01 -0.26780597888E+02 -0.85634349438E+01  0.28252017878E+02  0.00000000000E+00 0. -1.
          1    1    1    2  502    0 -0.20096936876E+02  0.47978603589E+02 -0.17684301955E+03  0.18433471414E+03  0.00000000000E+00 0. -1.
         22    1    1    2    0    0  0.31113687471E+02 -0.58480915782E+02 -0.47472806327E+02  0.81496910366E+02  0.00000000000E+00 0. -1.
         22    1    1    2    0    0 -0.82520312736E+01  0.37282910080E+02  0.34789275521E+02  0.51656607472E+02  0.00000000000E+00 0. -1.
</event>
<event>
 6    1  0.3624778E-005  0.1597288E+03  0.7818608E-02  0.1190345E+00
          2   -1    0    0  502    0  0.00000000000E+00  0.00000000000E+00  0.59770284598E+03  0.59770284598E+03  0.00000000000E+00 0. -1.
          1   -1    0    0  501    0 -0.00000000000E+00 -0.00000000000E+00 -0.50538422655E+02  0.50538422655E+02  0.00000000000E+00 0. -1.
          2    1    1    2  501    0  0.24670340087E+02  0.15702901661E+02  0.33099503695E+02  0.44167679874E+02  0.00000000000E+00 0. -1.
          1    1    1    2  502    0 -0.12852839223E+03  0.54479901955E+02  0.21992058635E+03  0.26048545377E+03  0.00000000000E+00 0. -1.
         22    1    1    2    0    0 -0.20073252542E+02  0.10621764185E+02  0.13729200914E+02  0.26537676985E+02  0.00000000000E+00 0. -1.
         22    1    1    2    0    0  0.12393130469E+03 -0.80804567802E+02  0.28041513237E+03  0.31705045801E+03  0.00000000000E+00 0. -1.
</event>
<event>
 6    1  0.3624778E-005  0.1261900E+03  0.7818608E-02  0.1235785E+00
          2   -1    0    0  502    0  0.00000000000E+00  0.00000000000E+00  0.15837598027E+03  0.15837598027E+03  0.00000000000E+00 0. -1.
          1   -1    0    0  501    0 -0.00000000000E+00 -0.00000000000E+00 -0.11655036514E+04  0.11655036514E+04  0.00000000000E+00 0.  1.
          2    1    1    2  501    0  0.10529837590E+03  0.31272394825E+02  0.58130136692E+02  0.12427720401E+03  0.00000000000E+00 0. -1.
          1    1    1    2  502    0 -0.38910565409E+02  0.11225257181E+02 -0.10490376356E+04  0.10498190318E+04  0.00000000000E+00 0.  1.
         22    1    1    2    0    0 -0.82467903029E+02 -0.56830358333E+02 -0.48261374731E+02  0.11117465965E+03  0.00000000000E+00 0. -1.
         22    1    1    2    0    0  0.16080092536E+02  0.14332706327E+02  0.32041202589E+02  0.38608736188E+02  0.00000000000E+00 0. -1.
</event>
<event>
 6    1  0.3624778E-005  0.1009841E+03  0.7818608E-02  0.1377041E+00
          2   -1    0    0  502    0  0.00000000000E+00  0.00000000000E+00  0.13142112001E+03  0.13142112001E+03  0.00000000000E+00 0. -1.
          1   -1    0    0  501    0 -0.00000000000E+00 -0.00000000000E+00 -0.13718118584E+04  0.13718118584E+04  0.00000000000E+00 0. -1.
          2    1    1    2  501    0  0.18021344128E+02 -0.17447938626E+02 -0.79998550523E+01  0.26328636260E+02  0.00000000000E+00 0. -1.
          1    1    1    2  502    0 -0.64690578386E+02  0.74853001984E+02 -0.13103056237E+04  0.13140352622E+04  0.00000000000E+00 0. -1.
         22    1    1    2    0    0  0.10346100474E+02  0.14237934563E+02  0.80600094045E+02  0.82499307486E+02  0.00000000000E+00 0. -1.
         22    1    1    2    0    0  0.36323133785E+02 -0.71642997921E+02 -0.26853536895E+01  0.80369772449E+02  0.00000000000E+00 0. -1.
</event>
<event>
 6    1  0.3624778E-005  0.7543297E+02  0.7818608E-02  0.1344556E+00
          2   -1    0    0  502    0  0.00000000000E+00  0.00000000000E+00  0.48911428148E+03  0.48911428148E+03  0.00000000000E+00 0.  1.
          1   -1    0    0  501    0 -0.00000000000E+00 -0.00000000000E+00 -0.22607658159E+03  0.22607658159E+03  0.00000000000E+00 0.  1.
          2    1    1    2  501    0  0.84813961496E+01 -0.19700390184E+02  0.86959085866E+02  0.89565183351E+02  0.00000000000E+00 0.  1.
          1    1    1    2  502    0  0.64945970088E+01  0.19221226730E+02 -0.21384035387E+03  0.21480068037E+03  0.00000000000E+00 0.  1.
         22    1    1    2    0    0 -0.65246712787E+01  0.61812652414E+02  0.13703776976E+03  0.15047500017E+03  0.00000000000E+00 0. -1.
         22    1    1    2    0    0 -0.84513218797E+01 -0.61333488960E+02  0.25288119812E+03  0.26034999918E+03  0.00000000000E+00 0.  1.
</event>
<event>
 6    1  0.3624778E-005  0.1485869E+03  0.7818608E-02  0.1339451E+00
          2   -1    0    0  502    0  0.00000000000E+00  0.00000000000E+00  0.90063230620E+02  0.90063230620E+02  0.00000000000E+00 0. -1.
          1   -1    0    0  501    0 -0.00000000000E+00 -0.00000000000E+00 -0.59414255350E+03  0.59414255350E+03  0.00000000000E+00 0.  1.
          2    1    1    2  501    0  0.44811564183E+01  0.43354581571E+02 -0.21363941594E-01  0.43585559105E+02  0.00000000000E+00 0. -1.
          1    1    1    2  502    0 -0.72247027115E+02 -0.10787416425E+03 -0.45818146763E+03  0.47622129889E+03  0.00000000000E+00 0.  1.
         22    1    1    2    0    0 -0.10333836112E+02  0.12619482619E+01  0.34291942840E+02  0.35837383079E+02  0.00000000000E+00 0. -1.
         22    1    1    2    0    0  0.78099706808E+02  0.63257634420E+02 -0.80168434153E+02  0.12856154305E+03  0.00000000000E+00 0. -1.
</event>
<event>
 6    1  0.3624778E-005  0.3300462E+02  0.7818608E-02  0.1577771E+00
          2   -1    0    0  502    0  0.00000000000E+00  0.00000000000E+00  0.10194917403E+03  0.10194917403E+03  0.00000000000E+00 0.  1.
          1   -1    0    0  501    0 -0.00000000000E+00 -0.00000000000E+00 -0.10203428210E+03  0.10203428210E+03  0.00000000000E+00 0.  1.
          2    1    1    2  501    0 -0.68659596989E+01  0.18853733095E+02 -0.14831428495E+02  0.24951471408E+02  0.00000000000E+00 0.  1.
          1    1    1    2  502    0  0.10989240835E+02 -0.23702904076E+02 -0.37774602262E+02  0.45929420330E+02  0.00000000000E+00 0.  1.
         22    1    1    2    0    0 -0.27938001228E+02  0.19646712121E+02 -0.30304297997E+02  0.45660438969E+02  0.00000000000E+00 0.  1.
         22    1    1    2    0    0  0.23814720093E+02 -0.14797541140E+02  0.82825220689E+02  0.87442125426E+02  0.00000000000E+00 0.  1.
</event>
<event>
 6    1  0.3624778E-005  0.1571234E+03  0.7818608E-02  0.1292461E+00
          2   -1    0    0  502    0  0.00000000000E+00  0.00000000000E+00  0.20154224510E+03  0.20154224510E+03  0.00000000000E+00 0.  1.
          1   -1    0    0  501    0 -0.00000000000E+00 -0.00000000000E+00 -0.15166918754E+04  0.15166918754E+04  0.00000000000E+00 0. -1.
          2    1    1    2  501    0 -0.99826701432E+01  0.62883034968E+02  0.44148639692E+01  0.63823356335E+02  0.00000000000E+00 0.  1.
          1    1    1    2  502    0  0.12280087125E+02  0.23127721239E+02 -0.14507527974E+04  0.14509891010E+04  0.00000000000E+00 0. -1.
         22    1    1    2    0    0 -0.19736362866E+02  0.55432221760E+01  0.10447725347E+03  0.10646946898E+03  0.00000000000E+00 0.  1.
         22    1    1    2    0    0  0.17438945884E+02 -0.91553978383E+02  0.26711049639E+02  0.96952194220E+02  0.00000000000E+00 0.  1.
</event>
<event>
 6    1  0.6347918E-005  0.4359263E+02  0.7818608E-02  0.1526534E+00
          2   -1    0    0  502    0  0.00000000000E+00  0.00000000000E+00  0.98257814314E+02  0.98257814314E+02  0.00000000000E+00 0. -1.
          1   -1    0    0  501    0 -0.00000000000E+00 -0.00000000000E+00 -0.49716170933E+03  0.49716170933E+03  0.00000000000E+00 0.  1.
          2    1    1    2  501    0  0.32127780156E+01 -0.24820076067E+02 -0.70793670129E+02  0.75087294856E+02  0.00000000000E+00 0. -1.
          1    1    1    2  502    0  0.20797153481E+01  0.41587949048E+02 -0.38377217066E+03  0.38602456100E+03  0.00000000000E+00 0.  1.
         22    1    1    2    0    0 -0.16675431867E+02 -0.17490383128E+02  0.92572652366E+02  0.95674863449E+02  0.00000000000E+00 0. -1.
         22    1    1    2    0    0  0.11382938503E+02  0.72251014679E+00 -0.36910706593E+02  0.38632804339E+02  0.00000000000E+00 0.  1.
</event>
<event>
 6    1  0.3624778E-005  0.8076474E+02  0.7818608E-02  0.1354169E+00
          2   -1    0    0  502    0  0.00000000000E+00  0.00000000000E+00  0.59794442985E+03  0.59794442985E+03  0.00000000000E+00 0.  1.
          1   -1    0    0  501    0 -0.00000000000E+00 -0.00000000000E+00 -0.33394149732E+02  0.33394149732E+02  0.00000000000E+00 0.  1.
          2    1    1    2  501    0  0.41762984558E+02  0.49459784941E+02  0.13855654526E+03  0.15293244731E+03  0.00000000000E+00 0.  1.
          1    1    1    2  502    0 -0.31816698589E+02 -0.57395113619E+02  0.51021921388E+02  0.83124832863E+02  0.00000000000E+00 0.  1.
         22    1    1    2    0    0  0.22028281977E+02  0.46853018206E+02  0.75147450138E+02  0.91255628780E+02  0.00000000000E+00 0.  1.
         22    1    1    2    0    0 -0.31974567947E+02 -0.38917689528E+02  0.29982436333E+03  0.30402567063E+03  0.00000000000E+00 0.  1.
</event>
<event>
 6    1  0.3624778E-005  0.1106230E+03  0.7818608E-02  0.1325578E+00
          2   -1    0    0  502    0  0.00000000000E+00  0.00000000000E+00  0.52643521145E+03  0.52643521145E+03  0.00000000000E+00 0.  1.
          1   -1    0    0  501    0 -0.00000000000E+00 -0.00000000000E+00 -0.23953577242E+02  0.23953577242E+02  0.00000000000E+00 0.  1.
          2    1    1    2  501    0  0.73060443734E+01 -0.33640881829E+02  0.10304290474E+03  0.10864127868E+03  0.00000000000E+00 0.  1.
          1    1    1    2  502    0  0.19333943421E+02  0.20201047864E+02  0.20273454204E+03  0.20465380094E+03  0.00000000000E+00 0.  1.
         22    1    1    2    0    0 -0.93106746422E+01  0.42636981749E+02  0.67880638426E+01  0.44166488265E+02  0.00000000000E+00 0.  1.
         22    1    1    2    0    0 -0.17329313152E+02 -0.29197147784E+02  0.18991612358E+03  0.19292722080E+03  0.00000000000E+00 0.  1.
</event>
<event>
 6    1  0.3624778E-005  0.3988757E+02  0.7818608E-02  0.1513303E+00
          2   -1    0    0  502    0  0.00000000000E+00  0.00000000000E+00  0.32971444474E+02  0.32971444474E+02  0.00000000000E+00 0. -1.
          1   -1    0    0  501    0 -0.00000000000E+00 -0.00000000000E+00 -0.84558101587E+03  0.84558101587E+03  0.00000000000E+00 0. -1.
          2    1    1    2  501    0  0.35304256078E+02 -0.13976031344E+02 -0.14119637736E+03  0.14621264285E+03  0.00000000000E+00 0. -1.
          1    1    1    2  502    0 -0.28706590745E+02  0.64981282923E+00 -0.56135624440E+03  0.56209013845E+03  0.00000000000E+00 0. -1.
         22    1    1    2    0    0  0.19127477469E+02 -0.12987923605E+02 -0.12746173152E+03  0.12954165182E+03  0.00000000000E+00 0. -1.
         22    1    1    2    0    0 -0.25725142801E+02  0.26314142120E+02  0.17404781893E+02  0.40708027223E+02  0.00000000000E+00 0. -1.
</event>
<event>
 6    1  0.3624778E-005  0.6536817E+02  0.7818608E-02  0.1388436E+00
          2   -1    0    0  502    0  0.00000000000E+00  0.00000000000E+00  0.30071137420E+03  0.30071137420E+03  0.00000000000E+00 0. -1.
          1   -1    0    0  501    0 -0.00000000000E+00 -0.00000000000E+00 -0.51263682983E+02  0.51263682983E+02  0.00000000000E+00 0. -1.
          2    1    1    2  501    0  0.25084607003E+01 -0.23359151978E+02 -0.18049795867E+02  0.29626634757E+02  0.00000000000E+00 0. -1.
          1    1    1    2  502    0 -0.31970345661E+02  0.40924191994E+02  0.77778647578E+02  0.93522246076E+02  0.00000000000E+00 0. -1.
         22    1    1    2    0    0 -0.26438450658E+02 -0.24578362375E+02  0.59123146720E+01  0.36579270564E+02  0.00000000000E+00 0.  1.
         22    1    1    2    0    0  0.55900335619E+02  0.70133223584E+01  0.18380652484E+03  0.19224690579E+03  0.00000000000E+00 0. -1.
</event>
<event>
 6    1  0.3624778E-005  0.2385492E+03  0.7818608E-02  0.1199229E+00
          2   -1    0    0  502    0  0.00000000000E+00  0.00000000000E+00  0.34145909058E+03  0.34145909058E+03  0.00000000000E+00 0.  1.
          1   -1    0    0  501    0 -0.00000000000E+00 -0.00000000000E+00 -0.91424669074E+03  0.91424669074E+03  0.00000000000E+00 0. -1.
          2    1    1    2  501    0 -0.14230844069E+03  0.80034666681E+02  0.96916576965E+02  0.18986854150E+03  0.00000000000E+00 0.  1.
          1    1    1    2  502    0  0.15479934831E+03 -0.14500068314E+03 -0.82734989725E+03  0.85410531484E+03  0.00000000000E+00 0. -1.
         22    1    1    2    0    0 -0.50798874287E+02  0.64231147806E+02  0.15246838398E+03  0.17306869760E+03  0.00000000000E+00 0.  1.
         22    1    1    2    0    0  0.38307966660E+02  0.73486865535E+00  0.51773361593E+01  0.38663227378E+02  0.00000000000E+00 0. -1.
</event>
<event>
 6    1  0.3624778E-005  0.1968359E+03  0.7818608E-02  0.1242277E+00
          2   -1    0    0  502    0  0.00000000000E+00  0.00000000000E+00  0.51325405149E+02  0.51325405149E+02  0.00000000000E+00 0.  1.
          1   -1    0    0  501    0 -0.00000000000E+00 -0.00000000000E+00 -0.54886894612E+03  0.54886894612E+03  0.00000000000E+00 0.  1.
          2    1    1    2  501    0  0.36785335431E+02  0.35130035717E+02 -0.87771083482E+02  0.10144478009E+03  0.00000000000E+00 0.  1.
          1    1    1    2  502    0 -0.18581472050E+02  0.94928387744E+02 -0.19810954201E+03  0.22046328615E+03  0.00000000000E+00 0.  1.
         22    1    1    2    0    0  0.23916049927E+02  0.13866112908E+02 -0.16615315534E+02  0.32253918236E+02  0.00000000000E+00 0. -1.
         22    1    1    2    0    0 -0.42119913308E+02 -0.14392453637E+03 -0.19504759995E+03  0.24603236680E+03  0.00000000000E+00 0.  1.
</event>
<event>
 6    1  0.3624778E-005  0.7038654E+02  0.7818608E-02  0.1411308E+00
          2   -1    0    0  502    0  0.00000000000E+00  0.00000000000E+00  0.46274194572E+02  0.46274194572E+02  0.00000000000E+00 0.  1.
          1   -1    0    0  501    0 -0.00000000000E+00 -0.00000000000E+00 -0.14622566362E+04  0.14622566362E+04  0.00000000000E+00 0.  1.
          2    1    1    2  501    0  0.53675893934E+02 -0.13116779105E+01 -0.34215604699E+03  0.34634315726E+03  0.00000000000E+00 0.  1.
          1    1    1    2  502    0 -0.84775633750E+01  0.19530418470E+02 -0.10114328994E+04  0.10116569658E+04  0.00000000000E+00 0.  1.
         22    1    1    2    0    0 -0.26700980796E+02 -0.13855706154E+02  0.37936873102E+02  0.48416209158E+02  0.00000000000E+00 0.  1.
         22    1    1    2    0    0 -0.18497349763E+02 -0.43630344052E+01 -0.10033036831E+03  0.10211449859E+03  0.00000000000E+00 0.  1.
</event>
<event>
 6    1  0.3624778E-005  0.1484597E+03  0.7818608E-02  0.1264139E+00
          2   -1    0    0  502    0  0.00000000000E+00  0.00000000000E+00  0.28224256689E+03  0.28224256689E+03  0.00000000000E+00 0. -1.
          1   -1    0    0  501    0 -0.00000000000E+00 -0.00000000000E+00 -0.12825516422E+03  0.12825516422E+03  0.00000000000E+00 0. -1.
          2    1    1    2  501    0  0.82803421971E+02 -0.41991423066E+02 -0.55161387251E+02  0.10799289303E+03  0.00000000000E+00 0. -1.
          1    1    1    2  502    0 -0.74032850284E+02  0.53969986608E+02  0.93091365350E+02  0.13061249817E+03  0.00000000000E+00 0. -1.
         22    1    1    2    0    0 -0.11917621131E+02 -0.53584732864E+02  0.72646651318E+01  0.55372634478E+02  0.00000000000E+00 0. -1.
         22    1    1    2    0    0  0.31470494439E+01  0.41606169322E+02  0.10879275944E+03  0.11651970543E+03  0.00000000000E+00 0. -1.
</event>
<event>
 6    1  0.3624778E-005  0.1103656E+03  0.7818608E-02  0.1273619E+00
          2   -1    0    0  502    0  0.00000000000E+00  0.00000000000E+00  0.38629096808E+02  0.38629096808E+02  0.00000000000E+00 0.  1.
          1   -1    0    0  501    0 -0.00000000000E+00 -0.00000000000E+00 -0.15374569695E+04  0.15374569695E+04  0.00000000000E+00 0. -1.
          2    1    1    2  501    0 -0.66317841919E+02 -0.50732592813E+02 -0.31124170461E+03  0.32224718900E+03  0.00000000000E+00 0.  1.
          1    1    1    2  502    0  0.28772838152E+02  0.13203978179E+02 -0.10774173584E+04  0.10778823616E+04  0.00000000000E+00 0. -1.
         22    1    1    2    0    0  0.77431200330E+02  0.22015306429E+02 -0.31584937899E+02  0.86474694586E+02  0.00000000000E+00 0.  1.
         22    1    1    2    0    0 -0.39886196563E+02  0.15513308206E+02 -0.78583871799E+02  0.89481821141E+02  0.00000000000E+00 0.  1.
</event>
<event>
 6    1  0.3624778E-005  0.7144506E+02  0.7818608E-02  0.1375768E+00
          2   -1    0    0  502    0  0.00000000000E+00  0.00000000000E+00  0.35251215541E+03  0.35251215541E+03  0.00000000000E+00 0.  1.
          1   -1    0    0  501    0 -0.00000000000E+00 -0.00000000000E+00 -0.18296107281E+03  0.18296107281E+03  0.00000000000E+00 0.  1.
          2    1    1    2  501    0  0.13995046627E+02 -0.45838130496E+02 -0.21049307977E+02  0.52345667479E+02  0.00000000000E+00 0.  1.
          1    1    1    2  502    0  0.12956466338E+01  0.38022270272E+02 -0.13210501783E+03  0.13747402472E+03  0.00000000000E+00 0.  1.
         22    1    1    2    0    0  0.46885982050E+01 -0.37242358470E+02  0.27934259955E+02  0.46789946535E+02  0.00000000000E+00 0.  1.
         22    1    1    2    0    0 -0.19979291465E+02  0.45058218694E+02  0.29477114845E+03  0.29886358948E+03  0.00000000000E+00 0.  1.
</event>
<event>
 6    1  0.4759838E-005  0.5860021E+02  0.7818608E-02  0.1421336E+00
          2   -1    0    0  502    0  0.00000000000E+00  0.00000000000E+00  0.14402761493E+03  0.14402761493E+03  0.00000000000E+00 0.  1.
          1   -1    0    0  501    0 -0.00000000000E+00 -0.00000000000E+00 -0.40704890435E+03  0.40704890435E+03  0.00000000000E+00 0. -1.
          2    1    1    2  501    0 -0.16100282094E+02 -0.32354044308E+02 -0.16368441846E+03  0.16762634671E+03  0.00000000000E+00 0.  1.
          1    1    1    2  502    0  0.48073053705E+02  0.68141073746E+02 -0.19796910132E+03  0.21481617607E+03  0.00000000000E+00 0. -1.
         22    1    1    2    0    0 -0.20996040263E+02 -0.39367463107E+02  0.12881251918E+03  0.13632056322E+03  0.00000000000E+00 0.  1.
         22    1    1    2    0    0 -0.10976731349E+02  0.35804336688E+01 -0.30180288824E+02  0.32313433273E+02  0.00000000000E+00 0.  1.
</event>
<event>
 6    1  0.3624778E-005  0.3030535E+03  0.7818608E-02  0.1130505E+00
          2   -1    0    0  502    0  0.00000000000E+00  0.00000000000E+00  0.71139513618E+03  0.71139513618E+03  0.00000000000E+00 0. -1.
          1   -1    0    0  501    0 -0.00000000000E+00 -0.00000000000E+00 -0.20543024195E+03  0.20543024195E+03  0.00000000000E+00 0. -1.
          2    1    1    2  501    0  0.11305435411E+03  0.16629056253E+03  0.37423130287E+03  0.42483279796E+03  0.00000000000E+00 0. -1.
          1    1    1    2  502    0 -0.18627939684E+03 -0.20394834852E+03 -0.25238048269E+02  0.27736600662E+03  0.00000000000E+00 0. -1.
         22    1    1    2    0    0 -0.16928309204E+02  0.22515876754E+02 -0.50268468662E+01  0.28614708594E+02  0.00000000000E+00 0.  1.
         22    1    1    2    0    0  0.90153351931E+02  0.15141909235E+02  0.16199848649E+03  0.18601186496E+03  0.00000000000E+00 0.  1.
</event>
<event>
 6    1  0.3624778E-005  0.1197191E+03  0.7818608E-02  0.1299415E+00
          2   -1    0    0  502    0  0.00000000000E+00  0.00000000000E+00  0.59932718381E+02  0.59932718381E+02  0.00000000000E+00 0.  1.
          1   -1    0    0  501    0 -0.00000000000E+00 -0.00000000000E+00 -0.61022434321E+03  0.61022434321E+03  0.00000000000E+00 0.  1.
          2    1    1    2  501    0 -0.28406581960E+01 -0.64928128657E+02 -0.32411628702E+03  0.33056784287E+03  0.00000000000E+00 0.  1.
          1    1    1    2  502    0 -0.36203214669E+02  0.10467546459E+03 -0.57768438961E+02  0.12491924663E+03  0.00000000000E+00 0.  1.
         22    1    1    2    0    0  0.83752143686E+00 -0.53869419647E+02 -0.16525491912E+03  0.17381543116E+03  0.00000000000E+00 0.  1.
         22    1    1    2    0    0  0.38206351428E+02  0.14122083714E+02 -0.31519797233E+01  0.40854540923E+02  0.00000000000E+00 0. -1.
</event>
<event>
 6    1  0.3624778E-005  0.3402285E+03  0.7818608E-02  0.1157976E+00
          2   -1    0    0  502    0  0.00000000000E+00  0.00000000000E+00  0.12617860242E+03  0.12617860242E+03  0.00000000000E+00 0. -1.
          1   -1    0    0  501    0 -0.00000000000E+00 -0.00000000000E+00 -0.68852667317E+03  0.68852667317E+03  0.00000000000E+00 0. -1.
          2    1    1    2  501    0  0.80000372737E+01  0.69810420229E+02 -0.27518321629E+03  0.28401284812E+03  0.00000000000E+00 0. -1.
          1    1    1    2  502    0 -0.23686268983E+02  0.17750046535E+02 -0.35809885498E+03  0.35932004318E+03  0.00000000000E+00 0. -1.
         22    1    1    2    0    0  0.29509855027E+01  0.32952285550E+02  0.26176995943E+02  0.42187635096E+02  0.00000000000E+00 0.  1.
         22    1    1    2    0    0  0.12735246206E+02 -0.12051275231E+03  0.44757004583E+02  0.12918474920E+03  0.00000000000E+00 0. -1.
</event>
<event>
 6    1  0.3624778E-005  0.4331368E+03  0.7818608E-02  0.1117977E+00
          2   -1    0    0  502    0  0.00000000000E+00  0.00000000000E+00  0.63825200333E+03  0.63825200333E+03  0.00000000000E+00 0.  1.
          1   -1    0    0  501    0 -0.00000000000E+00 -0.00000000000E+00 -0.17429882774E+03  0.17429882774E+03  0.00000000000E+00 0.  1.
          2    1    1    2  501    0 -0.12727774610E+03  0.12739062810E+03  0.52192661555E+02  0.18748885487E+03  0.00000000000E+00 0.  1.
          1    1    1    2  502    0 -0.10268226316E+03  0.20564149027E+01 -0.20216804344E+02  0.10467375597E+03  0.00000000000E+00 0.  1.
         22    1    1    2    0    0  0.40556243762E+02 -0.13454632594E+02  0.17772912006E+03  0.18279353425E+03  0.00000000000E+00 0.  1.
         22    1    1    2    0    0  0.18940376550E+03 -0.11599241041E+03  0.25424819832E+03  0.33759468598E+03  0.00000000000E+00 0.  1.
</event>
<event>
 6    1  0.3624778E-005  0.9823515E+02  0.7818608E-02  0.1316621E+00
          2   -1    0    0  502    0  0.00000000000E+00  0.00000000000E+00  0.26894390359E+03  0.26894390359E+03  0.00000000000E+00 0.  1.
          1   -1    0    0  501    0 -0.00000000000E+00 -0.00000000000E+00 -0.15152345025E+03  0.15152345025E+03  0.00000000000E+00 0. -1.
          2    1    1    2  501    0  0.45202668577E+02  0.47899595948E+02  0.45342316242E+02  0.79959853556E+02  0.00000000000E+00 0.  1.
          1    1    1    2  502    0 -0.32491660210E+02 -0.48726005277E+02 -0.10770082070E+03  0.12259444666E+03  0.00000000000E+00 0. -1.
         22    1    1    2    0    0 -0.50242763398E+02 -0.19517361751E+02  0.28999484240E+02  0.61206476534E+02  0.00000000000E+00 0. -1.
         22    1    1    2    0    0  0.37531755030E+02  0.20343771080E+02  0.15077947355E+03  0.15670657709E+03  0.00000000000E+00 0.  1.
</event>
<event>
 6    1  0.3624778E-005  0.2128579E+03  0.7818608E-02  0.1175263E+00
          2   -1    0    0  502    0  0.00000000000E+00  0.00000000000E+00  0.12954185846E+03  0.12954185846E+03  0.00000000000E+00 0. -1.
          1   -1    0    0  501    0 -0.00000000000E+00 -0.00000000000E+00 -0.25191020223E+04  0.25191020223E+04  0.00000000000E+00 0.  1.
          2    1    1    2  501    0 -0.12198544390E+03  0.37136937752E+01 -0.52565418194E+02  0.13288101156E+03  0.00000000000E+00 0. -1.
          1    1    1    2  502    0  0.19017131649E+03  0.71286477790E+02 -0.23421775768E+04  0.23509663317E+04  0.00000000000E+00 0.  1.
         22    1    1    2    0    0 -0.12022770614E+01 -0.91807395709E+02 -0.14577036269E+02  0.92965226636E+02  0.00000000000E+00 0.  1.
         22    1    1    2    0    0 -0.66983595532E+02  0.16807224144E+02  0.19759867446E+02  0.71831310828E+02  0.00000000000E+00 0. -1.
</event>
<event>
 6    1  0.3624778E-005  0.1478478E+03  0.7818608E-02  0.1257228E+00
          2   -1    0    0  502    0  0.00000000000E+00  0.00000000000E+00  0.44803242611E+03  0.44803242611E+03  0.00000000000E+00 0.  1.
          1   -1    0    0  501    0 -0.00000000000E+00 -0.00000000000E+00 -0.13571703770E+04  0.13571703770E+04  0.00000000000E+00 0. -1.
          2    1    1    2  501    0  0.22359462206E+02  0.29257370079E+02  0.30553363489E+02  0.47848168978E+02  0.00000000000E+00 0.  1.
          1    1    1    2  502    0 -0.48165931497E+02 -0.10871622348E+03 -0.13326034705E+04  0.13378980469E+04  0.00000000000E+00 0. -1.
         22    1    1    2    0    0  0.47301229602E+02 -0.10179376890E+02  0.82443184040E+02  0.95592387931E+02  0.00000000000E+00 0.  1.
         22    1    1    2    0    0 -0.21494760311E+02  0.89638230293E+02  0.31046897203E+03  0.32386419939E+03  0.00000000000E+00 0.  1.
</event>
<event>
 6    1  0.3624778E-005  0.2113723E+03  0.7818608E-02  0.1141578E+00
          2   -1    0    0  502    0  0.00000000000E+00  0.00000000000E+00  0.47540241390E+03  0.47540241390E+03  0.00000000000E+00 0. -1.
          1   -1    0    0  501    0 -0.00000000000E+00 -0.00000000000E+00 -0.49839591842E+03  0.49839591842E+03  0.00000000000E+00 0. -1.
          2    1    1    2  501    0 -0.39476802408E+02  0.26010932761E+03  0.16556302306E+03  0.31084786446E+03  0.00000000000E+00 0. -1.
          1    1    1    2  502    0  0.57128200903E+02 -0.11364666343E+03 -0.37434970025E+03  0.39536931282E+03  0.00000000000E+00 0. -1.
         22    1    1    2    0    0 -0.12401599947E+02 -0.16820208262E+03  0.15192637499E+03  0.22699639578E+03  0.00000000000E+00 0. -1.
         22    1    1    2    0    0 -0.52497985484E+01  0.21739418435E+02  0.33866797677E+02  0.40584759253E+02  0.00000000000E+00 0.  1.
</event>
<event>
 6    1  0.3624778E-005  0.8650675E+02  0.7818608E-02  0.1324305E+00
          2   -1    0    0  502    0  0.00000000000E+00  0.00000000000E+00  0.48693218582E+03  0.48693218582E+03  0.00000000000E+00 0.  1.
          1   -1    0    0  501    0 -0.00000000000E+00 -0.00000000000E+00 -0.11733771646E+04  0.11733771646E+04  0.00000000000E+00 0.  1.
          2    1    1    2  501    0 -0.28228499859E+02 -0.39313653922E+00  0.46948842588E+02  0.54783177902E+02  0.00000000000E+00 0.  1.
          1    1    1    2  502    0  0.38557867813E+02  0.47295635182E+01 -0.11598370465E+04  0.11604874201E+04  0.00000000000E+00 0.  1.
         22    1    1    2    0    0  0.37904419046E+02 -0.42005053086E+02  0.12167227509E+03  0.13418387382E+03  0.00000000000E+00 0. -1.
         22    1    1    2    0    0 -0.48233787000E+02  0.37668626107E+02  0.30477094997E+03  0.31085487860E+03  0.00000000000E+00 0.  1.
</event>
<event>
 6    1  0.3624778E-005  0.1674500E+03  0.7818608E-02  0.1277594E+00
          2   -1    0    0  502    0  0.00000000000E+00  0.00000000000E+00  0.10855109069E+03  0.10855109069E+03  0.00000000000E+00 0. -1.
          1   -1    0    0  501    0 -0.00000000000E+00 -0.00000000000E+00 -0.50389008199E+03  0.50389008199E+03  0.00000000000E+00 0. -1.
          2    1    1    2  501    0 -0.13869724025E+02 -0.32618008479E+02 -0.56826011985E+02  0.66973870724E+02  0.00000000000E+00 0. -1.
          1    1    1    2  502    0  0.77367557805E+01  0.92442774939E+02 -0.38949892757E+03  0.40039347972E+03  0.00000000000E+00 0. -1.
         22    1    1    2    0    0  0.22355002647E+02 -0.75306291178E+02  0.77499458224E+02  0.11034921685E+03  0.00000000000E+00 0. -1.
         22    1    1    2    0    0 -0.16222034402E+02  0.15481524717E+02 -0.26513509973E+02  0.34724605380E+02  0.00000000000E+00 0. -1.
</event>
<event>
 6    1  0.3624778E-005  0.1355244E+03  0.7818608E-02  0.1323969E+00
          2   -1    0    0  502    0  0.00000000000E+00  0.00000000000E+00  0.26353972107E+02  0.26353972107E+02  0.00000000000E+00 0. -1.
          1   -1    0    0  501    0 -0.00000000000E+00 -0.00000000000E+00 -0.12459089176E+04  0.12459089176E+04  0.00000000000E+00 0. -1.
          2    1    1    2  501    0 -0.94675033951E+02  0.24349980513E+02 -0.83125930999E+03  0.83698764868E+03  0.00000000000E+00 0. -1.
          1    1    1    2  502    0  0.48289569988E+02  0.89574834358E+01 -0.17896525061E+03  0.18558200345E+03  0.00000000000E+00 0. -1.
         22    1    1    2    0    0  0.31940369608E+02 -0.22562505829E+02 -0.22342969869E+03  0.22682610991E+03  0.00000000000E+00 0. -1.
         22    1    1    2    0    0  0.14445094356E+02 -0.10744958120E+02  0.14099313824E+02  0.22867127635E+02  0.00000000000E+00 0. -1.
</event>
<event>
 6    1  0.3624778E-005  0.1817610E+03  0.7818608E-02  0.1171166E+00
          2   -1    0    0  502    0  0.00000000000E+00  0.00000000000E+00  0.79064380890E+03  0.79064380890E+03  0.00000000000E+00 0. -1.
          1   -1    0    0  501    0 -0.00000000000E+00 -0.00000000000E+00 -0.72370561646E+02  0.72370561646E+02  0.00000000000E+00 0. -1.
          2    1    1    2  501    0 -0.37549589783E+02  0.10428515531E+03  0.22920501514E+03  0.25459831947E+03  0.00000000000E+00 0. -1.
          1    1    1    2  502    0 -0.10103443103E+03 -0.13757837056E+03  0.21367284855E+03  0.27348098747E+03  0.00000000000E+00 0. -1.
         22    1    1    2    0    0  0.12328415303E+03  0.76122128329E+02  0.21681830985E+03  0.26077526780E+03  0.00000000000E+00 0. -1.
         22    1    1    2    0    0  0.15299867786E+02 -0.42828913076E+02  0.58577073719E+02  0.74159795813E+02  0.00000000000E+00 0.  1.
</event>
<event>
 6    1  0.3624778E-005  0.4283080E+03  0.7818608E-02  0.1150119E+00
          2   -1    0    0  502    0  0.00000000000E+00  0.00000000000E+00  0.35039726416E+03  0.35039726416E+03  0.00000000000E+00 0.  1.
          1   -1    0    0  501    0 -0.00000000000E+00 -0.00000000000E+00 -0.87847215486E+03  0.87847215486E+03  0.00000000000E+00 0. -1.
          2    1    1    2  501    0 -0.10626363932E+02  0.12835278540E+03 -0.68407770084E+02  0.14583202713E+03  0.00000000000E+00 0.  1.
          1    1    1    2  502    0  0.44627791920E+00  0.49718878690E+02 -0.73160101465E+03  0.73328862715E+03  0.00000000000E+00 0. -1.
         22    1    1    2    0    0  0.14546849246E+02 -0.19777425586E+03  0.25713977892E+03  0.32472624317E+03  0.00000000000E+00 0.  1.
         22    1    1    2    0    0 -0.43667632325E+01  0.19702591770E+02  0.14794115125E+02  0.25022521573E+02  0.00000000000E+00 0.  1.
</event>
<event>
 6    1  0.3624778E-005  0.1449991E+03  0.7818608E-02  0.1313973E+00
          2   -1    0    0  502    0  0.00000000000E+00  0.00000000000E+00  0.22694869460E+02  0.22694869460E+02  0.00000000000E+00 0. -1.
          1   -1    0    0  501    0 -0.00000000000E+00 -0.00000000000E+00 -0.83405932156E+03  0.83405932156E+03  0.00000000000E+00 0. -1.
          2    1    1    2  501    0  0.30326856760E+02  0.48550757559E+02 -0.13906560546E+03  0.15038662481E+03  0.00000000000E+00 0. -1.
          1    1    1    2  502    0 -0.11289724530E+02  0.24479546023E+02 -0.37881274613E+03  0.37977072383E+03  0.00000000000E+00 0. -1.
         22    1    1    2    0    0  0.16453113518E+02  0.61906496579E+01  0.28492543042E+01  0.17808630990E+02  0.00000000000E+00 0. -1.
         22    1    1    2    0    0 -0.35490245748E+02 -0.79220953240E+02 -0.29633535481E+03  0.30878821138E+03  0.00000000000E+00 0. -1.
</event>
<event>
 6    1  0.3624778E-005  0.8688874E+02  0.7818608E-02  0.1359609E+00
          2   -1    0    0  502    0  0.00000000000E+00  0.00000000000E+00  0.23446773695E+03  0.23446773695E+03  0.00000000000E+00 0. -1.
          1   -1    0    0  501    0 -0.00000000000E+00 -0.00000000000E+00 -0.11564567348E+03  0.11564567348E+03  0.00000000000E+00 0. -1.
          2    1    1    2  501    0 -0.45337709289E+02 -0.45076896594E+02  0.71557872437E+02  0.95958134610E+02  0.00000000000E+00 0. -1.
          1    1    1    2  502    0  0.20845756476E+02  0.33596655055E+02 -0.71497830516E+02  0.81702023000E+02  0.00000000000E+00 0. -1.
         22    1    1    2    0    0  0.12028509531E+02  0.34885550691E+02 -0.12175388794E+02  0.38857776324E+02  0.00000000000E+00 0. -1.
         22    1    1    2    0    0  0.12463443282E+02 -0.23405309152E+02  0.13093741034E+03  0.13359547650E+03  0.00000000000E+00 0. -1.
</event>
<event>
 6    1  0.3624778E-005  0.7828498E+02  0.7818608E-02  0.1339262E+00
          2   -1    0    0  502    0  0.00000000000E+00  0.00000000000E+00  0.34861808851E+03  0.34861808851E+03  0.00000000000E+00 0. -1.
          1   -1    0    0  501    0 -0.00000000000E+00 -0.00000000000E+00 -0.35215592623E+02  0.35215592623E+02  0.00000000000E+00 0. -1.
          2    1    1    2  501    0  0.27410598987E+02 -0.22470902615E+02  0.67025093337E+02  0.75819822856E+02  0.00000000000E+00 0. -1.
          1    1    1    2  502    0 -0.31892951593E+02  0.70243570710E+01  0.17236697113E+01  0.32702797906E+02  0.00000000000E+00 0. -1.
         22    1    1    2    0    0  0.36574842486E+02 -0.28365781966E+02  0.19915262790E+03  0.20446052403E+03  0.00000000000E+00 0. -1.
         22    1    1    2    0    0 -0.32092489879E+02  0.43812327510E+02  0.45501104942E+02  0.70850536338E+02  0.00000000000E+00 0. -1.
</event>
<event>
 6    1  0.3624778E-005  0.1073786E+03  0.7818608E-02  0.1295116E+00
          2   -1    0    0  502    0  0.00000000000E+00  0.00000000000E+00  0.22807891195E+03  0.22807891195E+03  0.00000000000E+00 0. -1.
          1   -1    0    0  501    0 -0.00000000000E+00 -0.00000000000E+00 -0.15827373769E+03  0.15827373769E+03  0.00000000000E+00 0.  1.
          2    1    1    2  501    0 -0.24629000374E+02 -0.43907407562E+02  0.46977723177E+02  0.68857494676E+02  0.00000000000E+00 0. -1.
          1    1    1    2  502    0  0.93970426108E+01  0.86901040899E+02 -0.10304943554E+03  0.13512690881E+03  0.00000000000E+00 0.  1.
         22    1    1    2    0    0 -0.26065731959E+02  0.20765832670E+01  0.11784753349E+03  0.12071361038E+03  0.00000000000E+00 0. -1.
         22    1    1    2    0    0  0.41297689722E+02 -0.45070216605E+02  0.80293531284E+01  0.61654635778E+02  0.00000000000E+00 0. -1.
</event>
<event>
 6    1  0.3624778E-005  0.5256475E+03  0.7818608E-02  0.1135757E+00
          2   -1    0    0  502    0  0.00000000000E+00  0.00000000000E+00  0.54884986125E+03  0.54884986125E+03  0.00000000000E+00 0.  1.
          1   -1    0    0  501    0 -0.00000000000E+00 -0.00000000000E+00 -0.61125888687E+03  0.61125888687E+03  0.00000000000E+00 0.  1.
          2    1    1    2  501    0 -0.15297161079E+03  0.99253810357E+02  0.92482760506E+02  0.20446196118E+03  0.00000000000E+00 0.  1.
          1    1    1    2  502    0  0.34548959976E+03 -0.37880292260E+03 -0.26765070526E+03  0.57835250301E+03  0.00000000000E+00 0.  1.
         22    1    1    2    0    0 -0.17865767153E+03  0.28628333696E+03  0.89033626764E+02  0.34900386718E+03  0.00000000000E+00 0.  1.
         22    1    1    2    0    0 -0.13860317434E+02 -0.67342247137E+01  0.23725292370E+02  0.28290416750E+02  0.00000000000E+00 0. -1.
</event>
<event>
 6    1  0.3624778E-005  0.1564407E+03  0.7818608E-02  0.1215368E+00
          2   -1    0    0  502    0  0.00000000000E+00  0.00000000000E+00  0.54788047980E+03  0.54788047980E+03  0.00000000000E+00 0. -1.
          1   -1    0    0  501    0 -0.00000000000E+00 -0.00000000000E+00 -0.41434924777E+03  0.41434924777E+03  0.00000000000E+00 0. -1.
          2    1    1    2  501    0  0.58135305644E+02 -0.75366670504E+02  0.32839786978E+03  0.34191374594E+03  0.00000000000E+00 0. -1.
          1    1    1    2  502    0 -0.31265717418E+02  0.18754774519E+02 -0.38366755855E+03  0.38539600690E+03  0.00000000000E+00 0. -1.
         22    1    1    2    0    0 -0.33752878437E+02 -0.31742226330E+02  0.37639546862E+02  0.59695571219E+02  0.00000000000E+00 0.  1.
         22    1    1    2    0    0  0.68832902120E+01  0.88354122315E+02  0.15116137394E+03  0.17522440351E+03  0.00000000000E+00 0.  1.
</event>
<event>
 6    1  0.3624778E-005  0.9411865E+02  0.7818608E-02  0.1298406E+00
          2   -1    0    0  502    0  0.00000000000E+00  0.00000000000E+00  0.65844635602E+03  0.65844635602E+03  0.00000000000E+00 0. -1.
          1   -1    0    0  501    0 -0.00000000000E+00 -0.00000000000E+00 -0.14704207594E+04  0.14704207594E+04  0.00000000000E+00 0. -1.
          2    1    1    2  501    0  0.31702641518E+02  0.32200921803E+02  0.89130400473E+02  0.99930901791E+02  0.00000000000E+00 0. -1.
          1    1    1    2  502    0  0.26265165126E+02 -0.51336557351E+01 -0.14556437020E+04  0.14558896938E+04  0.00000000000E+00 0. -1.
         22    1    1    2    0    0 -0.52107978430E+02 -0.71379838836E+02  0.46077261633E+03  0.46917131921E+03  0.00000000000E+00 0. -1.
         22    1    1    2    0    0 -0.58598282139E+01  0.44312572768E+02  0.93766281834E+02  0.10387520061E+03  0.00000000000E+00 0. -1.
</event>
<event>
 6    1  0.3624778E-005  0.1086946E+03  0.7818608E-02  0.1266710E+00
          2   -1    0    0  502    0  0.00000000000E+00  0.00000000000E+00  0.95088762209E+02  0.95088762209E+02  0.00000000000E+00 0. -1.
          1   -1    0    0  501    0 -0.00000000000E+00 -0.00000000000E+00 -0.27942395739E+03  0.27942395739E+03  0.00000000000E+00 0. -1.
          2    1    1    2  501    0  0.10089524070E+02 -0.86288167821E+02 -0.15117118443E+03  0.17435645501E+03  0.00000000000E+00 0. -1.
          1    1    1    2  502    0  0.20079581685E+02 -0.25338133476E+00  0.26880686899E+02  0.33553317733E+02  0.00000000000E+00 0. -1.
         22    1    1    2    0    0 -0.19825438713E+02  0.99858626272E+02  0.24866024298E+01  0.10183799121E+03  0.00000000000E+00 0. -1.
         22    1    1    2    0    0 -0.10343667043E+02 -0.13317077116E+02 -0.62531300079E+02  0.64764955650E+02  0.00000000000E+00 0. -1.
</event>
<event>
 6    1  0.3624778E-005  0.1878131E+03  0.7818608E-02  0.1245208E+00
          2   -1    0    0  502    0  0.00000000000E+00  0.00000000000E+00  0.77693895636E+02  0.77693895636E+02  0.00000000000E+00 0.  1.
          1   -1    0    0  501    0 -0.00000000000E+00 -0.00000000000E+00 -0.53304799081E+03  0.53304799081E+03  0.00000000000E+00 0.  1.
          2    1    1    2  501    0 -0.16421068576E+02  0.16492399368E+02 -0.11810677818E+03  0.12037799542E+03  0.00000000000E+00 0.  1.
          1    1    1    2  502    0  0.11976302442E+03 -0.11104815290E+03 -0.12649545984E+03  0.20658164401E+03  0.00000000000E+00 0.  1.
         22    1    1    2    0    0 -0.91665506264E+02  0.12218496041E+03 -0.20055910192E+03  0.25210252469E+03  0.00000000000E+00 0.  1.
         22    1    1    2    0    0 -0.11676449585E+02 -0.27629206874E+02 -0.10192755225E+02  0.31679722323E+02  0.00000000000E+00 0. -1.
</event>
<event>
 6    1  0.3624778E-005  0.4887255E+03  0.7818608E-02  0.1138904E+00
          2   -1    0    0  502    0  0.00000000000E+00  0.00000000000E+00  0.11769870515E+04  0.11769870515E+04  0.00000000000E+00 0.  1.
          1   -1    0    0  501    0 -0.00000000000E+00 -0.00000000000E+00 -0.11360196293E+03  0.11360196293E+03  0.00000000000E+00 0.  1.
          2    1    1    2  501    0  0.12469546822E+03  0.13282555631E+03  0.13911252932E+03  0.22922452753E+03  0.00000000000E+00 0.  1.
          1    1    1    2  502    0 -0.15645374741E+03  0.83392511399E+02  0.10986925006E+03  0.20857453858E+03  0.00000000000E+00 0.  1.
         22    1    1    2    0    0  0.27720786159E+02 -0.23351761109E+03  0.75243773366E+03  0.78832826900E+03  0.00000000000E+00 0. -1.
         22    1    1    2    0    0  0.40374930262E+01  0.17299543377E+02  0.61965575539E+02  0.64461679336E+02  0.00000000000E+00 0.  1.
</event>
<event>
 6    1  0.3624778E-005  0.3367268E+03  0.7818608E-02  0.1178076E+00
          2   -1    0    0  502    0  0.00000000000E+00  0.00000000000E+00  0.34855980321E+02  0.34855980321E+02  0.00000000000E+00 0.  1.
          1   -1    0    0  501    0 -0.00000000000E+00 -0.00000000000E+00 -0.19916000067E+04  0.19916000067E+04  0.00000000000E+00 0.  1.
          2    1    1    2  501    0  0.30561475365E+02 -0.15615706463E+03 -0.36796311242E+03  0.40089385716E+03  0.00000000000E+00 0.  1.
          1    1    1    2  502    0 -0.11053640046E+03  0.19017215093E+02 -0.92874090624E+03  0.93548897439E+03  0.00000000000E+00 0.  1.
         22    1    1    2    0    0  0.99435400651E+02  0.14688377828E+03 -0.61470670432E+03  0.63978635149E+03  0.00000000000E+00 0.  1.
         22    1    1    2    0    0 -0.19460475553E+02 -0.97439287373E+01 -0.45333303435E+02  0.50286803998E+02  0.00000000000E+00 0.  1.
</event>
<event>
 6    1  0.3624778E-005  0.1628846E+03  0.7818608E-02  0.1250596E+00
          2   -1    0    0  502    0  0.00000000000E+00  0.00000000000E+00  0.42849356033E+03  0.42849356033E+03  0.00000000000E+00 0. -1.
          1   -1    0    0  501    0 -0.00000000000E+00 -0.00000000000E+00 -0.83756602243E+03  0.83756602243E+03  0.00000000000E+00 0. -1.
          2    1    1    2  501    0  0.32622040375E+02 -0.54750584829E+02  0.74070482589E+02  0.97715200702E+02  0.00000000000E+00 0. -1.
          1    1    1    2  502    0  0.29710525381E+02  0.14075574886E+02 -0.81079433289E+03  0.81146058892E+03  0.00000000000E+00 0. -1.
         22    1    1    2    0    0 -0.45435861516E+02  0.81469402794E+02  0.17949084885E+03  0.20228357799E+03  0.00000000000E+00 0. -1.
         22    1    1    2    0    0 -0.16896704240E+02 -0.40794392851E+02  0.14816053935E+03  0.15460021514E+03  0.00000000000E+00 0. -1.
</event>
<event>
 6    1  0.3624778E-005  0.1044741E+03  0.7818608E-02  0.1339652E+00
          2   -1    0    0  502    0  0.00000000000E+00  0.00000000000E+00  0.56548796732E+02  0.56548796732E+02  0.00000000000E+00 0. -1.
          1   -1    0    0  501    0 -0.00000000000E+00 -0.00000000000E+00 -0.35652293118E+03  0.35652293118E+03  0.00000000000E+00 0. -1.
          2    1    1    2  501    0  0.55024795832E+02 -0.26774092312E+01 -0.63787036977E+02  0.84283348076E+02  0.00000000000E+00 0. -1.
          1    1    1    2  502    0 -0.54285364578E+02 -0.58883275593E+02 -0.14388750979E+03  0.16467469880E+03  0.00000000000E+00 0. -1.
         22    1    1    2    0    0  0.11393005792E+01  0.29823911717E+02  0.27246669644E+02  0.40412185323E+02  0.00000000000E+00 0. -1.
         22    1    1    2    0    0 -0.18787318336E+01  0.31736773108E+02 -0.11954625732E+03  0.12370149571E+03  0.00000000000E+00 0. -1.
</event>
<event>
 6    1  0.3624778E-005  0.3821013E+03  0.7818608E-02  0.1167479E+00
          2   -1    0    0  502    0  0.00000000000E+00  0.00000000000E+00  0.69997683896E+02  0.69997683896E+02  0.00000000000E+00 0.  1.
          1   -1    0    0  501    0 -0.00000000000E+00 -0.00000000000E+00 -0.10936308707E+04  0.10936308707E+04  0.00000000000E+00 0.  1.
          2    1    1    2  501    0 -0.57265173482E+02  0.11368538459E+03 -0.50090538224E+03  0.51682672988E+03  0.00000000000E+00 0.  1.
          1    1    1    2  502    0 -0.88902719940E+02 -0.92210136674E+02 -0.40028808417E+03  0.42028199253E+03  0.00000000000E+00 0.  1.
         22    1    1    2    0    0 -0.18900689985E+02  0.14690656757E+01 -0.31240251414E+02  0.36542407478E+02  0.00000000000E+00 0. -1.
         22    1    1    2    0    0  0.16506858341E+03 -0.22944313592E+02 -0.91199468976E+02  0.18997742470E+03  0.00000000000E+00 0.  1.
</event>
<event>
 6    1  0.8198413E-005  0.5332501E+02  0.7818608E-02  0.1477546E+00
          2   -1    0    0  502    0  0.00000000000E+00  0.00000000000E+00  0.12370649684E+03  0.12370649684E+03  0.00000000000E+00 0.  1.
          1   -1    0    0  501    0 -0.00000000000E+00 -0.00000000000E+00 -0.81757745260E+03  0.81757745260E+03  0.00000000000E+00 0.  1.
          2    1    1    2  501    0 -0.54449504809E+02  0.18964794855E+02 -0.16120462731E+03  0.17120556031E+03  0.00000000000E+00 0.  1.
          1    1    1    2  502    0  0.36254522265E+02 -0.33023770859E+02 -0.61506825872E+03  0.61702019635E+03  0.00000000000E+00 0.  1.
         22    1    1    2    0    0 -0.71773990272E+01  0.91675298400E+01 -0.32898410536E+02  0.34897909335E+02  0.00000000000E+00 0.  1.
         22    1    1    2    0    0  0.25372381572E+02  0.48914461634E+01  0.11530034081E+03  0.11816028344E+03  0.00000000000E+00 0.  1.
</event>
<event>
 6    1  0.3624778E-005  0.5998513E+02  0.7818608E-02  0.1425178E+00
          2   -1    0    0  502    0  0.00000000000E+00  0.00000000000E+00  0.45941892934E+02  0.45941892934E+02  0.00000000000E+00 0. -1.
          1   -1    0    0  501    0 -0.00000000000E+00 -0.00000000000E+00 -0.56381848837E+03  0.56381848837E+03  0.00000000000E+00 0. -1.
          2    1    1    2  501    0 -0.58297210043E+02  0.55939153436E+01 -0.22912616431E+03  0.23649240106E+03  0.00000000000E+00 0. -1.
          1    1    1    2  502    0  0.46206059012E+02 -0.11444694528E+02 -0.23422104596E+03  0.23900937072E+03  0.00000000000E+00 0. -1.
         22    1    1    2    0    0  0.37030448732E+02  0.12924421366E+02  0.27715241962E+02  0.48025299978E+02  0.00000000000E+00 0. -1.
         22    1    1    2    0    0 -0.24939297701E+02 -0.70736421818E+01 -0.82244627130E+02  0.86233309546E+02  0.00000000000E+00 0.  1.
</event>
<event>
 6    1  0.3624778E-005  0.8761823E+02  0.7818608E-02  0.1322516E+00
          2   -1    0    0  502    0  0.00000000000E+00  0.00000000000E+00  0.18068217354E+02  0.18068217354E+02  0.00000000000E+00 0. -1.
          1   -1    0    0  501    0 -0.00000000000E+00 -0.00000000000E+00 -0.10929734876E+04  0.10929734876E+04  0.00000000000E+00 0. -1.
          2    1    1    2  501    0 -0.19730303984E+02  0.17770421312E+02 -0.46164302087E+03  0.46240604611E+03  0.00000000000E+00 0. -1.
          1    1    1    2  502    0  0.72267167785E+02  0.13129565991E+02 -0.18216073172E+03  0.19641145899E+03  0.00000000000E+00 0. -1.
         22    1    1    2    0    0 -0.10907797374E+02 -0.67490152186E+02 -0.13890418558E+03  0.15481690301E+03  0.00000000000E+00 0. -1.
         22    1    1    2    0    0 -0.41629066427E+02  0.36590164883E+02 -0.29219733208E+03  0.29740729684E+03  0.00000000000E+00 0.  1.
</event>
<event>
 6    1  0.3624778E-005  0.2127197E+03  0.7818608E-02  0.1231155E+00
          2   -1    0    0  502    0  0.00000000000E+00  0.00000000000E+00  0.54741295415E+03  0.54741295415E+03  0.00000000000E+00 0. -1.
          1   -1    0    0  501    0 -0.00000000000E+00 -0.00000000000E+00 -0.81358666509E+03  0.81358666509E+03  0.00000000000E+00 0.  1.
          2    1    1    2  501    0 -0.76387951950E+02 -0.24642914969E+02  0.74422514229E+02  0.10945822530E+03  0.00000000000E+00 0. -1.
          1    1    1    2  502    0 -0.23100087169E+02 -0.21439402024E+02 -0.77987815151E+03  0.78051469761E+03  0.00000000000E+00 0.  1.
         22    1    1    2    0    0  0.82404401539E+02  0.12517317770E+02  0.42098176898E+03  0.42915360706E+03  0.00000000000E+00 0. -1.
         22    1    1    2    0    0  0.17083637580E+02  0.33564999223E+02  0.18300157361E+02  0.41873089273E+02  0.00000000000E+00 0. -1.
</event>
<event>
 6    1  0.3624778E-005  0.7673008E+02  0.7818608E-02  0.1389312E+00
          2   -1    0    0  502    0  0.00000000000E+00  0.00000000000E+00  0.73102011549E+02  0.73102011549E+02  0.00000000000E+00 0. -1.
          1   -1    0    0  501    0 -0.00000000000E+00 -0.00000000000E+00 -0.13201205223E+03  0.13201205223E+03  0.00000000000E+00 0. -1.
          2    1    1    2  501    0  0.26611354126E+02  0.15260218333E+02 -0.10219022409E+02  0.32333679824E+02  0.00000000000E+00 0. -1.
          1    1    1    2  502    0 -0.38333007961E+02 -0.44729694468E+01 -0.13200683203E+02  0.40788294792E+02  0.00000000000E+00 0. -1.
         22    1    1    2    0    0  0.30948771550E+02  0.11085544179E+02  0.39591219608E+02  0.51460474349E+02  0.00000000000E+00 0. -1.
         22    1    1    2    0    0 -0.19227117715E+02 -0.21872793065E+02 -0.75081554679E+02  0.80531614818E+02  0.00000000000E+00 0. -1.
</event>
<event>
 6    1  0.4862427E-005  0.4788994E+02  0.7818608E-02  0.1507822E+00
          2   -1    0    0  502    0  0.00000000000E+00  0.00000000000E+00  0.11579219563E+03  0.11579219563E+03  0.00000000000E+00 0. -1.
          1   -1    0    0  501    0 -0.00000000000E+00 -0.00000000000E+00 -0.68787725258E+03  0.68787725258E+03  0.00000000000E+00 0. -1.
          2    1    1    2  501    0  0.17415575155E+02  0.51114087001E+02 -0.10063966349E+03  0.11421161944E+03  0.00000000000E+00 0. -1.
          1    1    1    2  502    0 -0.10384898343E+02 -0.38441848195E+02 -0.54331955612E+03  0.54477680005E+03  0.00000000000E+00 0. -1.
         22    1    1    2    0    0 -0.70696755546E+00 -0.23421153104E+02  0.10588977138E+03  0.10845134346E+03  0.00000000000E+00 0. -1.
         22    1    1    2    0    0 -0.63237092566E+01  0.10748914297E+02 -0.34015608715E+02  0.36229685254E+02  0.00000000000E+00 0. -1.
</event>
<event>
 6    1  0.3624778E-005  0.9290045E+02  0.7818608E-02  0.1340268E+00
          2   -1    0    0  502    0  0.00000000000E+00  0.00000000000E+00  0.39450781704E+03  0.39450781704E+03  0.00000000000E+00 0. -1.
          1   -1    0    0  501    0 -0.00000000000E+00 -0.00000000000E+00 -0.10324417832E+03  0.10324417832E+03  0.00000000000E+00 0. -1.
          2    1    1    2  501    0 -0.28821772387E+02  0.24272634615E+02 -0.55742494652E+02  0.67283586890E+02  0.00000000000E+00 0. -1.
          1    1    1    2  502    0  0.84540013430E+02 -0.59297260118E+02  0.19022655407E+03  0.21644703925E+03  0.00000000000E+00 0. -1.
         22    1    1    2    0    0 -0.12956416632E+02  0.39948116150E+02  0.16494669508E+03  0.17020908593E+03  0.00000000000E+00 0. -1.
         22    1    1    2    0    0 -0.42761824411E+02 -0.49234906461E+01 -0.81671157717E+01  0.43812283290E+02  0.00000000000E+00 0. -1.
</event>
<event>
 6    1  0.3624778E-005  0.1211817E+03  0.7818608E-02  0.1302712E+00
          2   -1    0    0  502    0  0.00000000000E+00  0.00000000000E+00  0.14167499919E+03  0.14167499919E+03  0.00000000000E+00 0.  1.
          1   -1    0    0  501    0 -0.00000000000E+00 -0.00000000000E+00 -0.25526757305E+04  0.25526757305E+04  0.00000000000E+00 0. -1.
          2    1    1    2  501    0  0.36924236272E+02  0.10370925770E+02  0.34505102477E+02  0.51590284188E+02  0.00000000000E+00 0.  1.
          1    1    1    2  502    0 -0.10995716228E+03 -0.14202446673E+02 -0.24875647550E+04  0.24900342764E+04  0.00000000000E+00 0. -1.
         22    1    1    2    0    0 -0.21648190275E+02 -0.29960583011E+02  0.36645669771E+02  0.52049839477E+02  0.00000000000E+00 0. -1.
         22    1    1    2    0    0  0.94681116280E+02  0.33792103915E+02  0.54132514503E+01  0.10067632968E+03  0.00000000000E+00 0.  1.
</event>
<event>
 6    1  0.3624778E-005  0.9231613E+02  0.7818608E-02  0.1368840E+00
          2   -1    0    0  502    0  0.00000000000E+00  0.00000000000E+00  0.11461466993E+03  0.11461466993E+03  0.00000000000E+00 0. -1.
          1   -1    0    0  501    0 -0.00000000000E+00 -0.00000000000E+00 -0.25242940479E+03  0.25242940479E+03  0.00000000000E+00 0.  1.
          2    1    1    2  501    0 -0.82315917382E+01 -0.27345224716E+02 -0.11946769212E+02  0.30955544122E+02  0.00000000000E+00 0. -1.
          1    1    1    2  502    0 -0.27179388175E+02 -0.45994544459E+00 -0.18995925992E+03  0.19189437491E+03  0.00000000000E+00 0.  1.
         22    1    1    2    0    0 -0.18599643573E+02 -0.18696185363E+02  0.67879750286E+02  0.72822761463E+02  0.00000000000E+00 0. -1.
         22    1    1    2    0    0  0.54010623486E+02  0.46501355523E+02 -0.37884560015E+01  0.71371394226E+02  0.00000000000E+00 0. -1.
</event>
<event>
 6    1  0.3624778E-005  0.8862300E+02  0.7818608E-02  0.1320842E+00
          2   -1    0    0  502    0  0.00000000000E+00  0.00000000000E+00  0.32185933154E+03  0.32185933154E+03  0.00000000000E+00 0.  1.
          1   -1    0    0  501    0 -0.00000000000E+00 -0.00000000000E+00 -0.67922158976E+02  0.67922158976E+02  0.00000000000E+00 0. -1.
          2    1    1    2  501    0 -0.28751726448E+02 -0.19783515682E+02 -0.52156232562E+01  0.35288128208E+02  0.00000000000E+00 0.  1.
          1    1    1    2  502    0  0.65312696817E+02 -0.42035274581E+02  0.30104319833E+02  0.83300556704E+02  0.00000000000E+00 0. -1.
         22    1    1    2    0    0 -0.59042590127E+02  0.54721420172E+02  0.23368825305E+03  0.24716525016E+03  0.00000000000E+00 0.  1.
         22    1    1    2    0    0  0.22481619758E+02  0.70973700906E+01 -0.46397770651E+01  0.24027555439E+02  0.00000000000E+00 0.  1.
</event>
<event>
 6    1  0.3624778E-005  0.4057905E+02  0.7818608E-02  0.1510370E+00
          2   -1    0    0  502    0  0.00000000000E+00  0.00000000000E+00  0.13900925537E+03  0.13900925537E+03  0.00000000000E+00 0. -1.
          1   -1    0    0  501    0 -0.00000000000E+00 -0.00000000000E+00 -0.48961144980E+03  0.48961144980E+03  0.00000000000E+00 0.  1.
          2    1    1    2  501    0  0.29157663003E+02  0.11288989021E+02 -0.15812051432E+02  0.35037573481E+02  0.00000000000E+00 0. -1.
          1    1    1    2  502    0 -0.18312919642E+02  0.10311312233E+02 -0.43439239340E+03  0.43490049164E+03  0.00000000000E+00 0.  1.
         22    1    1    2    0    0 -0.28312105248E+02 -0.23552666742E+02  0.12358120866E+03  0.12895200094E+03  0.00000000000E+00 0. -1.
         22    1    1    2    0    0  0.17467361886E+02  0.19523654878E+01 -0.23978958268E+02  0.29730639110E+02  0.00000000000E+00 0. -1.
</event>
<event>
 6    1  0.3624778E-005  0.2130333E+03  0.7818608E-02  0.1146928E+00
          2   -1    0    0  502    0  0.00000000000E+00  0.00000000000E+00  0.24000753782E+03  0.24000753782E+03  0.00000000000E+00 0.  1.
          1   -1    0    0  501    0 -0.00000000000E+00 -0.00000000000E+00 -0.20383284385E+04  0.20383284385E+04  0.00000000000E+00 0.  1.
          2    1    1    2  501    0 -0.32830357723E+03 -0.37440350780E+02 -0.51250929054E+03  0.60979569659E+03  0.00000000000E+00 0.  1.
          1    1    1    2  502    0  0.18735559212E+03 -0.49382559264E+02 -0.14133387384E+04  0.14265577957E+04  0.00000000000E+00 0.  1.
         22    1    1    2    0    0  0.15528480030E+03  0.84791640180E+02  0.13777496657E+03  0.22424302188E+03  0.00000000000E+00 0.  1.
         22    1    1    2    0    0 -0.14336815194E+02  0.20312698638E+01 -0.10247838334E+02  0.17739462159E+02  0.00000000000E+00 0. -1.
</event>
<event>
 6    1  0.3624778E-005  0.1832536E+03  0.7818608E-02  0.1245255E+00
          2   -1    0    0  502    0  0.00000000000E+00  0.00000000000E+00  0.28786281250E+03  0.28786281250E+03  0.00000000000E+00 0.  1.
          1   -1    0    0  501    0 -0.00000000000E+00 -0.00000000000E+00 -0.18022182608E+03  0.18022182608E+03  0.00000000000E+00 0.  1.
          2    1    1    2  501    0 -0.54462604615E+01 -0.69426761796E+02  0.17568699810E+02  0.71821975882E+02  0.00000000000E+00 0.  1.
          1    1    1    2  502    0 -0.53867873034E+02  0.14266591406E+03 -0.73249985815E+02  0.16917704100E+03  0.00000000000E+00 0.  1.
         22    1    1    2    0    0 -0.31615979217E+02  0.64142881929E+01  0.59736753154E+02  0.67891037054E+02  0.00000000000E+00 0. -1.
         22    1    1    2    0    0  0.90930112712E+02 -0.79653440461E+02  0.10358551927E+03  0.15919458464E+03  0.00000000000E+00 0.  1.
</event>
<event>
 6    1  0.3624778E-005  0.7035873E+02  0.7818608E-02  0.1435629E+00
          2   -1    0    0  502    0  0.00000000000E+00  0.00000000000E+00  0.75131719708E+02  0.75131719708E+02  0.00000000000E+00 0.  1.
          1   -1    0    0  501    0 -0.00000000000E+00 -0.00000000000E+00 -0.42215703064E+03  0.42215703064E+03  0.00000000000E+00 0.  1.
          2    1    1    2  501    0  0.13840712763E+02 -0.22648936863E+02  0.61471911452E+01  0.27245690114E+02  0.00000000000E+00 0.  1.
          1    1    1    2  502    0  0.57117153410E+01  0.23236533773E+02 -0.34513368698E+03  0.34596216857E+03  0.00000000000E+00 0.  1.
         22    1    1    2    0    0 -0.27987189069E+02 -0.19541002326E+02 -0.59499825698E+02  0.68595646961E+02  0.00000000000E+00 0. -1.
         22    1    1    2    0    0  0.84347609645E+01  0.18953405416E+02  0.51461010593E+02  0.55485244711E+02  0.00000000000E+00 0.  1.
</event>
<event>
 6    1  0.3624778E-005  0.5485961E+02  0.7818608E-02  0.1466687E+00
          2   -1    0    0  502    0  0.00000000000E+00  0.00000000000E+00  0.25895539337E+03  0.25895539337E+03  0.00000000000E+00 0. -1.
          1   -1    0    0  501    0 -0.00000000000E+00 -0.00000000000E+00 -0.10823488287E+04  0.10823488287E+04  0.00000000000E+00 0. -1.
          2    1    1    2  501    0 -0.21280935975E+02 -0.45233841573E+01  0.58987531555E+02  0.62871838840E+02  0.00000000000E+00 0. -1.
          1    1    1    2  502    0  0.46225785059E+02  0.12174165254E+02 -0.10577139853E+04  0.10587936099E+04  0.00000000000E+00 0. -1.
         22    1    1    2    0    0  0.69853318246E+01 -0.26817944087E+02 -0.10854934550E+02  0.29762839076E+02  0.00000000000E+00 0. -1.
         22    1    1    2    0    0 -0.31930180909E+02  0.19167162990E+02  0.18618795299E+03  0.18987593431E+03  0.00000000000E+00 0. -1.
</event>
<event>
 6    1  0.3624778E-005  0.2125360E+03  0.7818608E-02  0.1254492E+00
          2   -1    0    0  502    0  0.00000000000E+00  0.00000000000E+00  0.89219698976E+02  0.89219698976E+02  0.00000000000E+00 0.  1.
          1   -1    0    0  501    0 -0.00000000000E+00 -0.00000000000E+00 -0.68205379607E+03  0.68205379607E+03  0.00000000000E+00 0.  1.
          2    1    1    2  501    0 -0.15708759418E+02  0.51095269375E+02 -0.27799887252E+03  0.28309161909E+03  0.00000000000E+00 0.  1.
          1    1    1    2  502    0  0.10124208988E+03 -0.12706691547E+03 -0.26203862070E+03  0.30831834280E+03  0.00000000000E+00 0.  1.
         22    1    1    2    0    0 -0.15698205661E+02 -0.70129924394E+01  0.35867334147E+02  0.39775386645E+02  0.00000000000E+00 0.  1.
         22    1    1    2    0    0 -0.69835124799E+02  0.82984638531E+02 -0.88663938016E+02  0.14008814651E+03  0.00000000000E+00 0.  1.
</event>
<event>
 6    1  0.3624778E-005  0.1416793E+03  0.7818608E-02  0.1254841E+00
          2   -1    0    0  502    0  0.00000000000E+00  0.00000000000E+00  0.12850652401E+03  0.12850652401E+03  0.00000000000E+00 0.  1.
          1   -1    0    0  501    0 -0.00000000000E+00 -0.00000000000E+00 -0.22675930953E+03  0.22675930953E+03  0.00000000000E+00 0.  1.
          2    1    1    2  501    0 -0.11672402273E+02  0.37835770320E+02 -0.51439401970E+02  0.64913808744E+02  0.00000000000E+00 0.  1.
          1    1    1    2  502    0 -0.14913934490E+02  0.21280613036E+02 -0.12651432317E+03  0.12915558022E+03  0.00000000000E+00 0.  1.
         22    1    1    2    0    0 -0.46779876165E+02 -0.33586182783E+02  0.55127658468E+02  0.79721058800E+02  0.00000000000E+00 0.  1.
         22    1    1    2    0    0  0.73366212928E+02 -0.25530200573E+02  0.24573281156E+02  0.81475385777E+02  0.00000000000E+00 0.  1.
</event>
<event>
 6    1  0.3624778E-005  0.3149639E+03  0.7818608E-02  0.1142294E+00
          2   -1    0    0  502    0  0.00000000000E+00  0.00000000000E+00  0.19894414795E+03  0.19894414795E+03  0.00000000000E+00 0. -1.
          1   -1    0    0  501    0 -0.00000000000E+00 -0.00000000000E+00 -0.64092279160E+03  0.64092279160E+03  0.00000000000E+00 0.  1.
          2    1    1    2  501    0  0.67410372636E+02  0.71798011717E+01 -0.16298028779E+03  0.17651708725E+03  0.00000000000E+00 0. -1.
          1    1    1    2  502    0  0.33183979961E+02  0.15294273672E+02 -0.43623572001E+03  0.43776328620E+03  0.00000000000E+00 0.  1.
         22    1    1    2    0    0 -0.67067996529E+02 -0.74008312625E+02  0.10494924710E+03  0.14487819354E+03  0.00000000000E+00 0. -1.
         22    1    1    2    0    0 -0.33526356068E+02  0.51534237782E+02  0.52288117047E+02  0.80708372547E+02  0.00000000000E+00 0. -1.
</event>
<event>
 6    1  0.3624778E-005  0.1040061E+03  0.7818608E-02  0.1307819E+00
          2   -1    0    0  502    0  0.00000000000E+00  0.00000000000E+00  0.73592474375E+03  0.73592474375E+03  0.00000000000E+00 0. -1.
          1   -1    0    0  501    0 -0.00000000000E+00 -0.00000000000E+00 -0.30759111586E+02  0.30759111586E+02  0.00000000000E+00 0. -1.
          2    1    1    2  501    0  0.23173447155E+02 -0.10942295534E+02  0.19032304990E+02  0.31921327006E+02  0.00000000000E+00 0. -1.
          1    1    1    2  502    0 -0.83350675488E+02  0.17758262486E+02  0.46335445336E+03  0.47112635295E+03  0.00000000000E+00 0. -1.
         22    1    1    2    0    0 -0.80544809099E+01 -0.52641604275E+02  0.12519192777E+03  0.13604790311E+03  0.00000000000E+00 0. -1.
         22    1    1    2    0    0  0.68231709243E+02  0.45825637323E+02  0.97586946039E+02  0.12758827226E+03  0.00000000000E+00 0. -1.
</event>
<event>
 6    1  0.3624778E-005  0.1722189E+03  0.7818608E-02  0.1301660E+00
          2   -1    0    0  502    0  0.00000000000E+00  0.00000000000E+00  0.18855019217E+03  0.18855019217E+03  0.00000000000E+00 0.  1.
          1   -1    0    0  501    0 -0.00000000000E+00 -0.00000000000E+00 -0.91424745128E+03  0.91424745128E+03  0.00000000000E+00 0.  1.
          2    1    1    2  501    0 -0.24186106148E+02  0.48858924346E+02  0.21591878219E+02  0.58637628055E+02  0.00000000000E+00 0.  1.
          1    1    1    2  502    0  0.10695033744E+03 -0.12859475903E+03 -0.83612326311E+03  0.85268815979E+03  0.00000000000E+00 0.  1.
         22    1    1    2    0    0  0.10151544756E+02  0.83256491521E+01  0.71874954723E+02  0.73064214300E+02  0.00000000000E+00 0. -1.
         22    1    1    2    0    0 -0.92915776048E+02  0.71410185531E+02  0.16959171060E+02  0.11840764130E+03  0.00000000000E+00 0.  1.
</event>
<event>
 6    1  0.3624778E-005  0.8031169E+02  0.7818608E-02  0.1348542E+00
          2   -1    0    0  502    0  0.00000000000E+00  0.00000000000E+00  0.91702088631E+02  0.91702088631E+02  0.00000000000E+00 0. -1.
          1   -1    0    0  501    0 -0.00000000000E+00 -0.00000000000E+00 -0.55502766625E+03  0.55502766625E+03  0.00000000000E+00 0. -1.
          2    1    1    2  501    0 -0.47868666393E+02  0.15753962778E+01 -0.38811192372E+03  0.39105595051E+03  0.00000000000E+00 0. -1.
          1    1    1    2  502    0  0.39554207928E+02 -0.37888889429E+02 -0.10885634510E+03  0.12185978490E+03  0.00000000000E+00 0. -1.
         22    1    1    2    0    0  0.20152776717E+02  0.53157516350E+02  0.71123075770E+02  0.91051347386E+02  0.00000000000E+00 0. -1.
         22    1    1    2    0    0 -0.11838318253E+02 -0.16844023198E+02 -0.37480384573E+02  0.42762672090E+02  0.00000000000E+00 0. -1.
</event>
<event>
 6    1  0.3624778E-005  0.7564599E+02  0.7818608E-02  0.1395755E+00
          2   -1    0    0  502    0  0.00000000000E+00  0.00000000000E+00  0.69996956940E+02  0.69996956940E+02  0.00000000000E+00 0. -1.
          1   -1    0    0  501    0 -0.00000000000E+00 -0.00000000000E+00 -0.43770195498E+03  0.43770195498E+03  0.00000000000E+00 0.  1.
          2    1    1    2  501    0  0.23121570210E+02 -0.34189983017E+02 -0.81858258188E+02  0.91675167745E+02  0.00000000000E+00 0. -1.
          1    1    1    2  502    0 -0.35839193063E+02  0.68131669648E+02 -0.27912965366E+03  0.28955092077E+03  0.00000000000E+00 0.  1.
         22    1    1    2    0    0 -0.15803822738E+02 -0.26605671283E+02  0.52155621246E+02  0.60645126640E+02  0.00000000000E+00 0. -1.
         22    1    1    2    0    0  0.28521445591E+02 -0.73360153488E+01 -0.58872707442E+02  0.65827696765E+02  0.00000000000E+00 0.  1.
</event>
<event>
 6    1  0.3624778E-005  0.7644914E+02  0.7818608E-02  0.1360630E+00
          2   -1    0    0  502    0  0.00000000000E+00  0.00000000000E+00  0.67446887285E+02  0.67446887285E+02  0.00000000000E+00 0.  1.
          1   -1    0    0  501    0 -0.00000000000E+00 -0.00000000000E+00 -0.68522920080E+03  0.68522920080E+03  0.00000000000E+00 0. -1.
          2    1    1    2  501    0  0.37471943202E+02  0.10601700279E+02 -0.30005440312E+02  0.49161662141E+02  0.00000000000E+00 0.  1.
          1    1    1    2  502    0 -0.22759007006E+02 -0.64217613639E+02 -0.55562776382E+03  0.55978932308E+03  0.00000000000E+00 0. -1.
         22    1    1    2    0    0  0.38462374694E+02  0.50718111059E+02 -0.56552165743E+02  0.85145924780E+02  0.00000000000E+00 0.  1.
         22    1    1    2    0    0 -0.53175310889E+02  0.28978023006E+01  0.24403056357E+02  0.58579178092E+02  0.00000000000E+00 0.  1.
</event>
<event>
 6    1  0.3624778E-005  0.7229813E+02  0.7818608E-02  0.1382905E+00
          2   -1    0    0  502    0  0.00000000000E+00  0.00000000000E+00  0.23256779254E+03  0.23256779254E+03  0.00000000000E+00 0.  1.
          1   -1    0    0  501    0 -0.00000000000E+00 -0.00000000000E+00 -0.55464651771E+03  0.55464651771E+03  0.00000000000E+00 0. -1.
          2    1    1    2  501    0 -0.64319035948E+01  0.36501168276E+02  0.54542737354E+02  0.65944028293E+02  0.00000000000E+00 0.  1.
          1    1    1    2  502    0 -0.18720439177E+02 -0.65747252159E+02 -0.52050421265E+03  0.52497408640E+03  0.00000000000E+00 0. -1.
         22    1    1    2    0    0 -0.11006032120E+02  0.53583645578E+02  0.14255478826E+03  0.15268990625E+03  0.00000000000E+00 0.  1.
         22    1    1    2    0    0  0.36158374892E+02 -0.24337561695E+02  0.13279618657E+01  0.43606289304E+02  0.00000000000E+00 0.  1.
</event>
<event>
 6    1  0.3624778E-005  0.1184540E+03  0.7818608E-02  0.1246537E+00
          2   -1    0    0  502    0  0.00000000000E+00  0.00000000000E+00  0.62127199581E+03  0.62127199581E+03  0.00000000000E+00 0. -1.
          1   -1    0    0  501    0 -0.00000000000E+00 -0.00000000000E+00 -0.36546254673E+03  0.36546254673E+03  0.00000000000E+00 0. -1.
          2    1    1    2  501    0 -0.77614207491E+02  0.21210290408E+02  0.16157351248E+03  0.18049886858E+03  0.00000000000E+00 0. -1.
          1    1    1    2  502    0 -0.25645506883E+02 -0.51768387083E+02 -0.33891240494E+03  0.34380121604E+03  0.00000000000E+00 0. -1.
         22    1    1    2    0    0 -0.23639895212E+02  0.17913257603E+02  0.45197634804E+02  0.54060666250E+02  0.00000000000E+00 0. -1.
         22    1    1    2    0    0  0.12689960959E+03  0.12644839073E+02  0.38795070673E+03  0.40837379167E+03  0.00000000000E+00 0. -1.
</event>
<event>
 6    1  0.3624778E-005  0.1248307E+03  0.7818608E-02  0.1290321E+00
          2   -1    0    0  502    0  0.00000000000E+00  0.00000000000E+00  0.59189452935E+02  0.59189452935E+02  0.00000000000E+00 0. -1.
          1   -1    0    0  501    0 -0.00000000000E+00 -0.00000000000E+00 -0.62483654258E+03  0.62483654258E+03  0.00000000000E+00 0.  1.
          2    1    1    2  501    0  0.40127063156E+02  0.56783481804E+02 -0.50833952457E+02  0.86131502516E+02  0.00000000000E+00 0. -1.
          1    1    1    2  502    0  0.65895993777E+01 -0.35112104393E+02 -0.44296466939E+03  0.44440294894E+03  0.00000000000E+00 0.  1.
         22    1    1    2    0    0 -0.44183830385E+02  0.70600428643E+01 -0.10223384906E+03  0.11159666199E+03  0.00000000000E+00 0. -1.
         22    1    1    2    0    0 -0.25328321483E+01 -0.28731420275E+02  0.30385381263E+02  0.41894882077E+02  0.00000000000E+00 0.  1.
</event>
<event>
 6    1  0.3624778E-005  0.1272346E+03  0.7818608E-02  0.1278736E+00
          2   -1    0    0  502    0  0.00000000000E+00  0.00000000000E+00  0.27026838533E+03  0.27026838533E+03  0.00000000000E+00 0.  1.
          1   -1    0    0  501    0 -0.00000000000E+00 -0.00000000000E+00 -0.71327157418E+03  0.71327157418E+03  0.00000000000E+00 0.  1.
          2    1    1    2  501    0 -0.58289019528E+02  0.31089188053E+02  0.35263432946E+02  0.74884291507E+02  0.00000000000E+00 0.  1.
          1    1    1    2  502    0  0.81476784123E+00 -0.21787321385E+02 -0.67224575474E+03  0.67259921647E+03  0.00000000000E+00 0.  1.
         22    1    1    2    0    0  0.26189396371E+02 -0.50377562346E+02  0.30156975728E+02  0.64290173863E+02  0.00000000000E+00 0.  1.
         22    1    1    2    0    0  0.31284855316E+02  0.41075695678E+02  0.16382215722E+03  0.17176627767E+03  0.00000000000E+00 0.  1.
</event>
<event>
 6    1  0.3624778E-005  0.9647383E+02  0.7818608E-02  0.1294062E+00
          2   -1    0    0  502    0  0.00000000000E+00  0.00000000000E+00  0.32281651912E+03  0.32281651912E+03  0.00000000000E+00 0.  1.
          1   -1    0    0  501    0 -0.00000000000E+00 -0.00000000000E+00 -0.83268568528E+02  0.83268568528E+02  0.00000000000E+00 0. -1.
          2    1    1    2  501    0 -0.20819282456E+02  0.12146221439E+02  0.18366675688E+02  0.30303597032E+02  0.00000000000E+00 0.  1.
          1    1    1    2  502    0  0.67685374381E+02  0.86431044224E+02  0.15569903272E+02  0.11087856961E+03  0.00000000000E+00 0. -1.
         22    1    1    2    0    0 -0.64064164208E+02  0.21703361733E+01  0.67495229250E+02  0.93083475796E+02  0.00000000000E+00 0.  1.
         22    1    1    2    0    0  0.17198072283E+02 -0.10074760184E+03  0.13811614239E+03  0.17181944521E+03  0.00000000000E+00 0.  1.
</event>
<event>
 6    1  0.3624778E-005  0.1508863E+03  0.7818608E-02  0.1258677E+00
          2   -1    0    0  502    0  0.00000000000E+00  0.00000000000E+00  0.20220387542E+03  0.20220387542E+03  0.00000000000E+00 0.  1.
          1   -1    0    0  501    0 -0.00000000000E+00 -0.00000000000E+00 -0.20021622337E+03  0.20021622337E+03  0.00000000000E+00 0.  1.
          2    1    1    2  501    0 -0.29934448000E+01 -0.20959381577E+02  0.15333295440E+02  0.26141276497E+02  0.00000000000E+00 0.  1.
          1    1    1    2  502    0  0.46233877099E+02  0.14915794641E+03 -0.84992131323E+02  0.17779011996E+03  0.00000000000E+00 0.  1.
         22    1    1    2    0    0  0.21494988228E+02 -0.38663623290E+02  0.75977738679E+02  0.87917728926E+02  0.00000000000E+00 0.  1.
         22    1    1    2    0    0 -0.64735420527E+02 -0.89534941539E+02 -0.43312507530E+01  0.11057097341E+03  0.00000000000E+00 0.  1.
</event>
<event>
 6    1  0.3624778E-005  0.1221270E+03  0.7818608E-02  0.1243432E+00
          2   -1    0    0  502    0  0.00000000000E+00  0.00000000000E+00  0.32930347466E+02  0.32930347466E+02  0.00000000000E+00 0.  1.
          1   -1    0    0  501    0 -0.00000000000E+00 -0.00000000000E+00 -0.88302545384E+03  0.88302545384E+03  0.00000000000E+00 0.  1.
          2    1    1    2  501    0 -0.79501267739E+02 -0.67185522876E+02 -0.11138153389E+03  0.15244734221E+03  0.00000000000E+00 0.  1.
          1    1    1    2  502    0  0.26576396039E+02 -0.19226823590E+02 -0.15835779842E+03  0.16171941099E+03  0.00000000000E+00 0.  1.
         22    1    1    2    0    0  0.70809197905E+02  0.81082528785E+02 -0.57072558413E+03  0.58078912813E+03  0.00000000000E+00 0.  1.
         22    1    1    2    0    0 -0.17884326205E+02  0.53298176797E+01 -0.96301899383E+01  0.20999919965E+02  0.00000000000E+00 0. -1.
</event>
<event>
 6    1  0.3624778E-005  0.3016554E+03  0.7818608E-02  0.1170756E+00
          2   -1    0    0  502    0  0.00000000000E+00  0.00000000000E+00  0.14711275973E+03  0.14711275973E+03  0.00000000000E+00 0. -1.
          1   -1    0    0  501    0 -0.00000000000E+00 -0.00000000000E+00 -0.17584617084E+04  0.17584617084E+04  0.00000000000E+00 0. -1.
          2    1    1    2  501    0  0.13895454455E+03  0.17679343113E+02 -0.12823481507E+03  0.18990811573E+03  0.00000000000E+00 0. -1.
          1    1    1    2  502    0 -0.75326485683E+02  0.25151520374E+02 -0.15518768952E+04  0.15539075186E+04  0.00000000000E+00 0. -1.
         22    1    1    2    0    0 -0.99205489394E+02 -0.46262535397E+02  0.42579248008E+02  0.11745187810E+03  0.00000000000E+00 0. -1.
         22    1    1    2    0    0  0.35577430528E+02  0.34316719091E+01  0.26183513647E+02  0.44306955684E+02  0.00000000000E+00 0. -1.
</event>
<event>
 6    1  0.3624778E-005  0.1658549E+03  0.7818608E-02  0.1220578E+00
          2   -1    0    0  502    0  0.00000000000E+00  0.00000000000E+00  0.34682980755E+02  0.34682980755E+02  0.00000000000E+00 0. -1.
          1   -1    0    0  501    0 -0.00000000000E+00 -0.00000000000E+00 -0.19887304398E+04  0.19887304398E+04  0.00000000000E+00 0. -1.
          2    1    1    2  501    0  0.83580547622E+02  0.15570147809E+03 -0.67575260947E+03  0.69847709155E+03  0.00000000000E+00 0. -1.
          1    1    1    2  502    0 -0.91855676222E+02 -0.11098859677E+03 -0.10466099899E+04  0.10564792496E+04  0.00000000000E+00 0. -1.
         22    1    1    2    0    0 -0.22204563688E+02 -0.68762119188E+02 -0.64613565966E+02  0.96933918680E+02  0.00000000000E+00 0.  1.
         22    1    1    2    0    0  0.30479692288E+02  0.24049237871E+02 -0.16707129379E+03  0.17152316081E+03  0.00000000000E+00 0.  1.
</event>
<event>
 6    1  0.3624778E-005  0.8542684E+02  0.7818608E-02  0.1342599E+00
          2   -1    0    0  502    0  0.00000000000E+00  0.00000000000E+00  0.52046715476E+03  0.52046715476E+03  0.00000000000E+00 0. -1.
          1   -1    0    0  501    0 -0.00000000000E+00 -0.00000000000E+00 -0.65035784303E+03  0.65035784303E+03  0.00000000000E+00 0. -1.
          2    1    1    2  501    0  0.30923673285E+01 -0.35916964028E+02  0.46996791468E+02  0.59230815028E+02  0.00000000000E+00 0. -1.
          1    1    1    2  502    0 -0.56807030362E+02  0.30693576368E+02 -0.63253026560E+03  0.63581732536E+03  0.00000000000E+00 0. -1.
         22    1    1    2    0    0 -0.11314570959E+02  0.50629464910E+02  0.25093288977E+03  0.25623949227E+03  0.00000000000E+00 0. -1.
         22    1    1    2    0    0  0.65029233992E+02 -0.45406077251E+02  0.20470989610E+03  0.21953736512E+03  0.00000000000E+00 0. -1.
</event>
<event>
 6    1  0.3624778E-005  0.7977016E+02  0.7818608E-02  0.1374281E+00
          2   -1    0    0  502    0  0.00000000000E+00  0.00000000000E+00  0.91912180831E+02  0.91912180831E+02  0.00000000000E+00 0.  1.
          1   -1    0    0  501    0 -0.00000000000E+00 -0.00000000000E+00 -0.17210993529E+03  0.17210993529E+03  0.00000000000E+00 0.  1.
          2    1    1    2  501    0  0.10017707175E+02  0.34298634385E+02 -0.32007999861E+02  0.47971479369E+02  0.00000000000E+00 0.  1.
          1    1    1    2  502    0  0.63347099176E+00 -0.41786993900E+02 -0.78879405290E+02  0.89266537536E+02  0.00000000000E+00 0.  1.
         22    1    1    2    0    0  0.27748509250E+02  0.25018436610E+02  0.63258768658E+02  0.73468181876E+02  0.00000000000E+00 0.  1.
         22    1    1    2    0    0 -0.38399687417E+02 -0.17530077096E+02 -0.32569117961E+02  0.53315917337E+02  0.00000000000E+00 0.  1.
</event>
<event>
 6    1  0.3624778E-005  0.1380739E+03  0.7818608E-02  0.1252161E+00
          2   -1    0    0  502    0  0.00000000000E+00  0.00000000000E+00  0.11694536126E+03  0.11694536126E+03  0.00000000000E+00 0.  1.
          1   -1    0    0  501    0 -0.00000000000E+00 -0.00000000000E+00 -0.15531002044E+04  0.15531002044E+04  0.00000000000E+00 0. -1.
          2    1    1    2  501    0  0.21195680707E+02 -0.86008982561E+00  0.47788323158E+01  0.21744743582E+02  0.00000000000E+00 0.  1.
          1    1    1    2  502    0 -0.13706030010E+03  0.23320187066E+02 -0.14705180119E+04  0.14770756854E+04  0.00000000000E+00 0. -1.
         22    1    1    2    0    0  0.69552396480E+02  0.24114942620E+02 -0.32843743129E+02  0.80608794659E+02  0.00000000000E+00 0. -1.
         22    1    1    2    0    0  0.46312222917E+02 -0.46575039860E+02  0.62428079569E+02  0.90616342059E+02  0.00000000000E+00 0.  1.
</event>
<event>
 6    1  0.3624778E-005  0.2307857E+03  0.7818608E-02  0.1191422E+00
          2   -1    0    0  502    0  0.00000000000E+00  0.00000000000E+00  0.74601135462E+03  0.74601135462E+03  0.00000000000E+00 0. -1.
          1   -1    0    0  501    0 -0.00000000000E+00 -0.00000000000E+00 -0.14879011034E+03  0.14879011034E+03  0.00000000000E+00 0.  1.
          2    1    1    2  501    0 -0.85190610861E+02 -0.34135801420E+02  0.75041068088E+02  0.11854895620E+03  0.00000000000E+00 0. -1.
          1    1    1    2  502    0  0.16070510895E+03  0.14967135934E+03 -0.25879901141E+01  0.21962318990E+03  0.00000000000E+00 0.  1.
         22    1    1    2    0    0  0.20616533146E+02 -0.45772034931E+02  0.28116671733E+03  0.28561310117E+03  0.00000000000E+00 0. -1.
         22    1    1    2    0    0 -0.96131031231E+02 -0.69763522991E+02  0.24360144898E+03  0.27101621769E+03  0.00000000000E+00 0. -1.
</event>
<event>
 6    1  0.3624778E-005  0.7720425E+02  0.7818608E-02  0.1338564E+00
          2   -1    0    0  502    0  0.00000000000E+00  0.00000000000E+00  0.32796769425E+03  0.32796769425E+03  0.00000000000E+00 0.  1.
          1   -1    0    0  501    0 -0.00000000000E+00 -0.00000000000E+00 -0.98109213583E+02  0.98109213583E+02  0.00000000000E+00 0.  1.
          2    1    1    2  501    0 -0.31842653981E+02 -0.43038042085E+02  0.15958311668E+03  0.16832408861E+03  0.00000000000E+00 0.  1.
          1    1    1    2  502    0  0.71367091899E+01  0.30869093604E+02 -0.65120405539E+02  0.72418925535E+02  0.00000000000E+00 0.  1.
         22    1    1    2    0    0 -0.17731160503E+02 -0.21077926095E+02  0.12798711834E+03  0.13091743765E+03  0.00000000000E+00 0.  1.
         22    1    1    2    0    0  0.42437105294E+02  0.33246874575E+02  0.74086511933E+01  0.54416456034E+02  0.00000000000E+00 0.  1.
</event>
<event>
 6    1  0.3624778E-005  0.1498509E+03  0.7818608E-02  0.1229481E+00
          2   -1    0    0  502    0  0.00000000000E+00  0.00000000000E+00  0.39493151406E+03  0.39493151406E+03  0.00000000000E+00 0. -1.
          1   -1    0    0  501    0 -0.00000000000E+00 -0.00000000000E+00 -0.65928346849E+03  0.65928346849E+03  0.00000000000E+00 0. -1.
          2    1    1    2  501    0 -0.30892397694E+02  0.26405897582E+02  0.39752871659E+02  0.56849823813E+02  0.00000000000E+00 0. -1.
          1    1    1    2  502    0 -0.16784565354E+02 -0.14529787585E+03 -0.61904759872E+03  0.63609207183E+03  0.00000000000E+00 0. -1.
         22    1    1    2    0    0 -0.27888602815E+02  0.88648075514E+02  0.13635513735E+03  0.16501205695E+03  0.00000000000E+00 0.  1.
         22    1    1    2    0    0  0.75565565863E+02  0.30243902753E+02  0.17858763529E+03  0.19626102995E+03  0.00000000000E+00 0. -1.
</event>
<event>
 6    1  0.3624778E-005  0.9673110E+02  0.7818608E-02  0.1292340E+00
          2   -1    0    0  502    0  0.00000000000E+00  0.00000000000E+00  0.68031076802E+03  0.68031076802E+03  0.00000000000E+00 0.  1.
          1   -1    0    0  501    0 -0.00000000000E+00 -0.00000000000E+00 -0.34285469069E+03  0.34285469069E+03  0.00000000000E+00 0.  1.
          2    1    1    2  501    0  0.57180818561E+02 -0.32840955058E+02  0.16598017688E+03  0.17859897384E+03  0.00000000000E+00 0.  1.
          1    1    1    2  502    0 -0.25221475487E+02  0.83674471341E+02 -0.32148419450E+03  0.33315105777E+03  0.00000000000E+00 0.  1.
         22    1    1    2    0    0  0.44625222600E+02 -0.71036286000E+01  0.21890368412E+03  0.22351889171E+03  0.00000000000E+00 0.  1.
         22    1    1    2    0    0 -0.76584565673E+02 -0.43729887683E+02  0.27405641083E+03  0.28789653539E+03  0.00000000000E+00 0. -1.
</event>
<event>
 6    1  0.3624778E-005  0.1292397E+03  0.7818608E-02  0.1295502E+00
          2   -1    0    0  502    0  0.00000000000E+00  0.00000000000E+00  0.86417715925E+02  0.86417715925E+02  0.00000000000E+00 0. -1.
          1   -1    0    0  501    0 -0.00000000000E+00 -0.00000000000E+00 -0.17795235813E+03  0.17795235813E+03  0.00000000000E+00 0. -1.
          2    1    1    2  501    0 -0.23725608614E+02 -0.80960051597E+01 -0.58620479977E+02  0.63755866211E+02  0.00000000000E+00 0. -1.
          1    1    1    2  502    0  0.62925358441E+02  0.10259234826E+00 -0.28465461870E+02  0.69064417609E+02  0.00000000000E+00 0. -1.
         22    1    1    2    0    0  0.18246069509E+02 -0.29644936886E+02 -0.40972971348E+02  0.53763609595E+02  0.00000000000E+00 0. -1.
         22    1    1    2    0    0 -0.57445819336E+02  0.37638349698E+02  0.36524270990E+02  0.77786180640E+02  0.00000000000E+00 0.  1.
</event>
<event>
 6    1  0.3624778E-005  0.3260843E+03  0.7818608E-02  0.1117359E+00
          2   -1    0    0  502    0  0.00000000000E+00  0.00000000000E+00  0.84120182385E+02  0.84120182385E+02  0.00000000000E+00 0. -1.
          1   -1    0    0  501    0 -0.00000000000E+00 -0.00000000000E+00 -0.24919046896E+04  0.24919046896E+04  0.00000000000E+00 0. -1.
          2    1    1    2  501    0 -0.12822726059E+03  0.18440627136E+03 -0.14142415452E+04  0.14319661489E+04  0.00000000000E+00 0. -1.
          1    1    1    2  502    0  0.18429242912E+03 -0.27301518501E+03 -0.89663690182E+03  0.95522705383E+03  0.00000000000E+00 0. -1.
         22    1    1    2    0    0 -0.13206329150E+02  0.10084677149E+03 -0.25830504051E+02  0.10493661606E+03  0.00000000000E+00 0.  1.
         22    1    1    2    0    0 -0.42858839378E+02 -0.12237857840E+02 -0.71075556133E+02  0.83895053233E+02  0.00000000000E+00 0. -1.
</event>
<event>
 6    1  0.3624778E-005  0.8307839E+02  0.7818608E-02  0.1336886E+00
          2   -1    0    0  502    0  0.00000000000E+00  0.00000000000E+00  0.51663753113E+03  0.51663753113E+03  0.00000000000E+00 0. -1.
          1   -1    0    0  501    0 -0.00000000000E+00 -0.00000000000E+00 -0.15062501539E+02  0.15062501539E+02  0.00000000000E+00 0. -1.
          2    1    1    2  501    0 -0.18546725778E+02 -0.82271762816E+01  0.85103337517E+02  0.87488545097E+02  0.00000000000E+00 0. -1.
          1    1    1    2  502    0  0.17022569051E+02  0.13342625858E+02  0.98716466913E+02  0.10105807420E+03  0.00000000000E+00 0. -1.
         22    1    1    2    0    0  0.14667422961E+02 -0.62827831394E+02  0.11417020887E+03  0.13113850040E+03  0.00000000000E+00 0. -1.
         22    1    1    2    0    0 -0.13143266233E+02  0.57712381817E+02  0.20358501630E+03  0.21201491297E+03  0.00000000000E+00 0. -1.
</event>
<event>
 6    1  0.3624778E-005  0.5091208E+02  0.7818608E-02  0.1461683E+00
          2   -1    0    0  502    0  0.00000000000E+00  0.00000000000E+00  0.11081977569E+03  0.11081977569E+03  0.00000000000E+00 0. -1.
          1   -1    0    0  501    0 -0.00000000000E+00 -0.00000000000E+00 -0.25309338696E+03  0.25309338696E+03  0.00000000000E+00 0. -1.
          2    1    1    2  501    0 -0.23756470796E+01  0.42913649561E+02 -0.43124574205E+02  0.60884759325E+02  0.00000000000E+00 0. -1.
          1    1    1    2  502    0 -0.91468642492E+01 -0.25553184665E+02 -0.16192798399E+03  0.16418679110E+03  0.00000000000E+00 0. -1.
         22    1    1    2    0    0 -0.17665899596E+02  0.52681464322E+01 -0.32106140694E+02  0.37022177753E+02  0.00000000000E+00 0.  1.
         22    1    1    2    0    0  0.29188410924E+02 -0.22628611328E+02  0.94885087624E+02  0.10181943447E+03  0.00000000000E+00 0. -1.
</event>
<event>
 6    1  0.3624778E-005  0.1258843E+03  0.7818608E-02  0.1319522E+00
          2   -1    0    0  502    0  0.00000000000E+00  0.00000000000E+00  0.65580324532E+02  0.65580324532E+02  0.00000000000E+00 0.  1.
          1   -1    0    0  501    0 -0.00000000000E+00 -0.00000000000E+00 -0.38698466107E+03  0.38698466107E+03  0.00000000000E+00 0. -1.
          2    1    1    2  501    0 -0.41455777215E+02  0.32421706700E+02 -0.10476806830E+03  0.11724374894E+03  0.00000000000E+00 0.  1.
          1    1    1    2  502    0 -0.23666087714E+02  0.47434424762E+01 -0.18326662673E+03  0.18484923702E+03  0.00000000000E+00 0. -1.
         22    1    1    2    0    0  0.19789611491E+02  0.14583270859E+02  0.41850257421E+02  0.48536013001E+02  0.00000000000E+00 0.  1.
         22    1    1    2    0    0  0.45332253438E+02 -0.51748420035E+02 -0.75219898930E+02  0.10193598664E+03  0.00000000000E+00 0.  1.
</event>
<event>
 6    1  0.3624778E-005  0.8267014E+02  0.7818608E-02  0.1323360E+00
          2   -1    0    0  502    0  0.00000000000E+00  0.00000000000E+00  0.47433873227E+03  0.47433873227E+03  0.00000000000E+00 0. -1.
          1   -1    0    0  501    0 -0.00000000000E+00 -0.00000000000E+00 -0.37888787031E+02  0.37888787031E+02  0.00000000000E+00 0. -1.
          2    1    1    2  501    0  0.17072802458E+02 -0.48553688458E+02  0.19567530397E+03  0.20233083262E+03  0.00000000000E+00 0. -1.
          1    1    1    2  502    0  0.18035773563E+02  0.21707157201E+02 -0.66904032708E+01  0.29004332395E+02  0.00000000000E+00 0. -1.
         22    1    1    2    0    0 -0.55993306841E+00 -0.34173839131E+02  0.18126201450E+03  0.18445618099E+03  0.00000000000E+00 0. -1.
         22    1    1    2    0    0 -0.34548642953E+02  0.61020370388E+02  0.66203030044E+02  0.96436173292E+02  0.00000000000E+00 0.  1.
</event>
<event>
 6    1  0.3624778E-005  0.9767850E+02  0.7818608E-02  0.1367620E+00
          2   -1    0    0  502    0  0.00000000000E+00  0.00000000000E+00  0.63124768425E+03  0.63124768425E+03  0.00000000000E+00 0.  1.
          1   -1    0    0  501    0 -0.00000000000E+00 -0.00000000000E+00 -0.10815521035E+03  0.10815521035E+03  0.00000000000E+00 0. -1.
          2    1    1    2  501    0 -0.33987170155E+01  0.25155640179E+02  0.11762546928E+03  0.12033332262E+03  0.00000000000E+00 0.  1.
          1    1    1    2  502    0 -0.53536384673E+02 -0.68619718880E+02 -0.77334131283E+02  0.11642756617E+03  0.00000000000E+00 0. -1.
         22    1    1    2    0    0  0.64661027134E+02  0.64828227563E+02  0.46458680632E+03  0.47352365108E+03  0.00000000000E+00 0.  1.
         22    1    1    2    0    0 -0.77259254455E+01 -0.21364148862E+02  0.18214329577E+02  0.29118354735E+02  0.00000000000E+00 0. -1.
</event>
<event>
 6    1  0.3624778E-005  0.8096136E+02  0.7818608E-02  0.1390393E+00
          2   -1    0    0  502    0  0.00000000000E+00  0.00000000000E+00  0.55306583567E+02  0.55306583567E+02  0.00000000000E+00 0. -1.
          1   -1    0    0  501    0 -0.00000000000E+00 -0.00000000000E+00 -0.26458067977E+03  0.26458067977E+03  0.00000000000E+00 0.  1.
          2    1    1    2  501    0 -0.26958894332E+02  0.94561028666E+01 -0.24917209949E+02  0.37908669413E+02  0.00000000000E+00 0. -1.
          1    1    1    2  502    0  0.13763293097E+02 -0.46323771819E+02 -0.13565481753E+03  0.14400538042E+03  0.00000000000E+00 0.  1.
         22    1    1    2    0    0 -0.76854927947E+01 -0.26406965186E+02  0.26017986495E+02  0.37859348001E+02  0.00000000000E+00 0.  1.
         22    1    1    2    0    0  0.20881094029E+02  0.63274634138E+02 -0.74720055221E+02  0.10011386550E+03  0.00000000000E+00 0. -1.
</event>
<event>
 6    1  0.3624778E-005  0.8237184E+02  0.7818608E-02  0.1327259E+00
          2   -1    0    0  502    0  0.00000000000E+00  0.00000000000E+00  0.11433337028E+03  0.11433337028E+03  0.00000000000E+00 0.  1.
          1   -1    0    0  501    0 -0.00000000000E+00 -0.00000000000E+00 -0.14978645196E+04  0.14978645196E+04  0.00000000000E+00 0. -1.
          2    1    1    2  501    0 -0.51044956623E+01 -0.35226691417E+02  0.40104327668E+01  0.35819816235E+02  0.00000000000E+00 0.  1.
          1    1    1    2  502    0  0.21293283022E+00  0.40726559144E+02 -0.14389298037E+04  0.14395060534E+04  0.00000000000E+00 0. -1.
         22    1    1    2    0    0 -0.11878511806E+02  0.56662301021E+02  0.62271688621E+01  0.58227940301E+02  0.00000000000E+00 0.  1.
         22    1    1    2    0    0  0.16770074638E+02 -0.62162168747E+02  0.45161052703E+02  0.78644079930E+02  0.00000000000E+00 0.  1.
</event>
<event>
 6    1  0.3624778E-005  0.2656046E+03  0.7818608E-02  0.1221092E+00
          2   -1    0    0  502    0  0.00000000000E+00  0.00000000000E+00  0.56812115380E+02  0.56812115380E+02  0.00000000000E+00 0.  1.
          1   -1    0    0  501    0 -0.00000000000E+00 -0.00000000000E+00 -0.20894464876E+04  0.20894464876E+04  0.00000000000E+00 0.  1.
          2    1    1    2  501    0 -0.13319219281E+03  0.89563711488E+02 -0.32095354900E+03  0.35884954961E+03  0.00000000000E+00 0.  1.
          1    1    1    2  502    0  0.22880160194E+03 -0.12185512122E+03 -0.14988918737E+04  0.15211428903E+04  0.00000000000E+00 0.  1.
         22    1    1    2    0    0  0.99137059041E+01  0.14306056273E+02  0.92940198211E+01  0.19731285190E+02  0.00000000000E+00 0.  1.
         22    1    1    2    0    0 -0.10552311503E+03  0.17985353462E+02 -0.22208296931E+03  0.24653487786E+03  0.00000000000E+00 0. -1.
</event>
<event>
 6    1  0.3624778E-005  0.2221716E+03  0.7818608E-02  0.1198299E+00
          2   -1    0    0  502    0  0.00000000000E+00  0.00000000000E+00  0.54210857135E+03  0.54210857135E+03  0.00000000000E+00 0. -1.
          1   -1    0    0  501    0 -0.00000000000E+00 -0.00000000000E+00 -0.30093184128E+04  0.30093184128E+04  0.00000000000E+00 0.  1.
          2    1    1    2  501    0 -0.44402549212E+02 -0.17920331724E+03  0.12857724169E+03  0.22498338242E+03  0.00000000000E+00 0. -1.
          1    1    1    2  502    0  0.30603759017E+02  0.21135646732E+03 -0.29461150801E+04  0.29538453263E+04  0.00000000000E+00 0.  1.
         22    1    1    2    0    0 -0.34050859257E+02 -0.39417026606E+02  0.65493757504E+02  0.83681510949E+02  0.00000000000E+00 0. -1.
         22    1    1    2    0    0  0.47849649452E+02  0.72638765237E+01  0.28483423946E+03  0.28891676452E+03  0.00000000000E+00 0. -1.
</event>
<event>
 6    1  0.3624778E-005  0.1230602E+03  0.7818608E-02  0.1280268E+00
          2   -1    0    0  502    0  0.00000000000E+00  0.00000000000E+00  0.97064745893E+02  0.97064745893E+02  0.00000000000E+00 0. -1.
          1   -1    0    0  501    0 -0.00000000000E+00 -0.00000000000E+00 -0.69891152369E+03  0.69891152369E+03  0.00000000000E+00 0. -1.
          2    1    1    2  501    0  0.71998368997E+02  0.61520761639E+02 -0.44620193217E+03  0.45614113333E+03  0.00000000000E+00 0. -1.
          1    1    1    2  502    0 -0.87891261880E+02 -0.34748658017E+02 -0.18465354556E+03  0.20743498990E+03  0.00000000000E+00 0. -1.
         22    1    1    2    0    0 -0.16167989921E+02  0.16291229506E+02 -0.39304202566E+02  0.45515144691E+02  0.00000000000E+00 0. -1.
         22    1    1    2    0    0  0.32060882804E+02 -0.43063333129E+02  0.68312902490E+02  0.86885001657E+02  0.00000000000E+00 0. -1.
</event>
<event>
 6    1  0.3624778E-005  0.1974880E+03  0.7818608E-02  0.1233295E+00
          2   -1    0    0  502    0  0.00000000000E+00  0.00000000000E+00  0.24709266758E+02  0.24709266758E+02  0.00000000000E+00 0. -1.
          1   -1    0    0  501    0 -0.00000000000E+00 -0.00000000000E+00 -0.21372711967E+04  0.21372711967E+04  0.00000000000E+00 0. -1.
          2    1    1    2  501    0 -0.80228756484E+02  0.18621843984E+02 -0.49548560246E+03  0.50228419115E+03  0.00000000000E+00 0. -1.
          1    1    1    2  502    0  0.85162507115E+02 -0.11427600832E+03 -0.12637044612E+04  0.12717156223E+04  0.00000000000E+00 0. -1.
         22    1    1    2    0    0  0.27934681328E+02  0.96083180809E+02 -0.33644069235E+03  0.35100521866E+03  0.00000000000E+00 0. -1.
         22    1    1    2    0    0 -0.32868431959E+02 -0.42901647669E+00 -0.16931173949E+02  0.36975431382E+02  0.00000000000E+00 0.  1.
</event>
<event>
 6    1  0.3624778E-005  0.8973561E+02  0.7818608E-02  0.1314420E+00
          2   -1    0    0  502    0  0.00000000000E+00  0.00000000000E+00  0.25368096886E+03  0.25368096886E+03  0.00000000000E+00 0.  1.
          1   -1    0    0  501    0 -0.00000000000E+00 -0.00000000000E+00 -0.57617929881E+02  0.57617929881E+02  0.00000000000E+00 0. -1.
          2    1    1    2  501    0 -0.42580350359E+02  0.40079683384E+02  0.39330245088E+02  0.70472231663E+02  0.00000000000E+00 0.  1.
          1    1    1    2  502    0  0.28461745333E+02 -0.33187370821E+02  0.73300969540E+01  0.44330608509E+02  0.00000000000E+00 0. -1.
         22    1    1    2    0    0  0.56710449362E+01  0.57388460452E+02  0.43147294485E+02  0.72022810034E+02  0.00000000000E+00 0.  1.
         22    1    1    2    0    0  0.84475600892E+01 -0.64280773016E+02  0.10625540245E+03  0.12447324854E+03  0.00000000000E+00 0. -1.
</event>
<event>
 6    1  0.3624778E-005  0.2247007E+03  0.7818608E-02  0.1202301E+00
          2   -1    0    0  502    0  0.00000000000E+00  0.00000000000E+00  0.12936804939E+03  0.12936804939E+03  0.00000000000E+00 0. -1.
          1   -1    0    0  501    0 -0.00000000000E+00 -0.00000000000E+00 -0.15514617519E+04  0.15514617519E+04  0.00000000000E+00 0. -1.
          2    1    1    2  501    0 -0.48654148591E+02 -0.44917040320E+02 -0.15440476758E+03  0.16800475868E+03  0.00000000000E+00 0. -1.
          1    1    1    2  502    0  0.65574119757E+02  0.18123486446E+03 -0.13106921118E+04  0.13247867199E+04  0.00000000000E+00 0. -1.
         22    1    1    2    0    0 -0.32216659456E+02 -0.96249089462E+02 -0.27819544025E+02  0.10524128182E+03  0.00000000000E+00 0. -1.
         22    1    1    2    0    0  0.15296688290E+02 -0.40068734677E+02  0.70822720948E+02  0.82797040851E+02  0.00000000000E+00 0. -1.
</event>
<event>
 6    1  0.3624778E-005  0.1410097E+03  0.7818608E-02  0.1261896E+00
          2   -1    0    0  502    0  0.00000000000E+00  0.00000000000E+00  0.39319641441E+03  0.39319641441E+03  0.00000000000E+00 0.  1.
          1   -1    0    0  501    0 -0.00000000000E+00 -0.00000000000E+00 -0.39859881081E+03  0.39859881081E+03  0.00000000000E+00 0. -1.
          2    1    1    2  501    0 -0.71915854213E+02 -0.61115647797E+02  0.15002306777E+03  0.17723976235E+03  0.00000000000E+00 0.  1.
          1    1    1    2  502    0  0.61277597652E+02  0.11332717950E+03 -0.35359927596E+03  0.37633820102E+03  0.00000000000E+00 0. -1.
         22    1    1    2    0    0  0.44723598199E+02 -0.24254648511E+02  0.19993835155E+02  0.54664811848E+02  0.00000000000E+00 0.  1.
         22    1    1    2    0    0 -0.34085341638E+02 -0.27956883196E+02  0.17817997663E+03  0.18355245001E+03  0.00000000000E+00 0.  1.
</event>
<event>
 6    1  0.3624778E-005  0.1625843E+03  0.7818608E-02  0.1319190E+00
          2   -1    0    0  502    0  0.00000000000E+00  0.00000000000E+00  0.49396550904E+02  0.49396550904E+02  0.00000000000E+00 0. -1.
          1   -1    0    0  501    0 -0.00000000000E+00 -0.00000000000E+00 -0.10265962284E+04  0.10265962284E+04  0.00000000000E+00 0. -1.
          2    1    1    2  501    0 -0.18930009589E+02 -0.15294508647E+02 -0.12068711783E+03  0.12311639886E+03  0.00000000000E+00 0. -1.
          1    1    1    2  502    0 -0.92043239996E+02  0.27428092519E+01 -0.74601935577E+03  0.75168102292E+03  0.00000000000E+00 0. -1.
         22    1    1    2    0    0 -0.11324377168E+02 -0.82307899233E+00  0.19280119009E+02  0.22375029973E+02  0.00000000000E+00 0. -1.
         22    1    1    2    0    0  0.12229762675E+03  0.13374778388E+02 -0.12977332287E+03  0.17882032753E+03  0.00000000000E+00 0. -1.
</event>
<event>
 6    1  0.3624778E-005  0.1084023E+03  0.7818608E-02  0.1264502E+00
          2   -1    0    0  502    0  0.00000000000E+00  0.00000000000E+00  0.87673462142E+03  0.87673462142E+03  0.00000000000E+00 0. -1.
          1   -1    0    0  501    0 -0.00000000000E+00 -0.00000000000E+00 -0.87308623037E+02  0.87308623037E+02  0.00000000000E+00 0.  1.
          2    1    1    2  501    0  0.27361541146E+02 -0.65610805651E+02  0.39569582860E+03  0.40203062138E+03  0.00000000000E+00 0. -1.
          1    1    1    2  502    0 -0.55839128077E+01 -0.31245605660E+02 -0.67820775141E+02  0.74880741823E+02  0.00000000000E+00 0.  1.
         22    1    1    2    0    0  0.18327771287E+01 -0.27641611537E+02  0.11020040826E+03  0.11362899164E+03  0.00000000000E+00 0.  1.
         22    1    1    2    0    0 -0.23610405467E+02  0.12449802285E+03  0.35135053667E+03  0.37350288962E+03  0.00000000000E+00 0.  1.
</event>
<event>
 6    1  0.3624778E-005  0.2817260E+03  0.7818608E-02  0.1134571E+00
          2   -1    0    0  502    0  0.00000000000E+00  0.00000000000E+00  0.98208833058E+03  0.98208833058E+03  0.00000000000E+00 0.  1.
          1   -1    0    0  501    0 -0.00000000000E+00 -0.00000000000E+00 -0.12286191241E+03  0.12286191241E+03  0.00000000000E+00 0. -1.
          2    1    1    2  501    0 -0.12503804642E+03  0.54901962817E+02  0.34525565778E+03  0.37128184416E+03  0.00000000000E+00 0.  1.
          1    1    1    2  502    0  0.15436394793E+03 -0.23524759050E+03  0.18018043072E+03  0.33411771110E+03  0.00000000000E+00 0. -1.
         22    1    1    2    0    0  0.43877438979E+02  0.93211836056E+02  0.19043303344E+03  0.21651424031E+03  0.00000000000E+00 0.  1.
         22    1    1    2    0    0 -0.73203340490E+02  0.87133791627E+02  0.14335729623E+03  0.18303644742E+03  0.00000000000E+00 0. -1.
</event>
<event>
 6    1  0.3624778E-005  0.5387659E+02  0.7818608E-02  0.1480163E+00
          2   -1    0    0  502    0  0.00000000000E+00  0.00000000000E+00  0.88654241408E+02  0.88654241408E+02  0.00000000000E+00 0.  1.
          1   -1    0    0  501    0 -0.00000000000E+00 -0.00000000000E+00 -0.52829139719E+03  0.52829139719E+03  0.00000000000E+00 0. -1.
          2    1    1    2  501    0 -0.57235000688E+00  0.29053174885E+02 -0.47956476018E+02  0.56073506646E+02  0.00000000000E+00 0.  1.
          1    1    1    2  502    0 -0.14048000848E+02 -0.35701682335E+02 -0.42710157140E+03  0.42882130164E+03  0.00000000000E+00 0. -1.
         22    1    1    2    0    0 -0.18986560337E+02 -0.14913217571E+02  0.73201868311E+02  0.77080523195E+02  0.00000000000E+00 0.  1.
         22    1    1    2    0    0  0.33606911192E+02  0.21561725022E+02 -0.37780976672E+02  0.54970307113E+02  0.00000000000E+00 0. -1.
</event>
<event>
 6    1  0.3624778E-005  0.3475779E+03  0.7818608E-02  0.1146886E+00
          2   -1    0    0  502    0  0.00000000000E+00  0.00000000000E+00  0.15227193451E+03  0.15227193451E+03  0.00000000000E+00 0.  1.
          1   -1    0    0  501    0 -0.00000000000E+00 -0.00000000000E+00 -0.17892085392E+04  0.17892085392E+04  0.00000000000E+00 0.  1.
          2    1    1    2  501    0 -0.13591252483E+03 -0.17076668436E+03 -0.13364786690E+03  0.25592035328E+03  0.00000000000E+00 0.  1.
          1    1    1    2  502    0  0.25696338937E+03  0.84206325207E+02 -0.14650798185E+04  0.14898254136E+04  0.00000000000E+00 0.  1.
         22    1    1    2    0    0 -0.37730284889E+02  0.15465306717E+02  0.43093244324E+02  0.59327715412E+02  0.00000000000E+00 0. -1.
         22    1    1    2    0    0 -0.83320579647E+02  0.71095052439E+02 -0.81302163609E+02  0.13640699132E+03  0.00000000000E+00 0.  1.
</event>
<event>
 6    1  0.3624778E-005  0.3098145E+03  0.7818608E-02  0.1173914E+00
          2   -1    0    0  502    0  0.00000000000E+00  0.00000000000E+00  0.28496832213E+03  0.28496832213E+03  0.00000000000E+00 0.  1.
          1   -1    0    0  501    0 -0.00000000000E+00 -0.00000000000E+00 -0.24940931535E+03  0.24940931535E+03  0.00000000000E+00 0.  1.
          2    1    1    2  501    0  0.16205552898E+03  0.47236346419E+02 -0.17963433414E+02  0.16975261953E+03  0.00000000000E+00 0.  1.
          1    1    1    2  502    0 -0.49999555005E+02 -0.38890738152E+02 -0.11102259425E+03  0.12782199125E+03  0.00000000000E+00 0.  1.
         22    1    1    2    0    0 -0.11470020805E+03 -0.38933987782E+02  0.75783546795E+02  0.14288155618E+03  0.00000000000E+00 0.  1.
         22    1    1    2    0    0  0.26442340779E+01  0.30588379514E+02  0.88761487652E+02  0.93921470524E+02  0.00000000000E+00 0. -1.
</event>
<event>
 6    1  0.3624778E-005  0.1716820E+03  0.7818608E-02  0.1277901E+00
          2   -1    0    0  502    0  0.00000000000E+00  0.00000000000E+00  0.81991850875E+02  0.81991850875E+02  0.00000000000E+00 0. -1.
          1   -1    0    0  501    0 -0.00000000000E+00 -0.00000000000E+00 -0.13325107799E+04  0.13325107799E+04  0.00000000000E+00 0.  1.
          2    1    1    2  501    0 -0.63488476626E+02 -0.47260963371E+02 -0.75570134560E+02  0.10943139659E+03  0.00000000000E+00 0. -1.
          1    1    1    2  502    0  0.71298890505E+02  0.13271941706E+03 -0.11383128439E+04  0.11482395682E+04  0.00000000000E+00 0.  1.
         22    1    1    2    0    0  0.26909017327E+01  0.20508754199E+02  0.26050834425E+02  0.33264033507E+02  0.00000000000E+00 0.  1.
         22    1    1    2    0    0 -0.10501315611E+02 -0.10596720789E+03 -0.62686784993E+02  0.12356763245E+03  0.00000000000E+00 0. -1.
</event>
<event>
 6    1  0.3624778E-005  0.1068253E+03  0.7818608E-02  0.1295057E+00
          2   -1    0    0  502    0  0.00000000000E+00  0.00000000000E+00  0.52782772021E+02  0.52782772021E+02  0.00000000000E+00 0.  1.
          1   -1    0    0  501    0 -0.00000000000E+00 -0.00000000000E+00 -0.49237621836E+03  0.49237621836E+03  0.00000000000E+00 0.  1.
          2    1    1    2  501    0  0.67333476875E+02  0.17006504580E+02 -0.16858258818E+03  0.18232692435E+03  0.00000000000E+00 0.  1.
          1    1    1    2  502    0 -0.25648385432E+02  0.14784082243E+02 -0.21740354774E+03  0.21940991621E+03  0.00000000000E+00 0.  1.
         22    1    1    2    0    0 -0.17778147309E+02 -0.60142316344E+02  0.15847596566E+02  0.64686219969E+02  0.00000000000E+00 0.  1.
         22    1    1    2    0    0 -0.23906944134E+02  0.28351729521E+02 -0.69454906987E+02  0.78735929849E+02  0.00000000000E+00 0.  1.
</event>
<event>
 6    1  0.3624778E-005  0.1796834E+03  0.7818608E-02  0.1216029E+00
          2   -1    0    0  502    0  0.00000000000E+00  0.00000000000E+00  0.20035408062E+04  0.20035408062E+04  0.00000000000E+00 0. -1.
          1   -1    0    0  501    0 -0.00000000000E+00 -0.00000000000E+00 -0.40318871989E+02  0.40318871989E+02  0.00000000000E+00 0. -1.
          2    1    1    2  501    0 -0.77751501994E+02 -0.10457612539E+03  0.12067390934E+03  0.17760533343E+03  0.00000000000E+00 0. -1.
          1    1    1    2  502    0  0.66998678557E+02  0.10028060356E+03  0.13930678100E+04  0.13982785651E+04  0.00000000000E+00 0. -1.
         22    1    1    2    0    0  0.41134320908E+02  0.47106319969E+02  0.34950620690E+03  0.35505721567E+03  0.00000000000E+00 0. -1.
         22    1    1    2    0    0 -0.30381497470E+02 -0.42810798132E+02  0.99974008017E+02  0.11291856404E+03  0.00000000000E+00 0.  1.
</event>
<event>
 6    1  0.3624778E-005  0.9003358E+02  0.7818608E-02  0.1373669E+00
          2   -1    0    0  502    0  0.00000000000E+00  0.00000000000E+00  0.60975030680E+02  0.60975030680E+02  0.00000000000E+00 0.  1.
          1   -1    0    0  501    0 -0.00000000000E+00 -0.00000000000E+00 -0.21646112591E+03  0.21646112591E+03  0.00000000000E+00 0.  1.
          2    1    1    2  501    0 -0.27627191691E+02 -0.67124836478E+01 -0.37336817032E+02  0.46929277254E+02  0.00000000000E+00 0.  1.
          1    1    1    2  502    0  0.15480914629E+02  0.60005210873E+02 -0.39964004784E+02  0.73738766792E+02  0.00000000000E+00 0.  1.
         22    1    1    2    0    0  0.19479303152E+02  0.17593981009E+02  0.21706297132E+02  0.34061044526E+02  0.00000000000E+00 0.  1.
         22    1    1    2    0    0 -0.73330260899E+01 -0.70886708233E+02 -0.99891570550E+02  0.12270706802E+03  0.00000000000E+00 0.  1.
</event>
<event>
 6    1  0.3624778E-005  0.9572907E+02  0.7818608E-02  0.1303575E+00
          2   -1    0    0  502    0  0.00000000000E+00  0.00000000000E+00  0.37916304031E+03  0.37916304031E+03  0.00000000000E+00 0.  1.
          1   -1    0    0  501    0 -0.00000000000E+00 -0.00000000000E+00 -0.17759913636E+03  0.17759913636E+03  0.00000000000E+00 0. -1.
          2    1    1    2  501    0 -0.32723403925E+02  0.16220043378E+02  0.27298944062E+02  0.45597624045E+02  0.00000000000E+00 0.  1.
          1    1    1    2  502    0  0.18196337606E+02 -0.37931703149E+02 -0.15398255395E+03  0.15962627517E+03  0.00000000000E+00 0. -1.
         22    1    1    2    0    0 -0.48972327926E+02  0.31678278202E+02  0.19606347419E+03  0.20455485358E+03  0.00000000000E+00 0.  1.
         22    1    1    2    0    0  0.63499394246E+02 -0.99666184319E+01  0.13218403965E+03  0.14698342387E+03  0.00000000000E+00 0.  1.
</event>
<event>
 6    1  0.3624778E-005  0.1107141E+03  0.7818608E-02  0.1263866E+00
          2   -1    0    0  502    0  0.00000000000E+00  0.00000000000E+00  0.28161259636E+03  0.28161259636E+03  0.00000000000E+00 0. -1.
          1   -1    0    0  501    0 -0.00000000000E+00 -0.00000000000E+00 -0.69567027326E+03  0.69567027326E+03  0.00000000000E+00 0. -1.
          2    1    1    2  501    0  0.18116995684E+03 -0.13598825058E+02  0.79737255570E+01  0.18185450669E+03  0.00000000000E+00 0. -1.
          1    1    1    2  502    0 -0.10232204783E+03 -0.29128221874E+01 -0.57442570664E+03  0.58347508811E+03  0.00000000000E+00 0. -1.
         22    1    1    2    0    0  0.21691250138E+02  0.54942315199E+01 -0.67649970629E+01  0.23376528780E+02  0.00000000000E+00 0.  1.
         22    1    1    2    0    0 -0.10053915915E+03  0.11017415725E+02  0.15915930125E+03  0.18857674603E+03  0.00000000000E+00 0. -1.
</event>
<event>
 6    1  0.3624778E-005  0.8940801E+02  0.7818608E-02  0.1319465E+00
          2   -1    0    0  502    0  0.00000000000E+00  0.00000000000E+00  0.17198861803E+04  0.17198861803E+04  0.00000000000E+00 0. -1.
          1   -1    0    0  501    0 -0.00000000000E+00 -0.00000000000E+00 -0.11869430449E+02  0.11869430449E+02  0.00000000000E+00 0. -1.
          2    1    1    2  501    0  0.13005226796E+02  0.25490698776E+02  0.52812002381E+02  0.60066789856E+02  0.00000000000E+00 0. -1.
          1    1    1    2  502    0 -0.13646092717E+02 -0.65636543147E+02  0.10268877089E+04  0.10290737283E+04  0.00000000000E+00 0. -1.
         22    1    1    2    0    0 -0.60514585214E+02  0.41917811816E+02  0.34645191043E+03  0.35418645402E+03  0.00000000000E+00 0.  1.
         22    1    1    2    0    0  0.61155451135E+02 -0.17719674458E+01  0.28186512815E+03  0.28842863856E+03  0.00000000000E+00 0. -1.
</event>
<event>
 6    1  0.3624778E-005  0.3079672E+03  0.7818608E-02  0.1081734E+00
          2   -1    0    0  502    0  0.00000000000E+00  0.00000000000E+00  0.14709541570E+04  0.14709541570E+04  0.00000000000E+00 0.  1.
          1   -1    0    0  501    0 -0.00000000000E+00 -0.00000000000E+00 -0.11895197727E+04  0.11895197727E+04  0.00000000000E+00 0. -1.
          2    1    1    2  501    0 -0.26783990712E+03  0.14049522520E+03  0.80204156334E+03  0.85717430752E+03  0.00000000000E+00 0.  1.
          1    1    1    2  502    0 -0.10793547841E+02 -0.71446467237E+02 -0.11228809174E+04  0.11252033829E+04  0.00000000000E+00 0. -1.
         22    1    1    2    0    0 -0.65482803150E+01  0.13231807663E+02  0.28716333804E+02  0.32289139602E+02  0.00000000000E+00 0. -1.
         22    1    1    2    0    0  0.28518173528E+03 -0.82280565622E+02  0.57355740455E+03  0.64580709963E+03  0.00000000000E+00 0.  1.
</event>
<event>
 6    1  0.3624778E-005  0.1250913E+03  0.7818608E-02  0.1238860E+00
          2   -1    0    0  502    0  0.00000000000E+00  0.00000000000E+00  0.23553204824E+03  0.23553204824E+03  0.00000000000E+00 0.  1.
          1   -1    0    0  501    0 -0.00000000000E+00 -0.00000000000E+00 -0.15116677870E+03  0.15116677870E+03  0.00000000000E+00 0.  1.
          2    1    1    2  501    0 -0.34853946787E+02  0.10858606987E+03 -0.47976612871E+02  0.12372343173E+03  0.00000000000E+00 0.  1.
          1    1    1    2  502    0 -0.56391481789E+00 -0.23277048673E+02 -0.31786555858E+02  0.39402082790E+02  0.00000000000E+00 0.  1.
         22    1    1    2    0    0  0.58032008366E+02 -0.96322750517E+02  0.16346604915E+03  0.19841102662E+03  0.00000000000E+00 0.  1.
         22    1    1    2    0    0 -0.22614146761E+02  0.11013729317E+02  0.66238912012E+00  0.25162285797E+02  0.00000000000E+00 0. -1.
</event>
<event>
 6    1  0.3624778E-005  0.2373903E+03  0.7818608E-02  0.1167308E+00
          2   -1    0    0  502    0  0.00000000000E+00  0.00000000000E+00  0.18526209531E+03  0.18526209531E+03  0.00000000000E+00 0. -1.
          1   -1    0    0  501    0 -0.00000000000E+00 -0.00000000000E+00 -0.55080352072E+03  0.55080352072E+03  0.00000000000E+00 0. -1.
          2    1    1    2  501    0  0.28298853493E+02  0.18402754179E+03 -0.23015655371E+03  0.29603884958E+03  0.00000000000E+00 0. -1.
          1    1    1    2  502    0 -0.13380974120E+03 -0.21184588666E+03 -0.10136950670E+03  0.27029521532E+03  0.00000000000E+00 0. -1.
         22    1    1    2    0    0  0.26821925472E+02  0.38170488126E+02 -0.68760192627E+02  0.83092514344E+02  0.00000000000E+00 0.  1.
         22    1    1    2    0    0  0.78688962238E+02 -0.10352143257E+02  0.34744827628E+02  0.86639036784E+02  0.00000000000E+00 0.  1.
</event>
<event>
 6    1  0.3624778E-005  0.2163914E+03  0.7818608E-02  0.1185592E+00
          2   -1    0    0  502    0  0.00000000000E+00  0.00000000000E+00  0.48704660808E+03  0.48704660808E+03  0.00000000000E+00 0. -1.
          1   -1    0    0  501    0 -0.00000000000E+00 -0.00000000000E+00 -0.26585023811E+03  0.26585023811E+03  0.00000000000E+00 0. -1.
          2    1    1    2  501    0 -0.33011980664E+02  0.16191317952E+03 -0.17718294238E+03  0.24227972189E+03  0.00000000000E+00 0. -1.
          1    1    1    2  502    0 -0.34187467052E+02 -0.15030180659E+03  0.29755482575E+03  0.33510937064E+03  0.00000000000E+00 0. -1.
         22    1    1    2    0    0  0.19855013170E+02 -0.62210352007E+02  0.79759269804E+02  0.10308196042E+03  0.00000000000E+00 0. -1.
         22    1    1    2    0    0  0.47344434546E+02  0.50598979081E+02  0.21065216803E+02  0.72425793234E+02  0.00000000000E+00 0.  1.
</event>
<event>
 6    1  0.3624778E-005  0.3095427E+03  0.7818608E-02  0.1170855E+00
          2   -1    0    0  502    0  0.00000000000E+00  0.00000000000E+00  0.23860879305E+03  0.23860879305E+03  0.00000000000E+00 0. -1.
          1   -1    0    0  501    0 -0.00000000000E+00 -0.00000000000E+00 -0.14294883908E+04  0.14294883908E+04  0.00000000000E+00 0.  1.
          2    1    1    2  501    0 -0.81600258973E+02 -0.23861882786E+03 -0.32873825773E+03  0.41432642852E+03  0.00000000000E+00 0. -1.
          1    1    1    2  502    0  0.13305278481E+03  0.27566358687E+03 -0.10080833592E+04  0.10535300261E+04  0.00000000000E+00 0.  1.
         22    1    1    2    0    0 -0.32344520045E+02 -0.65662978695E+01  0.15868238173E+03  0.16207832216E+03  0.00000000000E+00 0. -1.
         22    1    1    2    0    0 -0.19108005790E+02 -0.30478461139E+02 -0.12740362519E+02  0.38162407102E+02  0.00000000000E+00 0. -1.
</event>
<event>
 6    1  0.3624778E-005  0.8963445E+02  0.7818608E-02  0.1306603E+00
          2   -1    0    0  502    0  0.00000000000E+00  0.00000000000E+00  0.21156792018E+03  0.21156792018E+03  0.00000000000E+00 0.  1.
          1   -1    0    0  501    0 -0.00000000000E+00 -0.00000000000E+00 -0.13603860226E+03  0.13603860226E+03  0.00000000000E+00 0.  1.
          2    1    1    2  501    0 -0.26128968505E+02 -0.83711930433E+02 -0.34792030255E+01  0.87763974076E+02  0.00000000000E+00 0.  1.
          1    1    1    2  502    0  0.78829182881E+01  0.57197863502E+02 -0.50256465471E+02  0.76547033330E+02  0.00000000000E+00 0.  1.
         22    1    1    2    0    0 -0.90311648675E+01 -0.44360494345E+02  0.18294457733E+02  0.48827272923E+02  0.00000000000E+00 0.  1.
         22    1    1    2    0    0  0.27277215084E+02  0.70874561275E+02  0.11097052869E+03  0.13446824211E+03  0.00000000000E+00 0.  1.
</event>
<event>
 6    1  0.3624778E-005  0.1459898E+03  0.7818608E-02  0.1235355E+00
          2   -1    0    0  502    0  0.00000000000E+00  0.00000000000E+00  0.32861766338E+03  0.32861766338E+03  0.00000000000E+00 0.  1.
          1   -1    0    0  501    0 -0.00000000000E+00 -0.00000000000E+00 -0.17294462939E+03  0.17294462939E+03  0.00000000000E+00 0.  1.
          2    1    1    2  501    0  0.27081828975E+02  0.43568133176E+02 -0.35259172025E+01  0.51420227355E+02  0.00000000000E+00 0.  1.
          1    1    1    2  502    0 -0.22958440248E+02 -0.15466889341E+02 -0.13070106328E+03  0.13360045878E+03  0.00000000000E+00 0.  1.
         22    1    1    2    0    0 -0.27937536428E+01 -0.73628792658E+02  0.12154674728E+03  0.14213590659E+03  0.00000000000E+00 0.  1.
         22    1    1    2    0    0 -0.13296350845E+01  0.45527548823E+02  0.16835326719E+03  0.17440570004E+03  0.00000000000E+00 0. -1.
</event>
<event>
 6    1  0.3624778E-005  0.6996071E+02  0.7818608E-02  0.1361956E+00
          2   -1    0    0  502    0  0.00000000000E+00  0.00000000000E+00  0.62955412171E+02  0.62955412171E+02  0.00000000000E+00 0. -1.
          1   -1    0    0  501    0 -0.00000000000E+00 -0.00000000000E+00 -0.25039223055E+03  0.25039223055E+03  0.00000000000E+00 0. -1.
          2    1    1    2  501    0  0.79697974158E+01 -0.18702581575E+02 -0.17736219995E+02  0.26979209183E+02  0.00000000000E+00 0. -1.
          1    1    1    2  502    0 -0.74950025839E+02 -0.49947311843E-01 -0.13611184640E+02  0.76175935933E+02  0.00000000000E+00 0. -1.
         22    1    1    2    0    0  0.35242157556E+02 -0.44740161852E+02 -0.27348413454E+02  0.63179327871E+02  0.00000000000E+00 0. -1.
         22    1    1    2    0    0  0.31738070867E+02  0.63492690739E+02 -0.12874100029E+03  0.14701316974E+03  0.00000000000E+00 0. -1.
</event>
<event>
 6    1  0.3624778E-005  0.2700690E+03  0.7818608E-02  0.1212022E+00
          2   -1    0    0  502    0  0.00000000000E+00  0.00000000000E+00  0.20253742458E+03  0.20253742458E+03  0.00000000000E+00 0. -1.
          1   -1    0    0  501    0 -0.00000000000E+00 -0.00000000000E+00 -0.15489451500E+04  0.15489451500E+04  0.00000000000E+00 0. -1.
          2    1    1    2  501    0 -0.12703794647E+03 -0.23053962317E+02 -0.60247006129E+01  0.12925332506E+03  0.00000000000E+00 0. -1.
          1    1    1    2  502    0  0.19022650928E+03  0.13241081295E+03 -0.14125016840E+04  0.14313908465E+04  0.00000000000E+00 0. -1.
         22    1    1    2    0    0 -0.68480832815E+02 -0.90015953143E+02  0.10368775345E+03  0.15343939031E+03  0.00000000000E+00 0.  1.
         22    1    1    2    0    0  0.52922700017E+01 -0.19340897495E+02 -0.31569094296E+02  0.37399012719E+02  0.00000000000E+00 0.  1.
</event>
<event>
 6    1  0.3624778E-005  0.1787228E+03  0.7818608E-02  0.1267707E+00
          2   -1    0    0  502    0  0.00000000000E+00  0.00000000000E+00  0.94780452107E+03  0.94780452107E+03  0.00000000000E+00 0. -1.
          1   -1    0    0  501    0 -0.00000000000E+00 -0.00000000000E+00 -0.29378747420E+02  0.29378747420E+02  0.00000000000E+00 0. -1.
          2    1    1    2  501    0  0.17649634399E+02  0.53424788785E+02  0.84626508571E+02  0.10162363703E+03  0.00000000000E+00 0. -1.
          1    1    1    2  502    0 -0.10015488446E+03 -0.49970013385E+02  0.26351766260E+03  0.28630326862E+03  0.00000000000E+00 0. -1.
         22    1    1    2    0    0  0.10193238477E+03 -0.14425378479E+02  0.54849505895E+03  0.55807269446E+03  0.00000000000E+00 0.  1.
         22    1    1    2    0    0 -0.19427134700E+02  0.10970603079E+02  0.21786543531E+02  0.31183668379E+02  0.00000000000E+00 0. -1.
</event>
<event>
 6    1  0.3624778E-005  0.9621260E+02  0.7818608E-02  0.1302087E+00
          2   -1    0    0  502    0  0.00000000000E+00  0.00000000000E+00  0.53019168026E+03  0.53019168026E+03  0.00000000000E+00 0.  1.
          1   -1    0    0  501    0 -0.00000000000E+00 -0.00000000000E+00 -0.28374289915E+03  0.28374289915E+03  0.00000000000E+00 0. -1.
          2    1    1    2  501    0  0.33633237106E+02  0.52014790686E+02  0.12066378084E+03  0.13563362819E+03  0.00000000000E+00 0.  1.
          1    1    1    2  502    0 -0.80155275287E+02 -0.11178688024E+02 -0.25841205248E+03  0.27078888472E+03  0.00000000000E+00 0. -1.
         22    1    1    2    0    0  0.35953486849E+02  0.33121486679E+02  0.24195633530E+03  0.24684520309E+03  0.00000000000E+00 0. -1.
         22    1    1    2    0    0  0.10568551332E+02 -0.73957589341E+02  0.14224071745E+03  0.16066686341E+03  0.00000000000E+00 0.  1.
</event>
<event>
 6    1  0.3624778E-005  0.3309246E+03  0.7818608E-02  0.1094787E+00
          2   -1    0    0  502    0  0.00000000000E+00  0.00000000000E+00  0.74081163687E+03  0.74081163687E+03  0.00000000000E+00 0.  1.
          1   -1    0    0  501    0 -0.00000000000E+00 -0.00000000000E+00 -0.66960489226E+03  0.66960489226E+03  0.00000000000E+00 0. -1.
          2    1    1    2  501    0 -0.96074232233E+02  0.42125068809E+03  0.41850466541E+03  0.60152186600E+03  0.00000000000E+00 0.  1.
          1    1    1    2  502    0  0.10220072856E+03 -0.25715559703E+03 -0.48826642340E+03  0.56122908889E+03  0.00000000000E+00 0. -1.
         22    1    1    2    0    0 -0.30026967395E+02 -0.17104629665E+03  0.13946281550E+03  0.22272927799E+03  0.00000000000E+00 0.  1.
         22    1    1    2    0    0  0.23900471069E+02  0.69512055887E+01  0.15056871105E+01  0.24936296239E+02  0.00000000000E+00 0. -1.
</event>
<event>
 6    1  0.3624778E-005  0.1392773E+03  0.7818608E-02  0.1266172E+00
          2   -1    0    0  502    0  0.00000000000E+00  0.00000000000E+00  0.10294672984E+02  0.10294672984E+02  0.00000000000E+00 0. -1.
          1   -1    0    0  501    0 -0.00000000000E+00 -0.00000000000E+00 -0.19800336858E+04  0.19800336858E+04  0.00000000000E+00 0. -1.
          2    1    1    2  501    0  0.54516667988E+02 -0.26521900422E+02 -0.39095721820E+03  0.39562990882E+03  0.00000000000E+00 0. -1.
          1    1    1    2  502    0 -0.13426627446E+02  0.46242246655E+02 -0.10016204444E+04  0.10027772107E+04  0.00000000000E+00 0. -1.
         22    1    1    2    0    0  0.18576552904E+02 -0.55904415756E+02 -0.20602740011E+03  0.21428411423E+03  0.00000000000E+00 0. -1.
         22    1    1    2    0    0 -0.59666593446E+02  0.36184069523E+02 -0.37113395008E+03  0.37763712498E+03  0.00000000000E+00 0. -1.
</event>
<event>
 6    1  0.3624778E-005  0.7110544E+02  0.7818608E-02  0.1414836E+00
          2   -1    0    0  502    0  0.00000000000E+00  0.00000000000E+00  0.12297236434E+03  0.12297236434E+03  0.00000000000E+00 0. -1.
          1   -1    0    0  501    0 -0.00000000000E+00 -0.00000000000E+00 -0.60783512472E+03  0.60783512472E+03  0.00000000000E+00 0. -1.
          2    1    1    2  501    0 -0.19685911405E+02  0.38340695064E+02 -0.23507393766E+03  0.23899225965E+03  0.00000000000E+00 0. -1.
          1    1    1    2  502    0  0.13547027733E+01 -0.52535506139E+02 -0.33688332968E+03  0.34095775756E+03  0.00000000000E+00 0. -1.
         22    1    1    2    0    0  0.27007490645E+02 -0.57236438423E+01  0.11341598546E+03  0.11672767627E+03  0.00000000000E+00 0. -1.
         22    1    1    2    0    0 -0.86762820140E+01  0.19918454917E+02 -0.26321478501E+02  0.34129795580E+02  0.00000000000E+00 0.  1.
</event>
<event>
 6    1  0.4822618E-005  0.1146556E+03  0.7818608E-02  0.1262566E+00
          2   -1    0    0  502    0  0.00000000000E+00  0.00000000000E+00  0.31947790285E+03  0.31947790285E+03  0.00000000000E+00 0.  1.
          1   -1    0    0  501    0 -0.00000000000E+00 -0.00000000000E+00 -0.10140112179E+04  0.10140112179E+04  0.00000000000E+00 0. -1.
          2    1    1    2  501    0 -0.67461437185E+02  0.34923525569E+02 -0.44613052819E+03  0.45255181618E+03  0.00000000000E+00 0.  1.
          1    1    1    2  502    0 -0.12979262637E+02  0.22250417760E+02 -0.54371150029E+03  0.54432135536E+03  0.00000000000E+00 0. -1.
         22    1    1    2    0    0  0.81276558717E+02 -0.46708330505E+02  0.30694669034E+03  0.32094207865E+03  0.00000000000E+00 0.  1.
         22    1    1    2    0    0 -0.83585889463E+00 -0.10465612825E+02 -0.11637976887E+02  0.15673870547E+02  0.00000000000E+00 0. -1.
</event>
<event>
 6    1  0.3624778E-005  0.1898893E+03  0.7818608E-02  0.1222958E+00
          2   -1    0    0  502    0  0.00000000000E+00  0.00000000000E+00  0.21435237200E+03  0.21435237200E+03  0.00000000000E+00 0.  1.
          1   -1    0    0  501    0 -0.00000000000E+00 -0.00000000000E+00 -0.33674300665E+03  0.33674300665E+03  0.00000000000E+00 0. -1.
          2    1    1    2  501    0 -0.25808644811E+02  0.20152161221E+02 -0.74674986993E+01  0.33585105117E+02  0.00000000000E+00 0.  1.
          1    1    1    2  502    0 -0.11591185333E+03 -0.79866966991E+02 -0.24475208408E+03  0.28234353689E+03  0.00000000000E+00 0. -1.
         22    1    1    2    0    0  0.34141462401E+02 -0.30538305188E+02  0.29314304194E+01  0.45900117897E+02  0.00000000000E+00 0. -1.
         22    1    1    2    0    0  0.10757903574E+03  0.90253110957E+02  0.12689751771E+03  0.18926661874E+03  0.00000000000E+00 0.  1.
</event>
<event>
 6    1  0.3624778E-005  0.2110513E+03  0.7818608E-02  0.1246754E+00
          2   -1    0    0  502    0  0.00000000000E+00  0.00000000000E+00  0.11711536780E+03  0.11711536780E+03  0.00000000000E+00 0. -1.
          1   -1    0    0  501    0 -0.00000000000E+00 -0.00000000000E+00 -0.94398774675E+03  0.94398774675E+03  0.00000000000E+00 0. -1.
          2    1    1    2  501    0  0.17375447755E+03 -0.73002509855E+02 -0.61931154093E+03  0.64735366659E+03  0.00000000000E+00 0. -1.
          1    1    1    2  502    0 -0.16172266552E+03  0.99925436590E+02 -0.21550953907E+03  0.28737375463E+03  0.00000000000E+00 0. -1.
         22    1    1    2    0    0 -0.17479862404E+02 -0.71691603617E+01 -0.56064758005E+02  0.59162484229E+02  0.00000000000E+00 0.  1.
         22    1    1    2    0    0  0.54480503712E+01 -0.19753766374E+02  0.64013459051E+02  0.67213209107E+02  0.00000000000E+00 0. -1.
</event>
<event>
 6    1  0.3624778E-005  0.8385003E+02  0.7818608E-02  0.1339198E+00
          2   -1    0    0  502    0  0.00000000000E+00  0.00000000000E+00  0.73524848269E+02  0.73524848269E+02  0.00000000000E+00 0.  1.
          1   -1    0    0  501    0 -0.00000000000E+00 -0.00000000000E+00 -0.54384645712E+03  0.54384645712E+03  0.00000000000E+00 0. -1.
          2    1    1    2  501    0 -0.28153860989E+02 -0.18910506942E+02 -0.13493054295E+03  0.13912763414E+03  0.00000000000E+00 0.  1.
          1    1    1    2  502    0  0.10503147561E+03  0.60283760096E+02 -0.30155959570E+03  0.32496758663E+03  0.00000000000E+00 0. -1.
         22    1    1    2    0    0 -0.21774024815E+02 -0.22689561554E+02 -0.75448369930E+02  0.81739714248E+02  0.00000000000E+00 0.  1.
         22    1    1    2    0    0 -0.55103589809E+02 -0.18683691600E+02  0.41616899734E+02  0.71536370366E+02  0.00000000000E+00 0.  1.
</event>
<event>
 6    1  0.3624778E-005  0.1251851E+03  0.7818608E-02  0.1305661E+00
          2   -1    0    0  502    0  0.00000000000E+00  0.00000000000E+00  0.30672151775E+03  0.30672151775E+03  0.00000000000E+00 0. -1.
          1   -1    0    0  501    0 -0.00000000000E+00 -0.00000000000E+00 -0.11497929422E+03  0.11497929422E+03  0.00000000000E+00 0. -1.
          2    1    1    2  501    0 -0.16008692975E+02  0.76050337138E+02 -0.63353034949E+02  0.10026733799E+03  0.00000000000E+00 0. -1.
          1    1    1    2  502    0  0.11401680985E+02 -0.68754612446E+02  0.71939372367E+02  0.10016221023E+03  0.00000000000E+00 0. -1.
         22    1    1    2    0    0 -0.30873893334E+02  0.74768342024E+01  0.17991904515E+03  0.18270184221E+03  0.00000000000E+00 0. -1.
         22    1    1    2    0    0  0.35480905324E+02 -0.14772558895E+02  0.32368409573E+01  0.38569421545E+02  0.00000000000E+00 0. -1.
</event>
<event>
 6    1  0.3624778E-005  0.9433347E+02  0.7818608E-02  0.1295030E+00
          2   -1    0    0  502    0  0.00000000000E+00  0.00000000000E+00  0.33853119583E+03  0.33853119583E+03  0.00000000000E+00 0.  1.
          1   -1    0    0  501    0 -0.00000000000E+00 -0.00000000000E+00 -0.59660500771E+02  0.59660500771E+02  0.00000000000E+00 0. -1.
          2    1    1    2  501    0 -0.55326088579E+02 -0.62012292406E+02  0.39995508903E+02  0.92228743997E+02  0.00000000000E+00 0.  1.
          1    1    1    2  502    0  0.40749543395E+02  0.29069383284E+02  0.12522733567E+03  0.13486081689E+03  0.00000000000E+00 0. -1.
         22    1    1    2    0    0  0.57757649928E+02  0.51338965401E+02  0.89742645556E+02  0.11842878841E+03  0.00000000000E+00 0. -1.
         22    1    1    2    0    0 -0.43181104744E+02 -0.18396056279E+02  0.23905204922E+02  0.52673347301E+02  0.00000000000E+00 0. -1.
</event>
<event>
 6    1  0.3624778E-005  0.8051127E+02  0.7818608E-02  0.1330015E+00
          2   -1    0    0  502    0  0.00000000000E+00  0.00000000000E+00  0.46453243136E+03  0.46453243136E+03  0.00000000000E+00 0. -1.
          1   -1    0    0  501    0 -0.00000000000E+00 -0.00000000000E+00 -0.52781151923E+02  0.52781151923E+02  0.00000000000E+00 0. -1.
          2    1    1    2  501    0 -0.57463806587E+00 -0.21317849410E+02  0.21458360014E+02  0.30252968894E+02  0.00000000000E+00 0. -1.
          1    1    1    2  502    0 -0.51164454495E+02 -0.30678708598E+02 -0.11609832779E+02  0.60776416332E+02  0.00000000000E+00 0. -1.
         22    1    1    2    0    0 -0.23529100255E+02 -0.14849412601E+02  0.29649306667E+02  0.40659623697E+02  0.00000000000E+00 0. -1.
         22    1    1    2    0    0  0.75268192816E+02  0.66845970609E+02  0.37225344553E+03  0.38562457435E+03  0.00000000000E+00 0. -1.
</event>
<event>
 6    1  0.3624778E-005  0.6535084E+02  0.7818608E-02  0.1381252E+00
          2   -1    0    0  502    0  0.00000000000E+00  0.00000000000E+00  0.16385478439E+03  0.16385478439E+03  0.00000000000E+00 0. -1.
          1   -1    0    0  501    0 -0.00000000000E+00 -0.00000000000E+00 -0.33736109674E+03  0.33736109674E+03  0.00000000000E+00 0.  1.
          2    1    1    2  501    0  0.98271927902E+01 -0.21264930806E+02  0.17828698693E+02  0.29438639531E+02  0.00000000000E+00 0. -1.
          1    1    1    2  502    0  0.23664392295E+02 -0.49292716872E+02 -0.28721170631E+03  0.29237020991E+03  0.00000000000E+00 0.  1.
         22    1    1    2    0    0  0.19933235744E+02 -0.19771580351E+02  0.63742875413E+02  0.69652016789E+02  0.00000000000E+00 0. -1.
         22    1    1    2    0    0 -0.53424820829E+02  0.90329228029E+02  0.32133819850E+02  0.10975501490E+03  0.00000000000E+00 0. -1.
</event>
<event>
 6    1  0.3624778E-005  0.8976937E+02  0.7818608E-02  0.1308513E+00
          2   -1    0    0  502    0  0.00000000000E+00  0.00000000000E+00  0.51427401564E+03  0.51427401564E+03  0.00000000000E+00 0. -1.
          1   -1    0    0  501    0 -0.00000000000E+00 -0.00000000000E+00 -0.37986639854E+02  0.37986639854E+02  0.00000000000E+00 0. -1.
          2    1    1    2  501    0  0.43597450690E+02 -0.11660324889E+01  0.18781481770E+02  0.47485170273E+02  0.00000000000E+00 0. -1.
          1    1    1    2  502    0 -0.21391533352E+02 -0.49865024788E+02  0.42537977843E+02  0.68946341130E+02  0.00000000000E+00 0. -1.
         22    1    1    2    0    0  0.30865390042E+02 -0.17439919367E+02  0.53898123451E+02  0.64512253112E+02  0.00000000000E+00 0. -1.
         22    1    1    2    0    0 -0.53071307380E+02  0.68470976644E+02  0.36106979272E+03  0.37131689097E+03  0.00000000000E+00 0. -1.
</event>
<event>
 6    1  0.3624778E-005  0.1381129E+03  0.7818608E-02  0.1285342E+00
          2   -1    0    0  502    0  0.00000000000E+00  0.00000000000E+00  0.67252941074E+02  0.67252941074E+02  0.00000000000E+00 0. -1.
          1   -1    0    0  501    0 -0.00000000000E+00 -0.00000000000E+00 -0.40817181249E+03  0.40817181249E+03  0.00000000000E+00 0. -1.
          2    1    1    2  501    0  0.12740262655E+02 -0.21132872236E+02 -0.13288130849E+03  0.13515307887E+03  0.00000000000E+00 0. -1.
          1    1    1    2  502    0  0.15314426496E+02 -0.49314235671E+02  0.30801469073E+02  0.60126167313E+02  0.00000000000E+00 0. -1.
         22    1    1    2    0    0 -0.25572932538E+02  0.10485467832E+03 -0.20577764058E+03  0.23236375752E+03  0.00000000000E+00 0. -1.
         22    1    1    2    0    0 -0.24817566130E+01 -0.34407570416E+02 -0.33061391423E+02  0.47781749870E+02  0.00000000000E+00 0. -1.
</event>
<event>
 6    1  0.3624778E-005  0.8353663E+02  0.7818608E-02  0.1335521E+00
          2   -1    0    0  502    0  0.00000000000E+00  0.00000000000E+00  0.27346182270E+02  0.27346182270E+02  0.00000000000E+00 0. -1.
          1   -1    0    0  501    0 -0.00000000000E+00 -0.00000000000E+00 -0.73682964798E+03  0.73682964798E+03  0.00000000000E+00 0. -1.
          2    1    1    2  501    0  0.35516727632E+02 -0.59714464306E+02 -0.26989209201E+03  0.27869157957E+03  0.00000000000E+00 0. -1.
          1    1    1    2  502    0 -0.65403411811E+02  0.28498528279E+02 -0.21426462052E+03  0.22582980316E+03  0.00000000000E+00 0. -1.
         22    1    1    2    0    0  0.11860687436E+02 -0.28868200448E+02 -0.17892811347E+03  0.18162961954E+03  0.00000000000E+00 0.  1.
         22    1    1    2    0    0  0.18025996744E+02  0.60084136475E+02 -0.46398639701E+02  0.78024827976E+02  0.00000000000E+00 0. -1.
</event>
<event>
 6    1  0.3624778E-005  0.1156622E+03  0.7818608E-02  0.1253137E+00
          2   -1    0    0  502    0  0.00000000000E+00  0.00000000000E+00  0.52179413372E+02  0.52179413372E+02  0.00000000000E+00 0. -1.
          1   -1    0    0  501    0 -0.00000000000E+00 -0.00000000000E+00 -0.29432039702E+03  0.29432039702E+03  0.00000000000E+00 0. -1.
          2    1    1    2  501    0 -0.20914075888E+02 -0.27656828492E+01 -0.19829229057E+02  0.28952476524E+02  0.00000000000E+00 0. -1.
          1    1    1    2  502    0  0.58915401262E+00 -0.72746495045E+02 -0.10119396615E+03  0.12462992590E+03  0.00000000000E+00 0. -1.
         22    1    1    2    0    0  0.28432894484E+02  0.10961261500E+03 -0.10464690452E+03  0.15418926513E+03  0.00000000000E+00 0. -1.
         22    1    1    2    0    0 -0.81079726079E+01 -0.34100437107E+02 -0.16470883922E+02  0.38728142841E+02  0.00000000000E+00 0. -1.
</event>
<event>
 6    1  0.3624778E-005  0.7352664E+02  0.7818608E-02  0.1405766E+00
          2   -1    0    0  502    0  0.00000000000E+00  0.00000000000E+00  0.90467517490E+02  0.90467517490E+02  0.00000000000E+00 0.  1.
          1   -1    0    0  501    0 -0.00000000000E+00 -0.00000000000E+00 -0.35942507479E+04  0.35942507479E+04  0.00000000000E+00 0. -1.
          2    1    1    2  501    0 -0.43843444653E+02  0.22887165391E+02 -0.26307533796E+03  0.26768396183E+03  0.00000000000E+00 0.  1.
          1    1    1    2  502    0  0.49850284882E+02 -0.51704559598E+02 -0.32833263335E+04  0.32841117863E+04  0.00000000000E+00 0. -1.
         22    1    1    2    0    0 -0.15066417305E+02  0.15175858520E+01 -0.41418239114E+02  0.44099552475E+02  0.00000000000E+00 0.  1.
         22    1    1    2    0    0  0.90595770759E+01  0.27299808355E+02  0.84036680148E+02  0.88822964842E+02  0.00000000000E+00 0.  1.
</event>
<event>
 6    1  0.3624778E-005  0.1217052E+03  0.7818608E-02  0.1246072E+00
          2   -1    0    0  502    0  0.00000000000E+00  0.00000000000E+00  0.23904772376E+03  0.23904772376E+03  0.00000000000E+00 0. -1.
          1   -1    0    0  501    0 -0.00000000000E+00 -0.00000000000E+00 -0.79409027761E+02  0.79409027761E+02  0.00000000000E+00 0. -1.
          2    1    1    2  501    0  0.70730961818E+02  0.38057579356E+02  0.46431451138E+02  0.92774608385E+02  0.00000000000E+00 0. -1.
          1    1    1    2  502    0  0.13952884235E+02 -0.19093268088E+02 -0.15574338143E+02  0.28316000306E+02  0.00000000000E+00 0. -1.
         22    1    1    2    0    0  0.66920043402E+01  0.39460653699E+02  0.45667658297E+02  0.60724468930E+02  0.00000000000E+00 0.  1.
         22    1    1    2    0    0 -0.91375850393E+02 -0.58424964968E+02  0.83113924710E+02  0.13664167390E+03  0.00000000000E+00 0. -1.
</event>
<event>
 6    1  0.4083799E-005  0.7365542E+02  0.7818608E-02  0.1352631E+00
          2   -1    0    0  502    0  0.00000000000E+00  0.00000000000E+00  0.86212994089E+02  0.86212994089E+02  0.00000000000E+00 0.  1.
          1   -1    0    0  501    0 -0.00000000000E+00 -0.00000000000E+00 -0.12145454471E+04  0.12145454471E+04  0.00000000000E+00 0.  1.
          2    1    1    2  501    0  0.38170574266E+02  0.44840655607E+02 -0.48616305437E+03  0.48971644098E+03  0.00000000000E+00 0.  1.
          1    1    1    2  502    0 -0.39540347475E+02  0.12566405843E+02 -0.67287538516E+03  0.67415327455E+03  0.00000000000E+00 0.  1.
         22    1    1    2    0    0 -0.47696403974E+01 -0.68243243674E+02  0.68672295548E+02  0.96931800522E+02  0.00000000000E+00 0.  1.
         22    1    1    2    0    0  0.61394136060E+01  0.10836182223E+02 -0.37966308984E+02  0.39956925087E+02  0.00000000000E+00 0. -1.
</event>
<event>
 6    1  0.3624778E-005  0.2479295E+03  0.7818608E-02  0.1178640E+00
          2   -1    0    0  502    0  0.00000000000E+00  0.00000000000E+00  0.70065027613E+03  0.70065027613E+03  0.00000000000E+00 0. -1.
          1   -1    0    0  501    0 -0.00000000000E+00 -0.00000000000E+00 -0.92034216097E+02  0.92034216097E+02  0.00000000000E+00 0. -1.
          2    1    1    2  501    0 -0.34128315948E+02 -0.11315544523E+03  0.13932320328E+03  0.18270153723E+03  0.00000000000E+00 0. -1.
          1    1    1    2  502    0 -0.54712574753E+02  0.95958655559E+01 -0.40411419556E+02  0.68692279788E+02  0.00000000000E+00 0. -1.
         22    1    1    2    0    0 -0.25752050622E+02  0.47274898100E+02  0.17359897582E+03  0.18175447314E+03  0.00000000000E+00 0. -1.
         22    1    1    2    0    0  0.11459294132E+03  0.56284681570E+02  0.33610530049E+03  0.35953620207E+03  0.00000000000E+00 0. -1.
</event>
<event>
 6    1  0.3624778E-005  0.1661460E+03  0.7818608E-02  0.1218931E+00
          2   -1    0    0  502    0  0.00000000000E+00  0.00000000000E+00  0.79648935640E+03  0.79648935640E+03  0.00000000000E+00 0. -1.
          1   -1    0    0  501    0 -0.00000000000E+00 -0.00000000000E+00 -0.28879913186E+03  0.28879913186E+03  0.00000000000E+00 0.  1.
          2    1    1    2  501    0  0.50902866182E+02  0.15852140731E+02  0.12836914228E+03  0.13900010374E+03  0.00000000000E+00 0. -1.
          1    1    1    2  502    0 -0.11969558434E+03 -0.10419061993E+03 -0.24930983973E+03  0.29553022583E+03  0.00000000000E+00 0.  1.
         22    1    1    2    0    0  0.80774155087E+02  0.14901226074E+02  0.44687961046E+03  0.45436537821E+03  0.00000000000E+00 0. -1.
         22    1    1    2    0    0 -0.11981436928E+02  0.73437253128E+02  0.18175131153E+03  0.19639278047E+03  0.00000000000E+00 0. -1.
</event>
<event>
 6    1  0.3624778E-005  0.1567313E+03  0.7818608E-02  0.1222948E+00
          2   -1    0    0  502    0  0.00000000000E+00  0.00000000000E+00  0.18588219035E+03  0.18588219035E+03  0.00000000000E+00 0.  1.
          1   -1    0    0  501    0 -0.00000000000E+00 -0.00000000000E+00 -0.38090369197E+03  0.38090369197E+03  0.00000000000E+00 0.  1.
          2    1    1    2  501    0  0.33639471503E+02 -0.77862551038E+02 -0.99264138069E+01  0.85397450712E+02  0.00000000000E+00 0.  1.
          1    1    1    2  502    0  0.42438805534E+01  0.29990943630E+02 -0.29957790177E+03  0.30110527470E+03  0.00000000000E+00 0.  1.
         22    1    1    2    0    0 -0.80663406875E+02  0.97945067428E+01  0.57897511250E+02  0.99772939117E+02  0.00000000000E+00 0.  1.
         22    1    1    2    0    0  0.42780054819E+02  0.38077100665E+02  0.56585302716E+02  0.80510217791E+02  0.00000000000E+00 0.  1.
</event>
<event>
 6    1  0.3624778E-005  0.5249763E+02  0.7818608E-02  0.1437165E+00
          2   -1    0    0  502    0  0.00000000000E+00  0.00000000000E+00  0.76749673482E+02  0.76749673482E+02  0.00000000000E+00 0.  1.
          1   -1    0    0  501    0 -0.00000000000E+00 -0.00000000000E+00 -0.47557614012E+03  0.47557614012E+03  0.00000000000E+00 0.  1.
          2    1    1    2  501    0  0.29080491412E+02  0.58060040760E+02 -0.15753453622E+03  0.17039299697E+03  0.00000000000E+00 0.  1.
          1    1    1    2  502    0 -0.64693529289E+01 -0.28153483894E+02 -0.25242835003E+03  0.25407586088E+03  0.00000000000E+00 0.  1.
         22    1    1    2    0    0  0.76945003633E+01  0.71022335857E+01 -0.49516466717E+02  0.50611535581E+02  0.00000000000E+00 0. -1.
         22    1    1    2    0    0 -0.30305638846E+02 -0.37008790452E+02  0.60652886333E+02  0.77245420169E+02  0.00000000000E+00 0.  1.
</event>
<event>
 6    1  0.3624778E-005  0.9205315E+02  0.7818608E-02  0.1408642E+00
          2   -1    0    0  502    0  0.00000000000E+00  0.00000000000E+00  0.35283539868E+02  0.35283539868E+02  0.00000000000E+00 0. -1.
          1   -1    0    0  501    0 -0.00000000000E+00 -0.00000000000E+00 -0.44144738067E+03  0.44144738067E+03  0.00000000000E+00 0.  1.
          2    1    1    2  501    0  0.12600194561E+02  0.41786662264E+02 -0.46146456036E+02  0.63516812348E+02  0.00000000000E+00 0. -1.
          1    1    1    2  502    0 -0.13549805719E+02 -0.24985780590E+02 -0.22494117857E+03  0.22672983986E+03  0.00000000000E+00 0.  1.
         22    1    1    2    0    0 -0.10560418931E+02  0.92091789658E+01  0.22421070936E+02  0.26439286056E+02  0.00000000000E+00 0.  1.
         22    1    1    2    0    0  0.11510030089E+02 -0.26010060641E+02 -0.15749727713E+03  0.16004498228E+03  0.00000000000E+00 0.  1.
</event>
<event>
 6    1  0.3624778E-005  0.8393424E+02  0.7818608E-02  0.1318780E+00
          2   -1    0    0  502    0  0.00000000000E+00  0.00000000000E+00  0.22796680146E+03  0.22796680146E+03  0.00000000000E+00 0.  1.
          1   -1    0    0  501    0 -0.00000000000E+00 -0.00000000000E+00 -0.15299838467E+04  0.15299838467E+04  0.00000000000E+00 0.  1.
          2    1    1    2  501    0 -0.51818359027E+01  0.52750900124E+02 -0.40510481259E+02  0.66712877161E+02  0.00000000000E+00 0.  1.
          1    1    1    2  502    0 -0.32677269363E+02  0.80687955949E+01 -0.14509635114E+04  0.14513538579E+04  0.00000000000E+00 0.  1.
         22    1    1    2    0    0  0.44590471113E+02 -0.73209335948E+02  0.20298568618E+03  0.22034315460E+03  0.00000000000E+00 0.  1.
         22    1    1    2    0    0 -0.67313658471E+01  0.12389640229E+02 -0.13528738786E+02  0.19540758540E+02  0.00000000000E+00 0.  1.
</event>
<event>
 6    1  0.3624778E-005  0.1793538E+03  0.7818608E-02  0.1248800E+00
          2   -1    0    0  502    0  0.00000000000E+00  0.00000000000E+00  0.14349580553E+03  0.14349580553E+03  0.00000000000E+00 0. -1.
          1   -1    0    0  501    0 -0.00000000000E+00 -0.00000000000E+00 -0.40105980179E+03  0.40105980179E+03  0.00000000000E+00 0. -1.
          2    1    1    2  501    0 -0.46533461048E+02 -0.85481043561E+02 -0.22961690405E+03  0.24939184916E+03  0.00000000000E+00 0. -1.
          1    1    1    2  502    0  0.51850725379E+02  0.72052950304E+01  0.92777835739E+02  0.10652765276E+03  0.00000000000E+00 0. -1.
         22    1    1    2    0    0 -0.31849200028E+02  0.35493406037E+01  0.11840805443E+02  0.34163928854E+02  0.00000000000E+00 0. -1.
         22    1    1    2    0    0  0.26531935697E+02  0.74726407927E+02 -0.13256573340E+03  0.15447217654E+03  0.00000000000E+00 0. -1.
</event>
<event>
 6    1  0.3624778E-005  0.1190675E+03  0.7818608E-02  0.1251935E+00
          2   -1    0    0  502    0  0.00000000000E+00  0.00000000000E+00  0.97848052371E+03  0.97848052371E+03  0.00000000000E+00 0. -1.
          1   -1    0    0  501    0 -0.00000000000E+00 -0.00000000000E+00 -0.19437078292E+02  0.19437078292E+02  0.00000000000E+00 0. -1.
          2    1    1    2  501    0 -0.20697595267E+02  0.68489272142E+02  0.10631705922E+03  0.12815025529E+03  0.00000000000E+00 0. -1.
          1    1    1    2  502    0  0.19975876862E+02  0.49873384733E+01  0.22470811820E+03  0.22564939084E+03  0.00000000000E+00 0. -1.
         22    1    1    2    0    0  0.21012461819E+02  0.29806647295E+02  0.12533191367E+03  0.13052987535E+03  0.00000000000E+00 0.  1.
         22    1    1    2    0    0 -0.20290743414E+02 -0.10328325791E+03  0.50268635432E+03  0.51358808052E+03  0.00000000000E+00 0. -1.
</event>
<event>
 6    1  0.3624778E-005  0.1335708E+03  0.7818608E-02  0.1265924E+00
          2   -1    0    0  502    0  0.00000000000E+00  0.00000000000E+00  0.53613774481E+02  0.53613774481E+02  0.00000000000E+00 0. -1.
          1   -1    0    0  501    0 -0.00000000000E+00 -0.00000000000E+00 -0.25123181932E+03  0.25123181932E+03  0.00000000000E+00 0. -1.
          2    1    1    2  501    0  0.11211455459E+02  0.26014530704E+02 -0.11292420882E+03  0.11642306249E+03  0.00000000000E+00 0. -1.
          1    1    1    2  502    0  0.17894508829E+02 -0.12303161229E+02 -0.45476247829E+02  0.50395142018E+02  0.00000000000E+00 0. -1.
         22    1    1    2    0    0 -0.79517476175E+02 -0.17196185143E+00 -0.30182443542E+02  0.85053150948E+02  0.00000000000E+00 0. -1.
         22    1    1    2    0    0  0.50411511887E+02 -0.13539407623E+02 -0.90351446476E+01  0.52974238346E+02  0.00000000000E+00 0.  1.
</event>
<event>
 6    1  0.3624778E-005  0.5427843E+02  0.7818608E-02  0.1471842E+00
          2   -1    0    0  502    0  0.00000000000E+00  0.00000000000E+00  0.16744180921E+03  0.16744180921E+03  0.00000000000E+00 0. -1.
          1   -1    0    0  501    0 -0.00000000000E+00 -0.00000000000E+00 -0.75026834180E+02  0.75026834180E+02  0.00000000000E+00 0. -1.
          2    1    1    2  501    0  0.24286888951E+01  0.23335101923E+02  0.38563211421E+01  0.23775969470E+02  0.00000000000E+00 0. -1.
          1    1    1    2  502    0 -0.93396796070E+01 -0.18000115137E+02 -0.34225017546E+02  0.39781724273E+02  0.00000000000E+00 0. -1.
         22    1    1    2    0    0 -0.25914618255E+02  0.49096503678E+01  0.13858109830E+03  0.14106875243E+03  0.00000000000E+00 0. -1.
         22    1    1    2    0    0  0.32825608967E+02 -0.10244637154E+02 -0.15797426867E+02  0.37842197216E+02  0.00000000000E+00 0. -1.
</event>
<event>
 6    1  0.3624778E-005  0.2123176E+03  0.7818608E-02  0.1271253E+00
          2   -1    0    0  502    0  0.00000000000E+00  0.00000000000E+00  0.49258899529E+02  0.49258899529E+02  0.00000000000E+00 0. -1.
          1   -1    0    0  501    0 -0.00000000000E+00 -0.00000000000E+00 -0.20338631926E+04  0.20338631926E+04  0.00000000000E+00 0. -1.
          2    1    1    2  501    0  0.75469424513E+02 -0.75059386659E+02 -0.12145068635E+03  0.16149246043E+03  0.00000000000E+00 0. -1.
          1    1    1    2  502    0  0.21117359685E+02  0.54249762771E+02 -0.16701750985E+04  0.16711893488E+04  0.00000000000E+00 0. -1.
         22    1    1    2    0    0 -0.89961163291E+02  0.31320394525E+02 -0.20928250574E+03  0.22994161263E+03  0.00000000000E+00 0.  1.
         22    1    1    2    0    0 -0.66256209071E+01 -0.10510770636E+02  0.16303997499E+02  0.20498670352E+02  0.00000000000E+00 0.  1.
</event>
<event>
 6    1  0.3624778E-005  0.9780207E+02  0.7818608E-02  0.1294160E+00
          2   -1    0    0  502    0  0.00000000000E+00  0.00000000000E+00  0.38416235674E+03  0.38416235674E+03  0.00000000000E+00 0.  1.
          1   -1    0    0  501    0 -0.00000000000E+00 -0.00000000000E+00 -0.15170782808E+03  0.15170782808E+03  0.00000000000E+00 0.  1.
          2    1    1    2  501    0  0.73265278149E+02 -0.72919727054E+01 -0.39725223890E+02  0.83660428287E+02  0.00000000000E+00 0.  1.
          1    1    1    2  502    0 -0.23021501029E+02 -0.15995911142E+01 -0.74761741111E+02  0.78242355124E+02  0.00000000000E+00 0.  1.
         22    1    1    2    0    0  0.29173983949E+02 -0.65352649005E+01  0.17296231476E+02  0.34539696728E+02  0.00000000000E+00 0. -1.
         22    1    1    2    0    0 -0.79417761069E+02  0.15426828720E+02  0.32964526219E+03  0.33942770467E+03  0.00000000000E+00 0.  1.
</event>
<event>
 6    1  0.3624778E-005  0.1793990E+03  0.7818608E-02  0.1228107E+00
          2   -1    0    0  502    0  0.00000000000E+00  0.00000000000E+00  0.25155686581E+03  0.25155686581E+03  0.00000000000E+00 0. -1.
          1   -1    0    0  501    0 -0.00000000000E+00 -0.00000000000E+00 -0.48116078007E+03  0.48116078007E+03  0.00000000000E+00 0. -1.
          2    1    1    2  501    0  0.11684672853E+02 -0.13492263682E+03 -0.14544352092E+03  0.19873214960E+03  0.00000000000E+00 0. -1.
          1    1    1    2  502    0  0.20906275116E+02  0.19389554938E+03 -0.25018753734E+03  0.31721658256E+03  0.00000000000E+00 0. -1.
         22    1    1    2    0    0 -0.36011105488E+02 -0.32939548925E+02  0.18036576175E+03  0.18685187078E+03  0.00000000000E+00 0. -1.
         22    1    1    2    0    0  0.34201575194E+01 -0.26033363640E+02 -0.14338617748E+02  0.29917042949E+02  0.00000000000E+00 0.  1.
</event>
<event>
 6    1  0.3624778E-005  0.5666122E+02  0.7818608E-02  0.1419889E+00
          2   -1    0    0  502    0  0.00000000000E+00  0.00000000000E+00  0.32059325970E+03  0.32059325970E+03  0.00000000000E+00 0. -1.
          1   -1    0    0  501    0 -0.00000000000E+00 -0.00000000000E+00 -0.91666986770E+02  0.91666986770E+02  0.00000000000E+00 0. -1.
          2    1    1    2  501    0  0.10072925979E+02 -0.52592816587E+02 -0.17347860658E+02  0.56288688595E+02  0.00000000000E+00 0. -1.
          1    1    1    2  502    0 -0.29772602654E+01  0.33708674283E+02 -0.35394897689E+02  0.48968740876E+02  0.00000000000E+00 0. -1.
         22    1    1    2    0    0  0.55112533529E+01 -0.28456977781E+02  0.95642288909E+01  0.30522908974E+02  0.00000000000E+00 0. -1.
         22    1    1    2    0    0 -0.12606919067E+02  0.47341120086E+02  0.27210480238E+03  0.27647990802E+03  0.00000000000E+00 0. -1.
</event>
<event>
 6    1  0.3624778E-005  0.1007972E+03  0.7818608E-02  0.1330295E+00
          2   -1    0    0  502    0  0.00000000000E+00  0.00000000000E+00  0.25489620224E+03  0.25489620224E+03  0.00000000000E+00 0. -1.
          1   -1    0    0  501    0 -0.00000000000E+00 -0.00000000000E+00 -0.81843372383E+02  0.81843372383E+02  0.00000000000E+00 0. -1.
          2    1    1    2  501    0 -0.43559530769E+02 -0.62919267741E+01 -0.42671023809E+02  0.61301201752E+02  0.00000000000E+00 0. -1.
          1    1    1    2  502    0  0.76518621509E+01  0.39193128071E+02  0.68669449020E+02  0.79436424335E+02  0.00000000000E+00 0. -1.
         22    1    1    2    0    0 -0.10136200385E+02 -0.37793925077E+02  0.14441659074E+03  0.14962377823E+03  0.00000000000E+00 0. -1.
         22    1    1    2    0    0  0.46043869003E+02  0.48927237798E+01  0.26378139058E+01  0.46378170307E+02  0.00000000000E+00 0. -1.
</event>
<event>
 6    1  0.3624778E-005  0.1104194E+03  0.7818608E-02  0.1298046E+00
          2   -1    0    0  502    0  0.00000000000E+00  0.00000000000E+00  0.53549865326E+03  0.53549865326E+03  0.00000000000E+00 0.  1.
          1   -1    0    0  501    0 -0.00000000000E+00 -0.00000000000E+00 -0.10340602000E+03  0.10340602000E+03  0.00000000000E+00 0. -1.
          2    1    1    2  501    0 -0.20185537412E+02  0.30749199907E+02  0.54018149452E+02  0.65352350269E+02  0.00000000000E+00 0.  1.
          1    1    1    2  502    0  0.20047050493E+02 -0.10020465814E+03 -0.55576066343E+02  0.11632522038E+03  0.00000000000E+00 0. -1.
         22    1    1    2    0    0 -0.52826590713E+02  0.74918548108E+02  0.27697562497E+03  0.29175149420E+03  0.00000000000E+00 0.  1.
         22    1    1    2    0    0  0.52965077632E+02 -0.54630898762E+01  0.15667492518E+03  0.16547560841E+03  0.00000000000E+00 0.  1.
</event>
<event>
 6    1  0.3624778E-005  0.2352330E+03  0.7818608E-02  0.1188436E+00
          2   -1    0    0  502    0  0.00000000000E+00  0.00000000000E+00  0.11991210754E+04  0.11991210754E+04  0.00000000000E+00 0. -1.
          1   -1    0    0  501    0 -0.00000000000E+00 -0.00000000000E+00 -0.81398204417E+02  0.81398204417E+02  0.00000000000E+00 0. -1.
          2    1    1    2  501    0  0.13485469063E+03  0.10163505580E+03  0.11122955145E+03  0.20220654111E+03  0.00000000000E+00 0. -1.
          1    1    1    2  502    0 -0.16126836604E+03 -0.11865433832E+03  0.85774791889E+03  0.88080521697E+03  0.00000000000E+00 0. -1.
         22    1    1    2    0    0 -0.34800255773E+01 -0.50520757192E+02  0.89454242967E+02  0.10279357504E+03  0.00000000000E+00 0. -1.
         22    1    1    2    0    0  0.29893700986E+02  0.67540039710E+02  0.59291157714E+02  0.94713946732E+02  0.00000000000E+00 0. -1.
</event>
<event>
 6    1  0.3624778E-005  0.7434431E+02  0.7818608E-02  0.1445897E+00
          2   -1    0    0  502    0  0.00000000000E+00  0.00000000000E+00  0.58596559898E+02  0.58596559898E+02  0.00000000000E+00 0.  1.
          1   -1    0    0  501    0 -0.00000000000E+00 -0.00000000000E+00 -0.12942135217E+04  0.12942135217E+04  0.00000000000E+00 0. -1.
          2    1    1    2  501    0  0.58810589631E+01 -0.33806885485E+02 -0.85561587875E+02  0.92186103511E+02  0.00000000000E+00 0.  1.
          1    1    1    2  502    0 -0.28136928943E+02  0.12435515829E+02 -0.11275180665E+04  0.11279376398E+04  0.00000000000E+00 0. -1.
         22    1    1    2    0    0  0.13063618770E+02  0.33332809641E+02 -0.72304739931E+02  0.80682772327E+02  0.00000000000E+00 0.  1.
         22    1    1    2    0    0  0.91922512099E+01 -0.11961439985E+02  0.49767432570E+02  0.52003565969E+02  0.00000000000E+00 0.  1.
</event>
<event>
 6    1  0.3624778E-005  0.1174707E+03  0.7818608E-02  0.1284192E+00
          2   -1    0    0  502    0  0.00000000000E+00  0.00000000000E+00  0.14596796800E+03  0.14596796800E+03  0.00000000000E+00 0. -1.
          1   -1    0    0  501    0 -0.00000000000E+00 -0.00000000000E+00 -0.53255343737E+03  0.53255343737E+03  0.00000000000E+00 0.  1.
          2    1    1    2  501    0  0.28919714377E+02  0.80801877460E+01 -0.19558996591E+02  0.35835647912E+02  0.00000000000E+00 0. -1.
          1    1    1    2  502    0 -0.73979942963E+01 -0.38375343031E+02 -0.47355729256E+03  0.47516724067E+03  0.00000000000E+00 0.  1.
         22    1    1    2    0    0  0.27742296692E+02  0.35997237891E+02  0.10876204430E+03  0.11787543613E+03  0.00000000000E+00 0. -1.
         22    1    1    2    0    0 -0.49264016772E+02 -0.57020826059E+01 -0.22312245295E+01  0.49643080661E+02  0.00000000000E+00 0. -1.
</event>
<event>
 6    1  0.3624778E-005  0.5362679E+02  0.7818608E-02  0.1448718E+00
          2   -1    0    0  502    0  0.00000000000E+00  0.00000000000E+00  0.10171219553E+03  0.10171219553E+03  0.00000000000E+00 0.  1.
          1   -1    0    0  501    0 -0.00000000000E+00 -0.00000000000E+00 -0.70071667619E+03  0.70071667619E+03  0.00000000000E+00 0.  1.
          2    1    1    2  501    0  0.25082659004E+02 -0.10190412051E+02 -0.22991484190E+02  0.35518905188E+02  0.00000000000E+00 0.  1.
          1    1    1    2  502    0 -0.43671386643E+02  0.74849269483E+01 -0.62898184277E+03  0.63054054007E+03  0.00000000000E+00 0.  1.
         22    1    1    2    0    0  0.56938774474E+02  0.66364504622E+01 -0.14079761535E+02  0.59028011980E+02  0.00000000000E+00 0.  1.
         22    1    1    2    0    0 -0.38350046836E+02 -0.39309653595E+01  0.67048607834E+02  0.77341414478E+02  0.00000000000E+00 0.  1.
</event>
<event>
 6    1  0.3624778E-005  0.9564056E+02  0.7818608E-02  0.1336028E+00
          2   -1    0    0  502    0  0.00000000000E+00  0.00000000000E+00  0.11577740035E+03  0.11577740035E+03  0.00000000000E+00 0.  1.
          1   -1    0    0  501    0 -0.00000000000E+00 -0.00000000000E+00 -0.14090480166E+04  0.14090480166E+04  0.00000000000E+00 0.  1.
          2    1    1    2  501    0  0.42360913072E+02  0.31515588019E+02 -0.80353202925E+02  0.96147368475E+02  0.00000000000E+00 0.  1.
          1    1    1    2  502    0 -0.58152628223E+02 -0.41142741623E+02 -0.12800574188E+04  0.12820380060E+04  0.00000000000E+00 0.  1.
         22    1    1    2    0    0  0.35056752839E+02 -0.22082065188E+02  0.92732222263E+02  0.10156701516E+03  0.00000000000E+00 0.  1.
         22    1    1    2    0    0 -0.19265037688E+02  0.31709218792E+02 -0.25592216822E+02  0.45073027360E+02  0.00000000000E+00 0. -1.
</event>
<event>
 6    1  0.3624778E-005  0.6560747E+02  0.7818608E-02  0.1449789E+00
          2   -1    0    0  502    0  0.00000000000E+00  0.00000000000E+00  0.75678679458E+02  0.75678679458E+02  0.00000000000E+00 0.  1.
          1   -1    0    0  501    0 -0.00000000000E+00 -0.00000000000E+00 -0.32324400959E+03  0.32324400959E+03  0.00000000000E+00 0.  1.
          2    1    1    2  501    0 -0.20206557644E+02  0.40010750840E+02 -0.16967745391E+03  0.17549815817E+03  0.00000000000E+00 0.  1.
          1    1    1    2  502    0  0.33687400196E+02 -0.49957865077E+02 -0.80657864113E+02  0.10067929409E+03  0.00000000000E+00 0.  1.
         22    1    1    2    0    0 -0.13917305566E+02 -0.10771744814E+02 -0.56910290928E+02  0.59569313359E+02  0.00000000000E+00 0. -1.
         22    1    1    2    0    0  0.43646301396E+00  0.20718859051E+02  0.59680278825E+02  0.63175923427E+02  0.00000000000E+00 0.  1.
</event>
<event>
 6    1  0.3624778E-005  0.4325143E+02  0.7818608E-02  0.1501380E+00
          2   -1    0    0  502    0  0.00000000000E+00  0.00000000000E+00  0.24306538283E+03  0.24306538283E+03  0.00000000000E+00 0. -1.
          1   -1    0    0  501    0 -0.00000000000E+00 -0.00000000000E+00 -0.52801974363E+02  0.52801974363E+02  0.00000000000E+00 0. -1.
          2    1    1    2  501    0  0.24876149686E+02  0.51937463912E+01 -0.17478388585E+02  0.30843020155E+02  0.00000000000E+00 0. -1.
          1    1    1    2  502    0 -0.22812182567E+02 -0.96357394349E+01  0.24391710196E+01  0.24883583005E+02  0.00000000000E+00 0. -1.
         22    1    1    2    0    0 -0.28051471242E+02  0.19705551635E+02  0.20712929610E+03  0.20994699119E+03  0.00000000000E+00 0. -1.
         22    1    1    2    0    0  0.25987504123E+02 -0.15263558592E+02 -0.18266700672E+01  0.30193762849E+02  0.00000000000E+00 0.  1.
</event>
<event>
 6    1  0.3624778E-005  0.6743179E+02  0.7818608E-02  0.1492086E+00
          2   -1    0    0  502    0  0.00000000000E+00  0.00000000000E+00  0.39523661702E+02  0.39523661702E+02  0.00000000000E+00 0. -1.
          1   -1    0    0  501    0 -0.00000000000E+00 -0.00000000000E+00 -0.20438101085E+04  0.20438101085E+04  0.00000000000E+00 0. -1.
          2    1    1    2  501    0  0.46663899439E+02  0.97463594472E+01 -0.20384633864E+03  0.20934622235E+03  0.00000000000E+00 0. -1.
          1    1    1    2  502    0 -0.64005903359E+02  0.98331216270E+00 -0.17269921226E+04  0.17281780909E+04  0.00000000000E+00 0. -1.
         22    1    1    2    0    0 -0.98243216041E+01 -0.34728612829E+01  0.33574687682E+02  0.35154483547E+02  0.00000000000E+00 0. -1.
         22    1    1    2    0    0  0.27166325525E+02 -0.72568103270E+01 -0.10702267326E+03  0.11065497337E+03  0.00000000000E+00 0. -1.
</event>
<event>
 6    1  0.3624778E-005  0.2174116E+03  0.7818608E-02  0.1193372E+00
          2   -1    0    0  502    0  0.00000000000E+00  0.00000000000E+00  0.23447556868E+03  0.23447556868E+03  0.00000000000E+00 0. -1.
          1   -1    0    0  501    0 -0.00000000000E+00 -0.00000000000E+00 -0.67206465932E+03  0.67206465932E+03  0.00000000000E+00 0.  1.
          2    1    1    2  501    0 -0.86843649231E+02  0.10869066850E+03  0.60525985927E+02  0.15171972780E+03  0.00000000000E+00 0. -1.
          1    1    1    2  502    0  0.18460522787E+03 -0.71640474217E+02 -0.55122654388E+03  0.58571507611E+03  0.00000000000E+00 0.  1.
         22    1    1    2    0    0 -0.33002022754E+02 -0.47116517802E+02 -0.28694951634E+02  0.64284523837E+02  0.00000000000E+00 0. -1.
         22    1    1    2    0    0 -0.64759555886E+02  0.10066323523E+02  0.81806418948E+02  0.10482090025E+03  0.00000000000E+00 0.  1.
</event>
<event>
 6    1  0.3624778E-005  0.9020295E+02  0.7818608E-02  0.1345185E+00
          2   -1    0    0  502    0  0.00000000000E+00  0.00000000000E+00  0.15402685510E+02  0.15402685510E+02  0.00000000000E+00 0. -1.
          1   -1    0    0  501    0 -0.00000000000E+00 -0.00000000000E+00 -0.15145851092E+04  0.15145851092E+04  0.00000000000E+00 0. -1.
          2    1    1    2  501    0 -0.24249777297E+02  0.85796579564E+01 -0.91538744149E+03  0.91574878120E+03  0.00000000000E+00 0. -1.
          1    1    1    2  502    0  0.42187253277E+02 -0.22891287725E+01 -0.32778763420E+03  0.33049922479E+03  0.00000000000E+00 0. -1.
         22    1    1    2    0    0 -0.29020796763E+02  0.30563774489E+02 -0.23875820293E+02  0.48439712535E+02  0.00000000000E+00 0. -1.
         22    1    1    2    0    0  0.11083320784E+02 -0.36854303673E+02 -0.23213152766E+03  0.23530007615E+03  0.00000000000E+00 0.  1.
</event>
<event>
 6    1  0.3624778E-005  0.2055391E+03  0.7818608E-02  0.1240229E+00
          2   -1    0    0  502    0  0.00000000000E+00  0.00000000000E+00  0.17120287498E+03  0.17120287498E+03  0.00000000000E+00 0.  1.
          1   -1    0    0  501    0 -0.00000000000E+00 -0.00000000000E+00 -0.16156584909E+04  0.16156584909E+04  0.00000000000E+00 0. -1.
          2    1    1    2  501    0 -0.24808985290E+02  0.10659984118E+03  0.50372956109E+02  0.12048421721E+03  0.00000000000E+00 0.  1.
          1    1    1    2  502    0  0.77000507098E+02 -0.62586781591E+02 -0.15175621738E+04  0.15208027929E+04  0.00000000000E+00 0. -1.
         22    1    1    2    0    0 -0.23279197410E+02  0.99303967334E+01  0.65957772603E+02  0.70646737915E+02  0.00000000000E+00 0.  1.
         22    1    1    2    0    0 -0.28912324398E+02 -0.53943456320E+02 -0.43224170815E+02  0.74927617902E+02  0.00000000000E+00 0.  1.
</event>
<event>
 6    1  0.3624778E-005  0.9041243E+02  0.7818608E-02  0.1369896E+00
          2   -1    0    0  502    0  0.00000000000E+00  0.00000000000E+00  0.40306383242E+02  0.40306383242E+02  0.00000000000E+00 0. -1.
          1   -1    0    0  501    0 -0.00000000000E+00 -0.00000000000E+00 -0.71385287924E+03  0.71385287924E+03  0.00000000000E+00 0. -1.
          2    1    1    2  501    0  0.17077596542E+01  0.21019854099E+02 -0.48400955685E+03  0.48446878313E+03  0.00000000000E+00 0. -1.
          1    1    1    2  502    0  0.20521442679E+02 -0.84361553963E+01 -0.12444584146E+03  0.12640832957E+03  0.00000000000E+00 0. -1.
         22    1    1    2    0    0  0.15941848179E+02 -0.22303905833E+02  0.29828932531E+02  0.40513848925E+02  0.00000000000E+00 0. -1.
         22    1    1    2    0    0 -0.38171050513E+02  0.97202071302E+01 -0.94920030224E+02  0.10276830086E+03  0.00000000000E+00 0. -1.
</event>
<event>
 6    1  0.3624778E-005  0.8708639E+02  0.7818608E-02  0.1326577E+00
          2   -1    0    0  502    0  0.00000000000E+00  0.00000000000E+00  0.41877232544E+03  0.41877232544E+03  0.00000000000E+00 0. -1.
          1   -1    0    0  501    0 -0.00000000000E+00 -0.00000000000E+00 -0.55646697119E+02  0.55646697119E+02  0.00000000000E+00 0. -1.
          2    1    1    2  501    0  0.24771514381E+02  0.87028086237E+01  0.10810950690E+03  0.11125211137E+03  0.00000000000E+00 0. -1.
          1    1    1    2  502    0 -0.38508155856E+02  0.43503440879E+01 -0.30920011669E+02  0.49576715126E+02  0.00000000000E+00 0. -1.
         22    1    1    2    0    0 -0.19329012207E+02  0.49515410570E+02  0.81968941765E+02  0.97694902687E+02  0.00000000000E+00 0. -1.
         22    1    1    2    0    0  0.33065653682E+02 -0.62568563282E+02  0.20396719133E+03  0.21589529338E+03  0.00000000000E+00 0. -1.
</event>
<event>
 6    1  0.3624778E-005  0.4487640E+02  0.7818608E-02  0.1563144E+00
          2   -1    0    0  502    0  0.00000000000E+00  0.00000000000E+00  0.43361624175E+02  0.43361624175E+02  0.00000000000E+00 0. -1.
          1   -1    0    0  501    0 -0.00000000000E+00 -0.00000000000E+00 -0.43547898276E+03  0.43547898276E+03  0.00000000000E+00 0. -1.
          2    1    1    2  501    0 -0.72212223293E+00  0.23269304169E+02 -0.12834234885E+03  0.13043672982E+03  0.00000000000E+00 0. -1.
          1    1    1    2  502    0  0.66632619500E+01 -0.35769183671E+02 -0.21252872814E+03  0.21562071756E+03  0.00000000000E+00 0. -1.
         22    1    1    2    0    0 -0.17908744591E+02  0.19360670267E+02 -0.88874987025E+02  0.92705566201E+02  0.00000000000E+00 0. -1.
         22    1    1    2    0    0  0.11967604874E+02 -0.68607907646E+01  0.37628705429E+02  0.40077593349E+02  0.00000000000E+00 0. -1.
</event>
<event>
 6    1  0.3624778E-005  0.1402217E+03  0.7818608E-02  0.1340698E+00
          2   -1    0    0  502    0  0.00000000000E+00  0.00000000000E+00  0.32306953704E+02  0.32306953704E+02  0.00000000000E+00 0. -1.
          1   -1    0    0  501    0 -0.00000000000E+00 -0.00000000000E+00 -0.78089935891E+03  0.78089935891E+03  0.00000000000E+00 0. -1.
          2    1    1    2  501    0  0.14713626327E+02  0.81561172108E+02 -0.23742882542E+03  0.25147795676E+03  0.00000000000E+00 0. -1.
          1    1    1    2  502    0 -0.69848035441E+02 -0.52266812346E+02 -0.24906095763E+03  0.26389757169E+03  0.00000000000E+00 0. -1.
         22    1    1    2    0    0  0.45592923282E+02 -0.21816653205E+02 -0.27530547224E+03  0.27990674171E+03  0.00000000000E+00 0. -1.
         22    1    1    2    0    0  0.95414858312E+01 -0.74777065568E+01  0.13202850090E+02  0.17924042449E+02  0.00000000000E+00 0.  1.
</event>
<event>
 6    1  0.3624778E-005  0.1349153E+03  0.7818608E-02  0.1281566E+00
          2   -1    0    0  502    0  0.00000000000E+00  0.00000000000E+00  0.15326840425E+02  0.15326840425E+02  0.00000000000E+00 0. -1.
          1   -1    0    0  501    0 -0.00000000000E+00 -0.00000000000E+00 -0.30971572733E+04  0.30971572733E+04  0.00000000000E+00 0. -1.
          2    1    1    2  501    0 -0.17255821464E+02 -0.32191754286E+02 -0.24316335053E+03  0.24589121061E+03  0.00000000000E+00 0. -1.
          1    1    1    2  502    0  0.57190243175E+02  0.11990841426E+03 -0.23367573613E+04  0.23405306486E+04  0.00000000000E+00 0. -1.
         22    1    1    2    0    0 -0.39197731176E+02  0.66002813053E+01 -0.47362225196E+02  0.61832080817E+02  0.00000000000E+00 0. -1.
         22    1    1    2    0    0 -0.73669053541E+00 -0.94316941284E+02 -0.45454749585E+03  0.46423017363E+03  0.00000000000E+00 0. -1.
</event>
<event>
 6    1  0.3624778E-005  0.8312048E+02  0.7818608E-02  0.1396005E+00
          2   -1    0    0  502    0  0.00000000000E+00  0.00000000000E+00  0.27624676723E+03  0.27624676723E+03  0.00000000000E+00 0. -1.
          1   -1    0    0  501    0 -0.00000000000E+00 -0.00000000000E+00 -0.13421665836E+03  0.13421665836E+03  0.00000000000E+00 0. -1.
          2    1    1    2  501    0  0.87894596611E+01  0.35654280878E+02 -0.72549971686E+02  0.81314086957E+02  0.00000000000E+00 0. -1.
          1    1    1    2  502    0 -0.21896718253E+02 -0.54450831143E+02  0.18740553304E+03  0.19638022583E+03  0.00000000000E+00 0. -1.
         22    1    1    2    0    0  0.34944064861E+02  0.26728780115E+02 -0.41372397682E+02  0.60391975008E+02  0.00000000000E+00 0.  1.
         22    1    1    2    0    0 -0.21836806269E+02 -0.79322298501E+01  0.68546945205E+02  0.72377137795E+02  0.00000000000E+00 0. -1.
</event>
<event>
 6    1  0.3624778E-005  0.2694763E+03  0.7818608E-02  0.1155353E+00
          2   -1    0    0  502    0  0.00000000000E+00  0.00000000000E+00  0.53070349323E+03  0.53070349323E+03  0.00000000000E+00 0.  1.
          1   -1    0    0  501    0 -0.00000000000E+00 -0.00000000000E+00 -0.96921510069E+03  0.96921510069E+03  0.00000000000E+00 0. -1.
          2    1    1    2  501    0 -0.51864715386E+02 -0.39347570474E+02 -0.22648794132E+02  0.68928570854E+02  0.00000000000E+00 0.  1.
          1    1    1    2  502    0 -0.50431883856E+02 -0.36189239522E+02 -0.90686018053E+03  0.90898208068E+03  0.00000000000E+00 0. -1.
         22    1    1    2    0    0  0.72935727095E+02 -0.21014480898E+02  0.19315557483E+03  0.20753386418E+03  0.00000000000E+00 0.  1.
         22    1    1    2    0    0  0.29360872147E+02  0.96551290894E+02  0.29784179236E+03  0.31447407821E+03  0.00000000000E+00 0.  1.
</event>
<event>
 6    1  0.3624778E-005  0.1699986E+03  0.7818608E-02  0.1248686E+00
          2   -1    0    0  502    0  0.00000000000E+00  0.00000000000E+00  0.28131136884E+03  0.28131136884E+03  0.00000000000E+00 0.  1.
          1   -1    0    0  501    0 -0.00000000000E+00 -0.00000000000E+00 -0.25300017010E+04  0.25300017010E+04  0.00000000000E+00 0.  1.
          2    1    1    2  501    0 -0.96749886609E+02 -0.19773357233E+02 -0.73162279949E+01  0.99020469637E+02  0.00000000000E+00 0.  1.
          1    1    1    2  502    0  0.14168788820E+03  0.17020538500E+02 -0.24546090246E+04  0.24587538754E+04  0.00000000000E+00 0.  1.
         22    1    1    2    0    0 -0.82095742277E+02  0.92387920359E+01  0.79748823063E+02  0.11482569816E+03  0.00000000000E+00 0.  1.
         22    1    1    2    0    0  0.37157740687E+02 -0.64859733036E+01  0.13348609740E+03  0.13871302657E+03  0.00000000000E+00 0.  1.
</event>
<event>
 6    1  0.3624778E-005  0.1095409E+03  0.7818608E-02  0.1359899E+00
          2   -1    0    0  502    0  0.00000000000E+00  0.00000000000E+00  0.41351556212E+02  0.41351556212E+02  0.00000000000E+00 0. -1.
          1   -1    0    0  501    0 -0.00000000000E+00 -0.00000000000E+00 -0.12804361361E+04  0.12804361361E+04  0.00000000000E+00 0. -1.
          2    1    1    2  501    0 -0.54367046190E+01 -0.94043127191E+02 -0.64369857194E+03  0.65055477790E+03  0.00000000000E+00 0. -1.
          1    1    1    2  502    0  0.23231624129E+02  0.94146082760E+02 -0.50388830385E+03  0.51313411114E+03  0.00000000000E+00 0. -1.
         22    1    1    2    0    0 -0.13973317178E+02 -0.18026690526E+02 -0.12112921073E+03  0.12325786326E+03  0.00000000000E+00 0. -1.
         22    1    1    2    0    0 -0.38216023315E+01  0.17923734956E+02  0.29631506603E+02  0.34840940038E+02  0.00000000000E+00 0. -1.
</event>
<event>
 6    1  0.3624778E-005  0.1422469E+03  0.7818608E-02  0.1278248E+00
          2   -1    0    0  502    0  0.00000000000E+00  0.00000000000E+00  0.16262736294E+03  0.16262736294E+03  0.00000000000E+00 0.  1.
          1   -1    0    0  501    0 -0.00000000000E+00 -0.00000000000E+00 -0.75168527070E+03  0.75168527070E+03  0.00000000000E+00 0.  1.
          2    1    1    2  501    0 -0.64786230004E+02 -0.10613634409E+02 -0.86409188964E+02  0.10851936588E+03  0.00000000000E+00 0.  1.
          1    1    1    2  502    0  0.61091471777E+00  0.66104354195E+02 -0.61600648187E+03  0.61954349692E+03  0.00000000000E+00 0.  1.
         22    1    1    2    0    0  0.14274844812E+02 -0.33185615647E+02  0.12521297609E+03  0.13032016598E+03  0.00000000000E+00 0.  1.
         22    1    1    2    0    0  0.49900470474E+02 -0.22305104140E+02 -0.11855213012E+02  0.55929604860E+02  0.00000000000E+00 0.  1.
</event>
<event>
 6    1  0.3624778E-005  0.8176223E+02  0.7818608E-02  0.1366684E+00
          2   -1    0    0  502    0  0.00000000000E+00  0.00000000000E+00  0.86409559067E+02  0.86409559067E+02  0.00000000000E+00 0.  1.
          1   -1    0    0  501    0 -0.00000000000E+00 -0.00000000000E+00 -0.89964540955E+03  0.89964540955E+03  0.00000000000E+00 0.  1.
          2    1    1    2  501    0 -0.38386191148E+02  0.65891750587E+02 -0.46699775085E+03  0.47318296859E+03  0.00000000000E+00 0.  1.
          1    1    1    2  502    0  0.12062074003E+02 -0.68794828783E+02 -0.37480865515E+03  0.38126073765E+03  0.00000000000E+00 0.  1.
         22    1    1    2    0    0 -0.12684823720E+02  0.80219090096E+01 -0.45406586732E+02  0.47822734088E+02  0.00000000000E+00 0. -1.
         22    1    1    2    0    0  0.39008940864E+02 -0.51188308134E+01  0.73977142254E+02  0.83788528286E+02  0.00000000000E+00 0.  1.
</event>
<event>
 6    1  0.3624778E-005  0.7022773E+02  0.7818608E-02  0.1369857E+00
          2   -1    0    0  502    0  0.00000000000E+00  0.00000000000E+00  0.65312198403E+03  0.65312198403E+03  0.00000000000E+00 0. -1.
          1   -1    0    0  501    0 -0.00000000000E+00 -0.00000000000E+00 -0.51437665390E+03  0.51437665390E+03  0.00000000000E+00 0.  1.
          2    1    1    2  501    0 -0.26656576683E+02  0.28737528779E+02  0.92533271898E+02  0.10049291044E+03  0.00000000000E+00 0. -1.
          1    1    1    2  502    0  0.22660425864E+02 -0.59520971145E+02 -0.50070570785E+03  0.50473997937E+03  0.00000000000E+00 0.  1.
         22    1    1    2    0    0  0.55936668492E+02 -0.18455495498E+02  0.24854723101E+03  0.25543148247E+03  0.00000000000E+00 0.  1.
         22    1    1    2    0    0 -0.51940517672E+02  0.49238937865E+02  0.29837053507E+03  0.30683426565E+03  0.00000000000E+00 0. -1.
</event>
<event>
 6    1  0.3624778E-005  0.6308900E+02  0.7818608E-02  0.1398568E+00
          2   -1    0    0  502    0  0.00000000000E+00  0.00000000000E+00  0.16269578455E+03  0.16269578455E+03  0.00000000000E+00 0. -1.
          1   -1    0    0  501    0 -0.00000000000E+00 -0.00000000000E+00 -0.32375158871E+03  0.32375158871E+03  0.00000000000E+00 0. -1.
          2    1    1    2  501    0  0.33729681087E+02 -0.25169068323E+02  0.18921168129E+02  0.46143081712E+02  0.00000000000E+00 0. -1.
          1    1    1    2  502    0 -0.78271654934E+01  0.25574608207E+02 -0.27999263908E+03  0.28126713822E+03  0.00000000000E+00 0. -1.
         22    1    1    2    0    0 -0.46736223948E+02  0.15332844292E+02  0.11765785723E+03  0.12752545671E+03  0.00000000000E+00 0. -1.
         22    1    1    2    0    0  0.20833708354E+02 -0.15738384176E+02 -0.17642190431E+02  0.31511696613E+02  0.00000000000E+00 0. -1.
</event>
<event>
 6    1  0.3624778E-005  0.8033483E+02  0.7818608E-02  0.1359498E+00
          2   -1    0    0  502    0  0.00000000000E+00  0.00000000000E+00  0.14931026789E+03  0.14931026789E+03  0.00000000000E+00 0. -1.
          1   -1    0    0  501    0 -0.00000000000E+00 -0.00000000000E+00 -0.29078468885E+03  0.29078468885E+03  0.00000000000E+00 0. -1.
          2    1    1    2  501    0  0.89711496246E-01 -0.53998580644E+02 -0.51699306080E+02  0.74757427784E+02  0.00000000000E+00 0. -1.
          1    1    1    2  502    0  0.36300081509E+02  0.52598628670E+02 -0.18917853346E+03  0.19968181985E+03  0.00000000000E+00 0. -1.
         22    1    1    2    0    0 -0.21413063788E+02 -0.42913817800E+02 -0.78946244183E+01  0.48604939601E+02  0.00000000000E+00 0. -1.
         22    1    1    2    0    0 -0.14976729217E+02  0.44313769774E+02  0.10729804300E+03  0.11705076950E+03  0.00000000000E+00 0. -1.
</event>
<event>
 6    1  0.3624778E-005  0.2071593E+03  0.7818608E-02  0.1209208E+00
          2   -1    0    0  502    0  0.00000000000E+00  0.00000000000E+00  0.68845439905E+03  0.68845439905E+03  0.00000000000E+00 0. -1.
          1   -1    0    0  501    0 -0.00000000000E+00 -0.00000000000E+00 -0.14386296037E+04  0.14386296037E+04  0.00000000000E+00 0. -1.
          2    1    1    2  501    0  0.18606997241E+02 -0.42324956383E+02 -0.59714006474E+01  0.46618450262E+02  0.00000000000E+00 0. -1.
          1    1    1    2  502    0  0.29796991601E+02  0.58352465817E+02 -0.14044027007E+04  0.14059302318E+04  0.00000000000E+00 0. -1.
         22    1    1    2    0    0  0.18711680783E+02  0.43307405193E+02  0.27828944842E+03  0.28225994304E+03  0.00000000000E+00 0. -1.
         22    1    1    2    0    0 -0.67115669625E+02 -0.59334914628E+02  0.38190944829E+03  0.39227537764E+03  0.00000000000E+00 0. -1.
</event>
<event>
 6    1  0.3624778E-005  0.4655277E+02  0.7818608E-02  0.1469894E+00
          2   -1    0    0  502    0  0.00000000000E+00  0.00000000000E+00  0.59743680892E+02  0.59743680892E+02  0.00000000000E+00 0. -1.
          1   -1    0    0  501    0 -0.00000000000E+00 -0.00000000000E+00 -0.48387574516E+03  0.48387574516E+03  0.00000000000E+00 0.  1.
          2    1    1    2  501    0  0.60802898939E+01  0.24669969259E+02 -0.14351811126E+03  0.14574987331E+03  0.00000000000E+00 0. -1.
          1    1    1    2  502    0 -0.41963482932E+02 -0.29371099028E+02 -0.25625727562E+03  0.26132620739E+03  0.00000000000E+00 0.  1.
         22    1    1    2    0    0  0.46855673448E+02 -0.11571747403E+02  0.44070420747E+02  0.65357183668E+02  0.00000000000E+00 0. -1.
         22    1    1    2    0    0 -0.10972480409E+02  0.16272877171E+02 -0.68427098130E+02  0.71186161690E+02  0.00000000000E+00 0. -1.
</event>
<event>
 6    1  0.3624778E-005  0.1651840E+03  0.7818608E-02  0.1306707E+00
          2   -1    0    0  502    0  0.00000000000E+00  0.00000000000E+00  0.14929066232E+03  0.14929066232E+03  0.00000000000E+00 0.  1.
          1   -1    0    0  501    0 -0.00000000000E+00 -0.00000000000E+00 -0.32274885611E+03  0.32274885611E+03  0.00000000000E+00 0.  1.
          2    1    1    2  501    0 -0.83209671500E+02  0.48114279832E+02 -0.56092579738E+01  0.96282382240E+02  0.00000000000E+00 0.  1.
          1    1    1    2  502    0  0.13868637004E+03 -0.69889118233E+02 -0.18075944481E+03  0.23831150826E+03  0.00000000000E+00 0.  1.
         22    1    1    2    0    0  0.19951156376E+01  0.13417855979E+02  0.60723181671E+02  0.62219965748E+02  0.00000000000E+00 0. -1.
         22    1    1    2    0    0 -0.57471814181E+02  0.83569824218E+01 -0.47812672676E+02  0.75225662170E+02  0.00000000000E+00 0.  1.
</event>
<event>
 6    1  0.3624778E-005  0.9238893E+02  0.7818608E-02  0.1399103E+00
          2   -1    0    0  502    0  0.00000000000E+00  0.00000000000E+00  0.96954349841E+02  0.96954349841E+02  0.00000000000E+00 0. -1.
          1   -1    0    0  501    0 -0.00000000000E+00 -0.00000000000E+00 -0.69141913913E+03  0.69141913913E+03  0.00000000000E+00 0. -1.
          2    1    1    2  501    0 -0.29057999034E+02 -0.24188169778E+02 -0.60895085667E+03  0.61012341432E+03  0.00000000000E+00 0. -1.
          1    1    1    2  502    0  0.26536030289E+02  0.30414047485E+02 -0.23605381162E+02  0.46758840958E+02  0.00000000000E+00 0. -1.
         22    1    1    2    0    0  0.39947912235E+01 -0.22264227644E+02 -0.43122859180E+02  0.48695330099E+02  0.00000000000E+00 0. -1.
         22    1    1    2    0    0 -0.14728224781E+01  0.16038349937E+02  0.81214307716E+02  0.82795903598E+02  0.00000000000E+00 0. -1.
</event>
<event>
 6    1  0.3624778E-005  0.8084693E+02  0.7818608E-02  0.1436797E+00
          2   -1    0    0  502    0  0.00000000000E+00  0.00000000000E+00  0.68725819937E+02  0.68725819937E+02  0.00000000000E+00 0. -1.
          1   -1    0    0  501    0 -0.00000000000E+00 -0.00000000000E+00 -0.80534405145E+03  0.80534405145E+03  0.00000000000E+00 0. -1.
          2    1    1    2  501    0 -0.31446003937E+02  0.56401684977E+02 -0.24804014314E+03  0.25630823990E+03  0.00000000000E+00 0. -1.
          1    1    1    2  502    0  0.34844133250E+02 -0.72977632120E+02 -0.48943481234E+03  0.49607084569E+03  0.00000000000E+00 0. -1.
         22    1    1    2    0    0 -0.12442549463E+02  0.66402397599E+01 -0.58836975842E+02  0.60503715154E+02  0.00000000000E+00 0. -1.
         22    1    1    2    0    0  0.90444201495E+01  0.99357073827E+01  0.59693699810E+02  0.61187070644E+02  0.00000000000E+00 0. -1.
</event>
<event>
 6    1  0.3624778E-005  0.5740860E+02  0.7818608E-02  0.1422782E+00
          2   -1    0    0  502    0  0.00000000000E+00  0.00000000000E+00  0.20673313761E+03  0.20673313761E+03  0.00000000000E+00 0. -1.
          1   -1    0    0  501    0 -0.00000000000E+00 -0.00000000000E+00 -0.13408311733E+04  0.13408311733E+04  0.00000000000E+00 0.  1.
          2    1    1    2  501    0  0.72115204131E+02 -0.99102860617E+01 -0.20991842454E+02  0.75759315509E+02  0.00000000000E+00 0. -1.
          1    1    1    2  502    0 -0.37396325773E+02  0.17259128740E+02 -0.12695049969E+04  0.12701729410E+04  0.00000000000E+00 0.  1.
         22    1    1    2    0    0 -0.44481995417E+02  0.55634868146E+01  0.17284016418E+03  0.17855901729E+03  0.00000000000E+00 0. -1.
         22    1    1    2    0    0  0.97631170587E+01 -0.12912329493E+02 -0.16441360438E+02  0.23073037093E+02  0.00000000000E+00 0. -1.
</event>
<event>
 6    1  0.3624778E-005  0.1145234E+03  0.7818608E-02  0.1272885E+00
          2   -1    0    0  502    0  0.00000000000E+00  0.00000000000E+00  0.31584946560E+03  0.31584946560E+03  0.00000000000E+00 0. -1.
          1   -1    0    0  501    0 -0.00000000000E+00 -0.00000000000E+00 -0.12435000960E+04  0.12435000960E+04  0.00000000000E+00 0.  1.
          2    1    1    2  501    0 -0.74951896007E+02  0.11276925686E+03  0.71722347985E+01  0.13559547544E+03  0.00000000000E+00 0. -1.
          1    1    1    2  502    0  0.54905293280E+02 -0.35289702991E+02 -0.11555003087E+04  0.11573421783E+04  0.00000000000E+00 0.  1.
         22    1    1    2    0    0  0.35110729910E+02 -0.64002797386E+02  0.23202070021E+03  0.24323389310E+03  0.00000000000E+00 0. -1.
         22    1    1    2    0    0 -0.15064127183E+02 -0.13476756484E+02 -0.11343256707E+02  0.23178014709E+02  0.00000000000E+00 0. -1.
</event>
<event>
 6    1  0.3624778E-005  0.1371286E+03  0.7818608E-02  0.1271376E+00
          2   -1    0    0  502    0  0.00000000000E+00  0.00000000000E+00  0.67291931107E+03  0.67291931107E+03  0.00000000000E+00 0. -1.
          1   -1    0    0  501    0 -0.00000000000E+00 -0.00000000000E+00 -0.63650620551E+02  0.63650620551E+02  0.00000000000E+00 0. -1.
          2    1    1    2  501    0 -0.43281104587E+02  0.31556708354E+02  0.22006415849E+02  0.57908222170E+02  0.00000000000E+00 0. -1.
          1    1    1    2  502    0  0.88691692749E+02 -0.36984046995E+02  0.51532330132E+03  0.52420620082E+03  0.00000000000E+00 0. -1.
         22    1    1    2    0    0 -0.90440907128E+02 -0.40074591486E+01  0.44349255350E+02  0.10080909612E+03  0.00000000000E+00 0. -1.
         22    1    1    2    0    0  0.45030318966E+02  0.94347977897E+01  0.27589717998E+02  0.53646412506E+02  0.00000000000E+00 0. -1.
</event>
<event>
 6    1  0.3624778E-005  0.9775794E+02  0.7818608E-02  0.1295190E+00
          2   -1    0    0  502    0  0.00000000000E+00  0.00000000000E+00  0.75993466578E+02  0.75993466578E+02  0.00000000000E+00 0.  1.
          1   -1    0    0  501    0 -0.00000000000E+00 -0.00000000000E+00 -0.12758917395E+04  0.12758917395E+04  0.00000000000E+00 0. -1.
          2    1    1    2  501    0  0.13398445706E+02  0.54518612030E+02 -0.15203167129E+02  0.58162992493E+02  0.00000000000E+00 0.  1.
          1    1    1    2  502    0 -0.68033872677E+01 -0.29843221982E+02 -0.11672843728E+04  0.11676856216E+04  0.00000000000E+00 0. -1.
         22    1    1    2    0    0 -0.55667409989E+02 -0.42430073746E+02 -0.22701764434E+02  0.73583570186E+02  0.00000000000E+00 0. -1.
         22    1    1    2    0    0  0.49072351551E+02  0.17754683698E+02  0.52910314326E+01  0.52453021777E+02  0.00000000000E+00 0.  1.
</event>
<event>
 6    1  0.3624778E-005  0.1223382E+03  0.7818608E-02  0.1302750E+00
          2   -1    0    0  502    0  0.00000000000E+00  0.00000000000E+00  0.23095263784E+02  0.23095263784E+02  0.00000000000E+00 0. -1.
          1   -1    0    0  501    0 -0.00000000000E+00 -0.00000000000E+00 -0.11531058899E+04  0.11531058899E+04  0.00000000000E+00 0.  1.
          2    1    1    2  501    0  0.12605137724E+02  0.19714737139E+02 -0.30837643857E+02  0.38710730246E+02  0.00000000000E+00 0. -1.
          1    1    1    2  502    0 -0.10356881133E+02  0.65397154859E+02 -0.80663852609E+03  0.80935144692E+03  0.00000000000E+00 0.  1.
         22    1    1    2    0    0  0.32792792231E+02  0.14608905084E+02 -0.36743790739E+02  0.51370161455E+02  0.00000000000E+00 0. -1.
         22    1    1    2    0    0 -0.35041048822E+02 -0.99720797081E+02 -0.25579066542E+03  0.27676881505E+03  0.00000000000E+00 0. -1.
</event>
<event>
 6    1  0.3624778E-005  0.1793619E+03  0.7818608E-02  0.1265572E+00
          2   -1    0    0  502    0  0.00000000000E+00  0.00000000000E+00  0.33650580341E+03  0.33650580341E+03  0.00000000000E+00 0.  1.
          1   -1    0    0  501    0 -0.00000000000E+00 -0.00000000000E+00 -0.11272994791E+03  0.11272994791E+03  0.00000000000E+00 0. -1.
          2    1    1    2  501    0 -0.30712587087E+02 -0.42591952611E+02  0.15072948890E+02  0.54630863265E+02  0.00000000000E+00 0.  1.
          1    1    1    2  502    0  0.15147881149E+03  0.51583726760E+02  0.83849690636E+02  0.18065846733E+03  0.00000000000E+00 0. -1.
         22    1    1    2    0    0 -0.12603119544E+03  0.13406559103E+02  0.51045445722E+02  0.13663541115E+03  0.00000000000E+00 0. -1.
         22    1    1    2    0    0  0.52649710318E+01 -0.22398333252E+02  0.73807770250E+02  0.77311009576E+02  0.00000000000E+00 0. -1.
</event>
<event>
 6    1  0.3624778E-005  0.1173787E+03  0.7818608E-02  0.1333143E+00
          2   -1    0    0  502    0  0.00000000000E+00  0.00000000000E+00  0.19070437482E+03  0.19070437482E+03  0.00000000000E+00 0.  1.
          1   -1    0    0  501    0 -0.00000000000E+00 -0.00000000000E+00 -0.19630575862E+03  0.19630575862E+03  0.00000000000E+00 0.  1.
          2    1    1    2  501    0 -0.83319699008E+02 -0.57566255376E+02 -0.60717860820E+02  0.11807923028E+03  0.00000000000E+00 0.  1.
          1    1    1    2  502    0  0.82913970387E+02  0.54045289646E+02 -0.44365685664E+02  0.10846167011E+03  0.00000000000E+00 0.  1.
         22    1    1    2    0    0  0.27985703037E+01 -0.19928499956E+02 -0.25951601431E+02  0.32839956198E+02  0.00000000000E+00 0. -1.
         22    1    1    2    0    0 -0.23928416821E+01  0.23449465686E+02  0.12543376412E+03  0.12762927686E+03  0.00000000000E+00 0.  1.
</event>
<event>
 6    1  0.3624778E-005  0.7760180E+02  0.7818608E-02  0.1363927E+00
          2   -1    0    0  502    0  0.00000000000E+00  0.00000000000E+00  0.46525455280E+03  0.46525455280E+03  0.00000000000E+00 0.  1.
          1   -1    0    0  501    0 -0.00000000000E+00 -0.00000000000E+00 -0.13210863044E+03  0.13210863044E+03  0.00000000000E+00 0. -1.
          2    1    1    2  501    0 -0.33849939447E+02 -0.69234283827E+01  0.74096900761E+02  0.81756363444E+02  0.00000000000E+00 0.  1.
          1    1    1    2  502    0  0.68627001115E+02 -0.17450446945E+02 -0.10570823915E+03  0.12723370310E+03  0.00000000000E+00 0. -1.
         22    1    1    2    0    0  0.40749018950E+02  0.25708640242E+02  0.76711189119E+02  0.90587103191E+02  0.00000000000E+00 0. -1.
         22    1    1    2    0    0 -0.75526080618E+02 -0.13347649145E+01  0.28804607163E+03  0.29778601349E+03  0.00000000000E+00 0.  1.
</event>
<event>
 6    1  0.3624778E-005  0.9055681E+02  0.7818608E-02  0.1372610E+00
          2   -1    0    0  502    0  0.00000000000E+00  0.00000000000E+00  0.52685637749E+02  0.52685637749E+02  0.00000000000E+00 0.  1.
          1   -1    0    0  501    0 -0.00000000000E+00 -0.00000000000E+00 -0.70332640674E+03  0.70332640674E+03  0.00000000000E+00 0. -1.
          2    1    1    2  501    0  0.23476941596E+02 -0.21074828312E+02 -0.33812746324E+02  0.46245183415E+02  0.00000000000E+00 0.  1.
          1    1    1    2  502    0 -0.40710916601E+02 -0.33874288259E+01 -0.57508896362E+03  0.57653809023E+03  0.00000000000E+00 0. -1.
         22    1    1    2    0    0  0.43168599577E+02  0.28521935633E+02  0.27916627707E+02  0.58790874328E+02  0.00000000000E+00 0.  1.
         22    1    1    2    0    0 -0.25934624571E+02 -0.40596784957E+01 -0.69655686753E+02  0.74437896519E+02  0.00000000000E+00 0. -1.
</event>
<event>
 6    1  0.3624778E-005  0.5810688E+02  0.7818608E-02  0.1448921E+00
          2   -1    0    0  502    0  0.00000000000E+00  0.00000000000E+00  0.39493986205E+02  0.39493986205E+02  0.00000000000E+00 0.  1.
          1   -1    0    0  501    0 -0.00000000000E+00 -0.00000000000E+00 -0.36238464229E+03  0.36238464229E+03  0.00000000000E+00 0.  1.
          2    1    1    2  501    0  0.11629758328E+02  0.25513199369E+02 -0.89384607485E+01  0.29429079180E+02  0.00000000000E+00 0.  1.
          1    1    1    2  502    0 -0.21133118719E+02 -0.46245112769E+02 -0.19231102142E+03  0.19891894863E+03  0.00000000000E+00 0.  1.
         22    1    1    2    0    0  0.39649709747E+02  0.22741528266E+02  0.24890555387E+01  0.45776325632E+02  0.00000000000E+00 0.  1.
         22    1    1    2    0    0 -0.30146349356E+02 -0.20096148660E+01 -0.12413022945E+03  0.12775427506E+03  0.00000000000E+00 0.  1.
</event>
<event>
 6    1  0.3624778E-005  0.2557800E+03  0.7818608E-02  0.1235524E+00
          2   -1    0    0  502    0  0.00000000000E+00  0.00000000000E+00  0.15361369534E+03  0.15361369534E+03  0.00000000000E+00 0.  1.
          1   -1    0    0  501    0 -0.00000000000E+00 -0.00000000000E+00 -0.85019592704E+03  0.85019592704E+03  0.00000000000E+00 0. -1.
          2    1    1    2  501    0  0.12689470100E+03 -0.67461634578E+02 -0.20904496766E+02  0.14522511927E+03  0.00000000000E+00 0.  1.
          1    1    1    2  502    0 -0.21716271745E+03  0.21496591818E+02 -0.66313983140E+03  0.69812333101E+03  0.00000000000E+00 0. -1.
         22    1    1    2    0    0 -0.14487275168E+01 -0.14381418555E+02  0.37216046875E+02  0.39924405520E+02  0.00000000000E+00 0. -1.
         22    1    1    2    0    0  0.91716743962E+02  0.60346461316E+02 -0.49753950415E+02  0.12053676658E+03  0.00000000000E+00 0.  1.
</event>
<event>
 6    1  0.3624778E-005  0.3734467E+03  0.7818608E-02  0.1173106E+00
          2   -1    0    0  502    0  0.00000000000E+00  0.00000000000E+00  0.11190980817E+03  0.11190980817E+03  0.00000000000E+00 0. -1.
          1   -1    0    0  501    0 -0.00000000000E+00 -0.00000000000E+00 -0.12601968019E+04  0.12601968019E+04  0.00000000000E+00 0. -1.
          2    1    1    2  501    0  0.14339333069E+03  0.77873175453E+02 -0.20889511254E+03  0.26507177666E+03  0.00000000000E+00 0. -1.
          1    1    1    2  502    0  0.52755125085E+01 -0.18269110647E+03 -0.84997743236E+03  0.86940526047E+03  0.00000000000E+00 0. -1.
         22    1    1    2    0    0 -0.16600763661E+03  0.10055387429E+03 -0.98438911705E+02  0.21762315222E+03  0.00000000000E+00 0. -1.
         22    1    1    2    0    0  0.17338793409E+02  0.42640567294E+01  0.90244629155E+01  0.20006420659E+02  0.00000000000E+00 0.  1.
</event>
<event>
 6    1  0.3624778E-005  0.5747415E+02  0.7818608E-02  0.1525377E+00
          2   -1    0    0  502    0  0.00000000000E+00  0.00000000000E+00  0.40067879269E+02  0.40067879269E+02  0.00000000000E+00 0. -1.
          1   -1    0    0  501    0 -0.00000000000E+00 -0.00000000000E+00 -0.75962079420E+03  0.75962079420E+03  0.00000000000E+00 0. -1.
          2    1    1    2  501    0 -0.46364305225E+01  0.31970129875E+02 -0.10971306581E+03  0.11437019936E+03  0.00000000000E+00 0. -1.
          1    1    1    2  502    0 -0.60192737320E+01 -0.21606779880E+02 -0.54618213207E+03  0.54664248462E+03  0.00000000000E+00 0. -1.
         22    1    1    2    0    0  0.20230122270E+02 -0.15157357670E+02 -0.98777192139E+02  0.10196046795E+03  0.00000000000E+00 0.  1.
         22    1    1    2    0    0 -0.95744180159E+01  0.47940076740E+01  0.35119475099E+02  0.36715521529E+02  0.00000000000E+00 0. -1.
</event>
<event>
 6    1  0.3624778E-005  0.1187919E+03  0.7818608E-02  0.1264605E+00
          2   -1    0    0  502    0  0.00000000000E+00  0.00000000000E+00  0.57770565605E+03  0.57770565605E+03  0.00000000000E+00 0. -1.
          1   -1    0    0  501    0 -0.00000000000E+00 -0.00000000000E+00 -0.92748698176E+02  0.92748698176E+02  0.00000000000E+00 0. -1.
          2    1    1    2  501    0 -0.89272919505E+02  0.13961166166E+02  0.28766053152E+02  0.94826442154E+02  0.00000000000E+00 0. -1.
          1    1    1    2  502    0  0.10194382603E+03 -0.99894532928E+02  0.69574634418E+02  0.15878315757E+03  0.00000000000E+00 0. -1.
         22    1    1    2    0    0  0.67902999772E+01  0.80420303294E+02  0.38825212178E+03  0.39655169073E+03  0.00000000000E+00 0.  1.
         22    1    1    2    0    0 -0.19461206502E+02  0.55130634684E+01 -0.16358514689E+01  0.20293063774E+02  0.00000000000E+00 0.  1.
</event>
<event>
 6    1  0.3624778E-005  0.1747394E+03  0.7818608E-02  0.1175744E+00
          2   -1    0    0  502    0  0.00000000000E+00  0.00000000000E+00  0.74985554794E+03  0.74985554794E+03  0.00000000000E+00 0.  1.
          1   -1    0    0  501    0 -0.00000000000E+00 -0.00000000000E+00 -0.51247601455E+02  0.51247601455E+02  0.00000000000E+00 0.  1.
          2    1    1    2  501    0 -0.11805690905E+03 -0.62906126146E+02  0.11795127831E+03  0.17834550327E+03  0.00000000000E+00 0.  1.
          1    1    1    2  502    0 -0.23733266419E+02  0.83190198387E+00  0.87448920291E+02  0.90616078352E+02  0.00000000000E+00 0.  1.
         22    1    1    2    0    0 -0.37022322289E+01 -0.26452504632E+02  0.41067541385E+02  0.48989636457E+02  0.00000000000E+00 0.  1.
         22    1    1    2    0    0  0.14549240769E+03  0.88526728795E+02  0.45214020649E+03  0.48315193132E+03  0.00000000000E+00 0.  1.
</event>
<event>
 6    1  0.3624778E-005  0.6114758E+02  0.7818608E-02  0.1459309E+00
          2   -1    0    0  502    0  0.00000000000E+00  0.00000000000E+00  0.18052450667E+03  0.18052450667E+03  0.00000000000E+00 0. -1.
          1   -1    0    0  501    0 -0.00000000000E+00 -0.00000000000E+00 -0.91271085531E+02  0.91271085531E+02  0.00000000000E+00 0. -1.
          2    1    1    2  501    0 -0.37214160862E+02  0.21208473541E+02 -0.45400726124E+02  0.62417297692E+02  0.00000000000E+00 0. -1.
          1    1    1    2  502    0  0.30721445477E+02  0.37690564967E+01  0.27643678400E+02  0.41499228362E+02  0.00000000000E+00 0. -1.
         22    1    1    2    0    0 -0.10672067157E+02 -0.19542459582E+02  0.13377867629E+03  0.13561908042E+03  0.00000000000E+00 0. -1.
         22    1    1    2    0    0  0.17164782541E+02 -0.54350704557E+01 -0.26768207425E+02  0.32259985730E+02  0.00000000000E+00 0. -1.
</event>
<event>
 6    1  0.3624778E-005  0.8182989E+02  0.7818608E-02  0.1328079E+00
          2   -1    0    0  502    0  0.00000000000E+00  0.00000000000E+00  0.22089364803E+03  0.22089364803E+03  0.00000000000E+00 0. -1.
          1   -1    0    0  501    0 -0.00000000000E+00 -0.00000000000E+00 -0.12325259465E+03  0.12325259465E+03  0.00000000000E+00 0. -1.
          2    1    1    2  501    0 -0.18228405366E+02 -0.31565258599E+02  0.25630644688E+02  0.44559738102E+02  0.00000000000E+00 0. -1.
          1    1    1    2  502    0 -0.25557156168E+01  0.54970803040E+02 -0.80749395896E+02  0.97717888878E+02  0.00000000000E+00 0. -1.
         22    1    1    2    0    0  0.34839054772E+02  0.46845575505E+02  0.51644546826E+02  0.77945024849E+02  0.00000000000E+00 0. -1.
         22    1    1    2    0    0 -0.14054933790E+02 -0.70251119946E+02  0.10111525776E+03  0.12392359085E+03  0.00000000000E+00 0. -1.
</event>
<event>
 6    1  0.3624778E-005  0.2118299E+03  0.7818608E-02  0.1216843E+00
          2   -1    0    0  502    0  0.00000000000E+00  0.00000000000E+00  0.30082613572E+03  0.30082613572E+03  0.00000000000E+00 0. -1.
          1   -1    0    0  501    0 -0.00000000000E+00 -0.00000000000E+00 -0.10069846537E+04  0.10069846537E+04  0.00000000000E+00 0.  1.
          2    1    1    2  501    0 -0.26202138883E+02 -0.13964011488E+03  0.53126292019E+02  0.15168492565E+03  0.00000000000E+00 0. -1.
          1    1    1    2  502    0  0.17706433268E+02  0.19438190309E+03 -0.92239516093E+03  0.94282059531E+03  0.00000000000E+00 0.  1.
         22    1    1    2    0    0  0.33884210193E+02 -0.27119175948E+02 -0.25252785767E+01  0.43473744218E+02  0.00000000000E+00 0. -1.
         22    1    1    2    0    0 -0.25388504577E+02 -0.27622612260E+02  0.16563562950E+03  0.16983152426E+03  0.00000000000E+00 0.  1.
</event>
<event>
 6    1  0.3624778E-005  0.4081243E+03  0.7818608E-02  0.1146844E+00
          2   -1    0    0  502    0  0.00000000000E+00  0.00000000000E+00  0.44741600370E+03  0.44741600370E+03  0.00000000000E+00 0. -1.
          1   -1    0    0  501    0 -0.00000000000E+00 -0.00000000000E+00 -0.22684155780E+03  0.22684155780E+03  0.00000000000E+00 0. -1.
          2    1    1    2  501    0 -0.17381436638E+02  0.18205624767E+03  0.12264530590E+02  0.18329487272E+03  0.00000000000E+00 0. -1.
          1    1    1    2  502    0  0.35817656852E+01 -0.47434395614E+02 -0.11244399356E+03  0.12209218903E+03  0.00000000000E+00 0. -1.
         22    1    1    2    0    0  0.12342956346E+02  0.21985025895E+02  0.52630345378E+02  0.58357888838E+02  0.00000000000E+00 0.  1.
         22    1    1    2    0    0  0.14567146077E+01 -0.15660687795E+03  0.26812356350E+03  0.31051261092E+03  0.00000000000E+00 0. -1.
</event>
<event>
 6    1  0.3624778E-005  0.1040813E+03  0.7818608E-02  0.1284366E+00
          2   -1    0    0  502    0  0.00000000000E+00  0.00000000000E+00  0.75615434323E+03  0.75615434323E+03  0.00000000000E+00 0. -1.
          1   -1    0    0  501    0 -0.00000000000E+00 -0.00000000000E+00 -0.75740289983E+02  0.75740289983E+02  0.00000000000E+00 0. -1.
          2    1    1    2  501    0  0.18754973275E+02  0.33805461675E+02  0.11346617882E+03  0.11987131432E+03  0.00000000000E+00 0. -1.
          1    1    1    2  502    0  0.50511126389E+02 -0.91002958866E+02 -0.18568488113E+02  0.10572464785E+03  0.00000000000E+00 0. -1.
         22    1    1    2    0    0  0.37265581740E+02  0.21455299273E+02  0.12199638470E+03  0.12935289455E+03  0.00000000000E+00 0. -1.
         22    1    1    2    0    0 -0.10653168140E+03  0.35742197918E+02  0.46351997785E+03  0.47694577650E+03  0.00000000000E+00 0. -1.
</event>
<event>
 6    1  0.3624778E-005  0.7635658E+02  0.7818608E-02  0.1352168E+00
          2   -1    0    0  502    0  0.00000000000E+00  0.00000000000E+00  0.41311806194E+03  0.41311806194E+03  0.00000000000E+00 0.  1.
          1   -1    0    0  501    0 -0.00000000000E+00 -0.00000000000E+00 -0.64076152860E+02  0.64076152860E+02  0.00000000000E+00 0.  1.
          2    1    1    2  501    0  0.72722038149E+01  0.18921317418E+02  0.47440390782E+00  0.20276248672E+02  0.00000000000E+00 0.  1.
          1    1    1    2  502    0 -0.82042400363E+02  0.33723127970E+02  0.17484266981E+02  0.90409647767E+02  0.00000000000E+00 0.  1.
         22    1    1    2    0    0  0.46569775766E+02  0.21939593050E+01  0.22395230951E+02  0.51721406030E+02  0.00000000000E+00 0.  1.
         22    1    1    2    0    0  0.28200420782E+02 -0.54838404693E+02  0.30868800724E+03  0.31478691233E+03  0.00000000000E+00 0.  1.
</event>
<event>
 6    1  0.3624778E-005  0.2528985E+03  0.7818608E-02  0.1112079E+00
          2   -1    0    0  502    0  0.00000000000E+00  0.00000000000E+00  0.72685025929E+02  0.72685025929E+02  0.00000000000E+00 0. -1.
          1   -1    0    0  501    0 -0.00000000000E+00 -0.00000000000E+00 -0.14517335265E+04  0.14517335265E+04  0.00000000000E+00 0.  1.
          2    1    1    2  501    0 -0.91156483040E+02 -0.23917097603E+03 -0.35779504692E+03  0.43991994247E+03  0.00000000000E+00 0. -1.
          1    1    1    2  502    0  0.13151839607E+01  0.48069444040E+02 -0.56012145435E+03  0.56218186095E+03  0.00000000000E+00 0.  1.
         22    1    1    2    0    0  0.85303524199E+02  0.20851114145E+03 -0.44169850684E+03  0.49583380109E+03  0.00000000000E+00 0. -1.
         22    1    1    2    0    0  0.45377748802E+01 -0.17409609463E+02 -0.19433492497E+02  0.26482947970E+02  0.00000000000E+00 0. -1.
</event>
<event>
 6    1  0.3624778E-005  0.7780826E+02  0.7818608E-02  0.1459550E+00
          2   -1    0    0  502    0  0.00000000000E+00  0.00000000000E+00  0.21823791519E+02  0.21823791519E+02  0.00000000000E+00 0.  1.
          1   -1    0    0  501    0 -0.00000000000E+00 -0.00000000000E+00 -0.12116580676E+04  0.12116580676E+04  0.00000000000E+00 0.  1.
          2    1    1    2  501    0  0.23480116698E+02 -0.19725396989E+02 -0.22462882651E+03  0.22671241004E+03  0.00000000000E+00 0.  1.
          1    1    1    2  502    0 -0.65690398519E+02  0.64980208705E+01 -0.75884464117E+03  0.76171034007E+03  0.00000000000E+00 0.  1.
         22    1    1    2    0    0  0.36607753706E+02  0.22424876913E+02 -0.22197657152E+03  0.22608980746E+03  0.00000000000E+00 0.  1.
         22    1    1    2    0    0  0.56025281143E+01 -0.91975007942E+01  0.15615763138E+02  0.18969301529E+02  0.00000000000E+00 0.  1.
</event>
<event>
 6    1  0.3624778E-005  0.7435984E+02  0.7818608E-02  0.1348036E+00
          2   -1    0    0  502    0  0.00000000000E+00  0.00000000000E+00  0.46887947506E+03  0.46887947506E+03  0.00000000000E+00 0. -1.
          1   -1    0    0  501    0 -0.00000000000E+00 -0.00000000000E+00 -0.39330302085E+03  0.39330302085E+03  0.00000000000E+00 0. -1.
          2    1    1    2  501    0 -0.19652569935E+02 -0.15174286010E+02  0.20627371442E+02  0.32279574247E+02  0.00000000000E+00 0. -1.
          1    1    1    2  502    0 -0.12058226716E+02  0.71515947520E+02 -0.37254127987E+03  0.37953515883E+03  0.00000000000E+00 0. -1.
         22    1    1    2    0    0 -0.37820614289E+02 -0.39073391875E+02  0.88362239910E+02  0.10375458669E+03  0.00000000000E+00 0. -1.
         22    1    1    2    0    0  0.69531410940E+02 -0.17268269635E+02  0.33912812274E+03  0.34661317614E+03  0.00000000000E+00 0. -1.
</event>
<event>
 6    1  0.3624778E-005  0.1408710E+03  0.7818608E-02  0.1219276E+00
          2   -1    0    0  502    0  0.00000000000E+00  0.00000000000E+00  0.55692091436E+03  0.55692091436E+03  0.00000000000E+00 0.  1.
          1   -1    0    0  501    0 -0.00000000000E+00 -0.00000000000E+00 -0.33663254127E+03  0.33663254127E+03  0.00000000000E+00 0. -1.
          2    1    1    2  501    0 -0.10963687247E+03  0.76138814534E+02  0.23038510208E+03  0.26626050805E+03  0.00000000000E+00 0.  1.
          1    1    1    2  502    0  0.18697134515E+02 -0.96516712031E+02 -0.29063972677E+03  0.30681673572E+03  0.00000000000E+00 0. -1.
         22    1    1    2    0    0  0.95631192086E+02 -0.33077912219E+02  0.18786414795E+03  0.21338324972E+03  0.00000000000E+00 0.  1.
         22    1    1    2    0    0 -0.46914541275E+01  0.53455809716E+02  0.92678849828E+02  0.10709296214E+03  0.00000000000E+00 0.  1.
</event>
<event>
 6    1  0.3624778E-005  0.8636057E+02  0.7818608E-02  0.1364533E+00
          2   -1    0    0  502    0  0.00000000000E+00  0.00000000000E+00  0.20659603903E+02  0.20659603903E+02  0.00000000000E+00 0. -1.
          1   -1    0    0  501    0 -0.00000000000E+00 -0.00000000000E+00 -0.75036613922E+03  0.75036613922E+03  0.00000000000E+00 0. -1.
          2    1    1    2  501    0  0.41078990405E+02 -0.20712357656E+02 -0.12782989306E+03  0.13585641970E+03  0.00000000000E+00 0. -1.
          1    1    1    2  502    0 -0.16572747635E+02  0.40673787097E+02 -0.33820141780E+03  0.34104136395E+03  0.00000000000E+00 0. -1.
         22    1    1    2    0    0 -0.18047810157E+02 -0.53959463187E+02 -0.25084996526E+03  0.25722179571E+03  0.00000000000E+00 0. -1.
         22    1    1    2    0    0 -0.64584326131E+01  0.33998033747E+02 -0.12825259192E+02  0.36906163764E+02  0.00000000000E+00 0. -1.
</event>
<event>
 6    1  0.3624778E-005  0.5174796E+02  0.7818608E-02  0.1439735E+00
          2   -1    0    0  502    0  0.00000000000E+00  0.00000000000E+00  0.21401487258E+03  0.21401487258E+03  0.00000000000E+00 0. -1.
          1   -1    0    0  501    0 -0.00000000000E+00 -0.00000000000E+00 -0.35082804805E+03  0.35082804805E+03  0.00000000000E+00 0.  1.
          2    1    1    2  501    0  0.13404963501E+01  0.23172770438E+02 -0.11967594744E+02  0.26115082695E+02  0.00000000000E+00 0. -1.
          1    1    1    2  502    0 -0.34951974875E+02 -0.23626090771E+02 -0.31082100083E+03  0.31367104946E+03  0.00000000000E+00 0.  1.
         22    1    1    2    0    0 -0.24639826527E+01  0.34616371500E+02  0.22999691214E+01  0.34780084018E+02  0.00000000000E+00 0. -1.
         22    1    1    2    0    0  0.36075461178E+02 -0.34163051166E+02  0.18367545098E+03  0.19027670446E+03  0.00000000000E+00 0. -1.
</event>
<event>
 6    1  0.3624778E-005  0.7378302E+02  0.7818608E-02  0.1349612E+00
          2   -1    0    0  502    0  0.00000000000E+00  0.00000000000E+00  0.10340341622E+03  0.10340341622E+03  0.00000000000E+00 0.  1.
          1   -1    0    0  501    0 -0.00000000000E+00 -0.00000000000E+00 -0.17444850784E+03  0.17444850784E+03  0.00000000000E+00 0.  1.
          2    1    1    2  501    0 -0.37104673959E+02 -0.20052693637E+01 -0.11114755839E+03  0.11719452918E+03  0.00000000000E+00 0.  1.
          1    1    1    2  502    0 -0.11604698228E+02  0.19840821020E+02  0.12155128106E+02  0.26001429556E+02  0.00000000000E+00 0.  1.
         22    1    1    2    0    0  0.69581082709E+02 -0.22471850066E+02  0.61045591792E+02  0.95252692317E+02  0.00000000000E+00 0.  1.
         22    1    1    2    0    0 -0.20871710523E+02  0.46362984104E+01 -0.33098253127E+02  0.39403273000E+02  0.00000000000E+00 0. -1.
</event>
<event>
 6    1  0.3624778E-005  0.1739797E+03  0.7818608E-02  0.1257549E+00
          2   -1    0    0  502    0  0.00000000000E+00  0.00000000000E+00  0.21298805857E+03  0.21298805857E+03  0.00000000000E+00 0.  1.
          1   -1    0    0  501    0 -0.00000000000E+00 -0.00000000000E+00 -0.48525819028E+03  0.48525819028E+03  0.00000000000E+00 0. -1.
          2    1    1    2  501    0  0.69166629781E+02  0.17580178652E+02  0.69809011178E+01  0.71706473468E+02  0.00000000000E+00 0.  1.
          1    1    1    2  502    0 -0.90775908018E+02 -0.85424918040E+02 -0.41117058999E+03  0.42964978316E+03  0.00000000000E+00 0. -1.
         22    1    1    2    0    0  0.34056416061E+02  0.41093112266E+02  0.15206758779E+03  0.16116151714E+03  0.00000000000E+00 0.  1.
         22    1    1    2    0    0 -0.12447137824E+02  0.26751627122E+02 -0.20148030624E+02  0.35728475082E+02  0.00000000000E+00 0.  1.
</event>
<event>
 6    1  0.3624778E-005  0.1000364E+03  0.7818608E-02  0.1287824E+00
          2   -1    0    0  502    0  0.00000000000E+00  0.00000000000E+00  0.19149164355E+03  0.19149164355E+03  0.00000000000E+00 0. -1.
          1   -1    0    0  501    0 -0.00000000000E+00 -0.00000000000E+00 -0.76518265080E+03  0.76518265080E+03  0.00000000000E+00 0. -1.
          2    1    1    2  501    0  0.34757647419E+01  0.74749101624E+02  0.39648972534E+02  0.84685005503E+02  0.00000000000E+00 0. -1.
          1    1    1    2  502    0  0.18492906276E+02 -0.22522960637E+02 -0.70734540450E+03  0.70794547291E+03  0.00000000000E+00 0. -1.
         22    1    1    2    0    0 -0.37907299380E+02 -0.74326802282E+02  0.10546994923E+03  0.13448177227E+03  0.00000000000E+00 0.  1.
         22    1    1    2    0    0  0.15938628363E+02  0.22100661295E+02 -0.11464524506E+02  0.29562043669E+02  0.00000000000E+00 0. -1.
</event>
<event>
 6    1  0.3624778E-005  0.7849458E+02  0.7818608E-02  0.1454631E+00
          2   -1    0    0  502    0  0.00000000000E+00  0.00000000000E+00  0.51368884591E+02  0.51368884591E+02  0.00000000000E+00 0.  1.
          1   -1    0    0  501    0 -0.00000000000E+00 -0.00000000000E+00 -0.71334015968E+03  0.71334015968E+03  0.00000000000E+00 0.  1.
          2    1    1    2  501    0  0.51257314311E+02  0.11655875218E+02 -0.37900763141E+03  0.38263553986E+03  0.00000000000E+00 0.  1.
          1    1    1    2  502    0 -0.53776327591E+02  0.12382128668E+02 -0.24505234604E+03  0.25118889868E+03  0.00000000000E+00 0.  1.
         22    1    1    2    0    0  0.13424656678E+02 -0.21196687198E+02 -0.81805529266E+02  0.85566731699E+02  0.00000000000E+00 0.  1.
         22    1    1    2    0    0 -0.10905643398E+02 -0.28413166883E+01  0.43894231618E+02  0.45317874043E+02  0.00000000000E+00 0.  1.
</event>
<event>
 6    1  0.3624778E-005  0.1106938E+03  0.7818608E-02  0.1352882E+00
          2   -1    0    0  502    0  0.00000000000E+00  0.00000000000E+00  0.67270161948E+02  0.67270161948E+02  0.00000000000E+00 0. -1.
          1   -1    0    0  501    0 -0.00000000000E+00 -0.00000000000E+00 -0.72637010227E+03  0.72637010227E+03  0.00000000000E+00 0. -1.
          2    1    1    2  501    0 -0.21085495184E+02 -0.14335169963E+02 -0.57271328338E+03  0.57328055973E+03  0.00000000000E+00 0. -1.
          1    1    1    2  502    0 -0.11961957461E+02  0.62114124887E+02 -0.44636729912E+02  0.77418929171E+02  0.00000000000E+00 0. -1.
         22    1    1    2    0    0  0.25709437493E+02 -0.29178379585E+02 -0.85999189927E+02  0.94383333696E+02  0.00000000000E+00 0. -1.
         22    1    1    2    0    0  0.73380151513E+01 -0.18600575339E+02  0.44249262900E+02  0.48557441618E+02  0.00000000000E+00 0. -1.
</event>
<event>
 6    1  0.3624778E-005  0.7689147E+02  0.7818608E-02  0.1341751E+00
          2   -1    0    0  502    0  0.00000000000E+00  0.00000000000E+00  0.46211009917E+03  0.46211009917E+03  0.00000000000E+00 0. -1.
          1   -1    0    0  501    0 -0.00000000000E+00 -0.00000000000E+00 -0.53785282561E+02  0.53785282561E+02  0.00000000000E+00 0.  1.
          2    1    1    2  501    0 -0.18389677330E+02  0.15240360376E+02  0.10648223443E+03  0.10912797563E+03  0.00000000000E+00 0. -1.
          1    1    1    2  502    0  0.27484040715E+02 -0.76954798211E+01 -0.36138134693E+02  0.46049513382E+02  0.00000000000E+00 0.  1.
         22    1    1    2    0    0 -0.64956870420E+02  0.13337747136E+02  0.18478293194E+03  0.19632122262E+03  0.00000000000E+00 0. -1.
         22    1    1    2    0    0  0.55862507035E+02 -0.20882627690E+02  0.15319778494E+03  0.16439667010E+03  0.00000000000E+00 0. -1.
</event>
<event>
 6    1  0.3624778E-005  0.1811013E+03  0.7818608E-02  0.1257466E+00
          2   -1    0    0  502    0  0.00000000000E+00  0.00000000000E+00  0.14203370059E+03  0.14203370059E+03  0.00000000000E+00 0. -1.
          1   -1    0    0  501    0 -0.00000000000E+00 -0.00000000000E+00 -0.71399961987E+03  0.71399961987E+03  0.00000000000E+00 0.  1.
          2    1    1    2  501    0 -0.15970317330E+03 -0.56868007399E+02 -0.18822622261E+03  0.25331439893E+03  0.00000000000E+00 0. -1.
          1    1    1    2  502    0  0.15183383953E+03  0.69413092725E+02 -0.43441298179E+03  0.46538836580E+03  0.00000000000E+00 0.  1.
         22    1    1    2    0    0 -0.15016596701E+02 -0.25304985956E+02 -0.36165977191E+02  0.46624225429E+02  0.00000000000E+00 0.  1.
         22    1    1    2    0    0  0.22885930464E+02  0.12759900630E+02  0.86839262316E+02  0.90706330302E+02  0.00000000000E+00 0.  1.
</event>
<event>
 6    1  0.3624778E-005  0.1496756E+03  0.7818608E-02  0.1308866E+00
          2   -1    0    0  502    0  0.00000000000E+00  0.00000000000E+00  0.20876605602E+03  0.20876605602E+03  0.00000000000E+00 0. -1.
          1   -1    0    0  501    0 -0.00000000000E+00 -0.00000000000E+00 -0.16219689211E+03  0.16219689211E+03  0.00000000000E+00 0. -1.
          2    1    1    2  501    0  0.43521130372E+02 -0.80523437779E+01  0.37463504671E+02  0.57986577855E+02  0.00000000000E+00 0. -1.
          1    1    1    2  502    0  0.26143158415E+02  0.83889052716E+02 -0.87602724116E+02  0.12407689217E+03  0.00000000000E+00 0. -1.
         22    1    1    2    0    0 -0.13745417831E+02  0.10881077407E+02  0.82973839315E+02  0.84805615188E+02  0.00000000000E+00 0. -1.
         22    1    1    2    0    0 -0.55918870956E+02 -0.86717786345E+02  0.13734544047E+02  0.10409386292E+03  0.00000000000E+00 0.  1.
</event>
<event>
 6    1  0.3624778E-005  0.1034320E+03  0.7818608E-02  0.1362929E+00
          2   -1    0    0  502    0  0.00000000000E+00  0.00000000000E+00  0.14200095122E+03  0.14200095122E+03  0.00000000000E+00 0.  1.
          1   -1    0    0  501    0 -0.00000000000E+00 -0.00000000000E+00 -0.15324229370E+03  0.15324229370E+03  0.00000000000E+00 0.  1.
          2    1    1    2  501    0 -0.21750727804E+02  0.38001089960E+02 -0.13752350259E+01  0.43807171439E+02  0.00000000000E+00 0.  1.
          1    1    1    2  502    0 -0.13710061487E+02 -0.81248692359E+02 -0.66267554223E+02  0.10573885066E+03  0.00000000000E+00 0.  1.
         22    1    1    2    0    0  0.33177582538E+02  0.63811827182E+02 -0.13167265819E+02  0.73116880134E+02  0.00000000000E+00 0.  1.
         22    1    1    2    0    0  0.22832067522E+01 -0.20564224783E+02  0.69568712589E+02  0.72580342692E+02  0.00000000000E+00 0.  1.
</event>
<event>
 6    1  0.3624778E-005  0.9708008E+02  0.7818608E-02  0.1319434E+00
          2   -1    0    0  502    0  0.00000000000E+00  0.00000000000E+00  0.25684553892E+03  0.25684553892E+03  0.00000000000E+00 0. -1.
          1   -1    0    0  501    0 -0.00000000000E+00 -0.00000000000E+00 -0.46997826705E+03  0.46997826705E+03  0.00000000000E+00 0. -1.
          2    1    1    2  501    0  0.47442033184E+02  0.49825235263E+02 -0.74221400564E+01  0.69198184547E+02  0.00000000000E+00 0. -1.
          1    1    1    2  502    0 -0.33291400933E+02 -0.85277786077E+02 -0.40777198046E+03  0.41792177046E+03  0.00000000000E+00 0. -1.
         22    1    1    2    0    0  0.37492861982E+02  0.23092065521E+02  0.17044540012E+02  0.47217311803E+02  0.00000000000E+00 0.  1.
         22    1    1    2    0    0 -0.51643494233E+02  0.12360485293E+02  0.18501685238E+03  0.19248653916E+03  0.00000000000E+00 0. -1.
</event>
<event>
 6    1  0.3624778E-005  0.7733855E+02  0.7818608E-02  0.1340451E+00
          2   -1    0    0  502    0  0.00000000000E+00  0.00000000000E+00  0.41320872891E+03  0.41320872891E+03  0.00000000000E+00 0. -1.
          1   -1    0    0  501    0 -0.00000000000E+00 -0.00000000000E+00 -0.38094899194E+02  0.38094899194E+02  0.00000000000E+00 0. -1.
          2    1    1    2  501    0 -0.25148251462E+02  0.75519988692E+01  0.50860834611E+02  0.57238900547E+02  0.00000000000E+00 0. -1.
          1    1    1    2  502    0 -0.22805976124E+02 -0.11411480263E+02 -0.14121459808E+02  0.29150472653E+02  0.00000000000E+00 0. -1.
         22    1    1    2    0    0  0.87577439451E+02  0.10355110274E+01  0.16239918041E+03  0.18451117576E+03  0.00000000000E+00 0. -1.
         22    1    1    2    0    0 -0.39623211865E+02  0.28239703666E+01  0.17597527451E+03  0.18040307915E+03  0.00000000000E+00 0. -1.
</event>
<event>
 6    1  0.3624778E-005  0.1206395E+03  0.7818608E-02  0.1305411E+00
          2   -1    0    0  502    0  0.00000000000E+00  0.00000000000E+00  0.27232752129E+03  0.27232752129E+03  0.00000000000E+00 0. -1.
          1   -1    0    0  501    0 -0.00000000000E+00 -0.00000000000E+00 -0.13335817661E+04  0.13335817661E+04  0.00000000000E+00 0. -1.
          2    1    1    2  501    0  0.51606545397E+02  0.30095471097E+02  0.13526721915E+02  0.61253123301E+02  0.00000000000E+00 0. -1.
          1    1    1    2  502    0 -0.97348915249E+02 -0.63297715023E+02 -0.12866163256E+04  0.12918455717E+04  0.00000000000E+00 0. -1.
         22    1    1    2    0    0  0.10156390105E+02  0.35453200674E+02 -0.11144713009E+01  0.36896120992E+02  0.00000000000E+00 0. -1.
         22    1    1    2    0    0  0.35585979748E+02 -0.22509567480E+01  0.21294983016E+03  0.21591447132E+03  0.00000000000E+00 0. -1.
</event>
<event>
 6    1  0.3624778E-005  0.2083170E+03  0.7818608E-02  0.1230006E+00
          2   -1    0    0  502    0  0.00000000000E+00  0.00000000000E+00  0.49701032048E+03  0.49701032048E+03  0.00000000000E+00 0.  1.
          1   -1    0    0  501    0 -0.00000000000E+00 -0.00000000000E+00 -0.95424632513E+03  0.95424632513E+03  0.00000000000E+00 0. -1.
          2    1    1    2  501    0 -0.51841396834E+02 -0.56236594490E+02  0.46607207132E+02  0.89567386599E+02  0.00000000000E+00 0.  1.
          1    1    1    2  502    0 -0.22410450916E+02  0.11119972089E+03 -0.91485771016E+03  0.92186345847E+03  0.00000000000E+00 0. -1.
         22    1    1    2    0    0  0.10385996031E+03 -0.50320359892E+02  0.24121565537E+03  0.26740236045E+03  0.00000000000E+00 0.  1.
         22    1    1    2    0    0 -0.29608112561E+02 -0.46427665103E+01  0.16979884300E+03  0.17242344010E+03  0.00000000000E+00 0.  1.
</event>
<event>
 6    1  0.3624778E-005  0.1943788E+03  0.7818608E-02  0.1255562E+00
          2   -1    0    0  502    0  0.00000000000E+00  0.00000000000E+00  0.27562009921E+03  0.27562009921E+03  0.00000000000E+00 0.  1.
          1   -1    0    0  501    0 -0.00000000000E+00 -0.00000000000E+00 -0.21201626353E+03  0.21201626353E+03  0.00000000000E+00 0.  1.
          2    1    1    2  501    0  0.96908983066E+02  0.14966622775E+02 -0.12015685357E+03  0.15509036159E+03  0.00000000000E+00 0.  1.
          1    1    1    2  502    0 -0.11907353192E+03 -0.71075323271E+02  0.86017366329E+02  0.16318454245E+03  0.00000000000E+00 0.  1.
         22    1    1    2    0    0 -0.21541191522E+02 -0.44903956189E+01  0.91810471001E+02  0.94410535273E+02  0.00000000000E+00 0.  1.
         22    1    1    2    0    0  0.43705740381E+02  0.60599096115E+02  0.59328519309E+01  0.74950923438E+02  0.00000000000E+00 0. -1.
</event>
<event>
 6    1  0.3624778E-005  0.4478523E+03  0.7818608E-02  0.1146414E+00
          2   -1    0    0  502    0  0.00000000000E+00  0.00000000000E+00  0.20257471180E+03  0.20257471180E+03  0.00000000000E+00 0. -1.
          1   -1    0    0  501    0 -0.00000000000E+00 -0.00000000000E+00 -0.69046694572E+03  0.69046694572E+03  0.00000000000E+00 0. -1.
          2    1    1    2  501    0 -0.14416637406E+03 -0.41721816968E+02 -0.19469760457E+03  0.24582882387E+03  0.00000000000E+00 0. -1.
          1    1    1    2  502    0 -0.21551087393E+02 -0.30902726562E+01 -0.40696538723E+03  0.40754732922E+03  0.00000000000E+00 0. -1.
         22    1    1    2    0    0  0.18354931725E+03  0.52136282040E+02  0.96692443361E+02  0.21391113195E+03  0.00000000000E+00 0. -1.
         22    1    1    2    0    0 -0.17831855799E+02 -0.73241924152E+01  0.17078314504E+02  0.25754372484E+02  0.00000000000E+00 0. -1.
</event>
<event>
 6    1  0.3624778E-005  0.7586381E+02  0.7818608E-02  0.1375751E+00
          2   -1    0    0  502    0  0.00000000000E+00  0.00000000000E+00  0.14162941721E+03  0.14162941721E+03  0.00000000000E+00 0.  1.
          1   -1    0    0  501    0 -0.00000000000E+00 -0.00000000000E+00 -0.49364923424E+03  0.49364923424E+03  0.00000000000E+00 0. -1.
          2    1    1    2  501    0  0.60422703362E+02  0.30932477142E+01 -0.15387824248E+03  0.16534504762E+03  0.00000000000E+00 0.  1.
          1    1    1    2  502    0 -0.77175966198E+02  0.32844357562E+02 -0.29500781998E+03  0.30669935676E+03  0.00000000000E+00 0. -1.
         22    1    1    2    0    0  0.78514465959E+01 -0.41664996204E+02  0.12562634195E+03  0.13258806475E+03  0.00000000000E+00 0.  1.
         22    1    1    2    0    0  0.89018162398E+01  0.57273909277E+01 -0.28760096522E+02  0.30646182326E+02  0.00000000000E+00 0. -1.
</event>
<event>
 6    1  0.3624778E-005  0.8144014E+02  0.7818608E-02  0.1326349E+00
          2   -1    0    0  502    0  0.00000000000E+00  0.00000000000E+00  0.28166464937E+03  0.28166464937E+03  0.00000000000E+00 0.  1.
          1   -1    0    0  501    0 -0.00000000000E+00 -0.00000000000E+00 -0.13265525924E+04  0.13265525924E+04  0.00000000000E+00 0.  1.
          2    1    1    2  501    0  0.12240572446E+02  0.30426034753E+02  0.76834117720E+02  0.83540749640E+02  0.00000000000E+00 0.  1.
          1    1    1    2  502    0  0.23953518829E+02 -0.14751653693E+02 -0.13004352740E+04  0.13007395144E+04  0.00000000000E+00 0.  1.
         22    1    1    2    0    0  0.33079404253E+02  0.33360190072E+02  0.87705748435E+02  0.99495967636E+02  0.00000000000E+00 0.  1.
         22    1    1    2    0    0 -0.69273495528E+02 -0.49034571132E+02  0.91007464824E+02  0.12444101013E+03  0.00000000000E+00 0.  1.
</event>
<event>
 6    1  0.3624778E-005  0.2594815E+03  0.7818608E-02  0.1153704E+00
          2   -1    0    0  502    0  0.00000000000E+00  0.00000000000E+00  0.26661181848E+03  0.26661181848E+03  0.00000000000E+00 0.  1.
          1   -1    0    0  501    0 -0.00000000000E+00 -0.00000000000E+00 -0.60754197344E+03  0.60754197344E+03  0.00000000000E+00 0.  1.
          2    1    1    2  501    0 -0.23340817726E+02  0.17584794039E+03 -0.32333521274E+03  0.36879933799E+03  0.00000000000E+00 0.  1.
          1    1    1    2  502    0  0.15505892599E+03 -0.19088803902E+03 -0.14393926944E+03  0.28495618480E+03  0.00000000000E+00 0.  1.
         22    1    1    2    0    0 -0.49198365325E+02  0.30152719673E+01 -0.19003491617E+02  0.52827111499E+02  0.00000000000E+00 0.  1.
         22    1    1    2    0    0 -0.82519742934E+02  0.12024826665E+02  0.14534781884E+03  0.16757115763E+03  0.00000000000E+00 0.  1.
</event>
<event>
 6    1  0.3624778E-005  0.7431097E+02  0.7818608E-02  0.1437220E+00
          2   -1    0    0  502    0  0.00000000000E+00  0.00000000000E+00  0.11627092967E+03  0.11627092967E+03  0.00000000000E+00 0. -1.
          1   -1    0    0  501    0 -0.00000000000E+00 -0.00000000000E+00 -0.41447118660E+03  0.41447118660E+03  0.00000000000E+00 0. -1.
          2    1    1    2  501    0  0.35440999789E+02 -0.47057026603E+02 -0.11290196088E+03  0.12734708865E+03  0.00000000000E+00 0. -1.
          1    1    1    2  502    0 -0.32702640750E+02  0.67466208003E+02 -0.24880543959E+03  0.25985630395E+03  0.00000000000E+00 0. -1.
         22    1    1    2    0    0 -0.12863620149E+02 -0.11406441734E+02  0.10163305381E+03  0.10307694827E+03  0.00000000000E+00 0. -1.
         22    1    1    2    0    0  0.10125261111E+02 -0.90027396656E+01 -0.38125910273E+02  0.40461775396E+02  0.00000000000E+00 0.  1.
</event>
<event>
 6    1  0.3624778E-005  0.9481875E+02  0.7818608E-02  0.1292840E+00
          2   -1    0    0  502    0  0.00000000000E+00  0.00000000000E+00  0.23783220676E+02  0.23783220676E+02  0.00000000000E+00 0. -1.
          1   -1    0    0  501    0 -0.00000000000E+00 -0.00000000000E+00 -0.84767836035E+03  0.84767836035E+03  0.00000000000E+00 0. -1.
          2    1    1    2  501    0 -0.35697939102E+02 -0.36101225332E+02 -0.26000204892E+03  0.26491263988E+03  0.00000000000E+00 0. -1.
          1    1    1    2  502    0  0.38208769484E+02 -0.36499616821E+02 -0.29719976806E+03  0.30186062054E+03  0.00000000000E+00 0. -1.
         22    1    1    2    0    0  0.50552007037E+01  0.10114745202E+03 -0.12973892559E+03  0.16458599854E+03  0.00000000000E+00 0. -1.
         22    1    1    2    0    0 -0.75660310858E+01 -0.28546609869E+02 -0.13695439711E+03  0.14010232206E+03  0.00000000000E+00 0.  1.
</event>
<event>
 6    1  0.3624778E-005  0.7156319E+02  0.7818608E-02  0.1406098E+00
          2   -1    0    0  502    0  0.00000000000E+00  0.00000000000E+00  0.13137884175E+03  0.13137884175E+03  0.00000000000E+00 0.  1.
          1   -1    0    0  501    0 -0.00000000000E+00 -0.00000000000E+00 -0.46339634484E+03  0.46339634484E+03  0.00000000000E+00 0.  1.
          2    1    1    2  501    0 -0.25442137000E+02 -0.36417845578E+02 -0.61607440272E+02  0.75954186907E+02  0.00000000000E+00 0.  1.
          1    1    1    2  502    0  0.29653040606E+02  0.22810146658E+02 -0.36308055089E+03  0.36500286580E+03  0.00000000000E+00 0.  1.
         22    1    1    2    0    0  0.24890879625E+02  0.28255095459E+01 -0.23029616925E+02  0.34027968620E+02  0.00000000000E+00 0. -1.
         22    1    1    2    0    0 -0.29101783230E+02  0.10782189375E+02  0.11570010500E+03  0.11979016526E+03  0.00000000000E+00 0.  1.
</event>
<event>
 6    1  0.3624778E-005  0.9038871E+02  0.7818608E-02  0.1331734E+00
          2   -1    0    0  502    0  0.00000000000E+00  0.00000000000E+00  0.37281194166E+02  0.37281194166E+02  0.00000000000E+00 0.  1.
          1   -1    0    0  501    0 -0.00000000000E+00 -0.00000000000E+00 -0.40029896321E+03  0.40029896321E+03  0.00000000000E+00 0.  1.
          2    1    1    2  501    0  0.13748582500E+02  0.29422976940E+02 -0.58943881680E+02  0.67298709351E+02  0.00000000000E+00 0.  1.
          1    1    1    2  502    0 -0.47959853548E+02 -0.63758711014E+02 -0.12300881057E+03  0.14661680757E+03  0.00000000000E+00 0.  1.
         22    1    1    2    0    0 -0.18142645429E+01  0.73085707968E+02 -0.13494327641E+03  0.15347475400E+03  0.00000000000E+00 0.  1.
         22    1    1    2    0    0  0.36025535592E+02 -0.38749973894E+02 -0.46121800378E+02  0.70189886462E+02  0.00000000000E+00 0.  1.
</event>
<event>
 6    1  0.3624778E-005  0.5421555E+02  0.7818608E-02  0.1447281E+00
          2   -1    0    0  502    0  0.00000000000E+00  0.00000000000E+00  0.86774496848E+02  0.86774496848E+02  0.00000000000E+00 0. -1.
          1   -1    0    0  501    0 -0.00000000000E+00 -0.00000000000E+00 -0.28038238691E+03  0.28038238691E+03  0.00000000000E+00 0. -1.
          2    1    1    2  501    0  0.33831722627E+02  0.32216643244E+02 -0.19286790216E+03  0.19844527014E+03  0.00000000000E+00 0. -1.
          1    1    1    2  502    0 -0.19534795791E+02 -0.26635680777E+02  0.21589265381E+02  0.39460918853E+02  0.00000000000E+00 0. -1.
         22    1    1    2    0    0  0.23246661836E+02 -0.85310949518E+01 -0.66643864782E+02  0.71095650927E+02  0.00000000000E+00 0. -1.
         22    1    1    2    0    0 -0.37543588672E+02  0.29501324847E+01  0.44314611495E+02  0.58155043840E+02  0.00000000000E+00 0. -1.
</event>
<event>
 6    1  0.3624778E-005  0.1010625E+03  0.7818608E-02  0.1287956E+00
          2   -1    0    0  502    0  0.00000000000E+00  0.00000000000E+00  0.29259166378E+03  0.29259166378E+03  0.00000000000E+00 0. -1.
          1   -1    0    0  501    0 -0.00000000000E+00 -0.00000000000E+00 -0.67815822890E+02  0.67815822890E+02  0.00000000000E+00 0. -1.
          2    1    1    2  501    0 -0.29026199830E+02  0.20331489230E+02  0.46074202538E+01  0.35736788500E+02  0.00000000000E+00 0. -1.
          1    1    1    2  502    0 -0.10339559315E+02 -0.43888089697E+02 -0.18841562334E+02  0.48867938111E+02  0.00000000000E+00 0. -1.
         22    1    1    2    0    0 -0.48103142543E+02  0.74445468777E+01  0.86246538063E+02  0.99034332070E+02  0.00000000000E+00 0.  1.
         22    1    1    2    0    0  0.87468901688E+02  0.16112053590E+02  0.15276344490E+03  0.17676842798E+03  0.00000000000E+00 0. -1.
</event>
<event>
 6    1  0.3624778E-005  0.6535690E+02  0.7818608E-02  0.1454924E+00
          2   -1    0    0  502    0  0.00000000000E+00  0.00000000000E+00  0.87422182844E+02  0.87422182844E+02  0.00000000000E+00 0.  1.
          1   -1    0    0  501    0 -0.00000000000E+00 -0.00000000000E+00 -0.35185595859E+03  0.35185595859E+03  0.00000000000E+00 0. -1.
          2    1    1    2  501    0  0.18646622465E+02  0.45769054406E+02 -0.47296841486E+02  0.68406827766E+02  0.00000000000E+00 0.  1.
          1    1    1    2  502    0 -0.27231864825E+02 -0.18186457698E+02 -0.23783383127E+03  0.24007759787E+03  0.00000000000E+00 0. -1.
         22    1    1    2    0    0  0.18958661965E+02 -0.11141528987E+02 -0.51514324632E+02  0.56011518226E+02  0.00000000000E+00 0. -1.
         22    1    1    2    0    0 -0.10373419606E+02 -0.16441067721E+02  0.72211221641E+02  0.74782197567E+02  0.00000000000E+00 0.  1.
</event>
<event>
 6    1  0.3624778E-005  0.6952479E+02  0.7818608E-02  0.1376066E+00
          2   -1    0    0  502    0  0.00000000000E+00  0.00000000000E+00  0.31614627459E+03  0.31614627459E+03  0.00000000000E+00 0. -1.
          1   -1    0    0  501    0 -0.00000000000E+00 -0.00000000000E+00 -0.39362535421E+03  0.39362535421E+03  0.00000000000E+00 0.  1.
          2    1    1    2  501    0  0.96964487079E+01 -0.19958858108E+02  0.36891458822E+02  0.43050631454E+02  0.00000000000E+00 0. -1.
          1    1    1    2  502    0  0.41286587669E+02  0.43235703144E+02 -0.37140389472E+03  0.37618447783E+03  0.00000000000E+00 0.  1.
         22    1    1    2    0    0 -0.49399324720E+02  0.23724968383E+02  0.38433278171E+02  0.66934925701E+02  0.00000000000E+00 0. -1.
         22    1    1    2    0    0 -0.15837116574E+01 -0.47001813420E+02  0.21860007810E+03  0.22360159381E+03  0.00000000000E+00 0. -1.
</event>
<event>
 6    1  0.3624778E-005  0.7759429E+02  0.7818608E-02  0.1354481E+00
          2   -1    0    0  502    0  0.00000000000E+00  0.00000000000E+00  0.46995979186E+03  0.46995979186E+03  0.00000000000E+00 0. -1.
          1   -1    0    0  501    0 -0.00000000000E+00 -0.00000000000E+00 -0.17792569194E+04  0.17792569194E+04  0.00000000000E+00 0.  1.
          2    1    1    2  501    0  0.18255205829E+01 -0.23445400323E+02  0.76270866063E+02  0.79813935698E+02  0.00000000000E+00 0. -1.
          1    1    1    2  502    0 -0.38371697704E+02 -0.21606413928E+02 -0.17651768295E+04  0.17657260444E+04  0.00000000000E+00 0.  1.
         22    1    1    2    0    0  0.53829777639E+02 -0.99358681835E+01  0.70583905599E+02  0.89322193025E+02  0.00000000000E+00 0. -1.
         22    1    1    2    0    0 -0.17283600518E+02  0.54987682435E+02  0.30902493035E+03  0.31435453813E+03  0.00000000000E+00 0. -1.
</event>
<event>
 6    1  0.3624778E-005  0.1465324E+03  0.7818608E-02  0.1299058E+00
          2   -1    0    0  502    0  0.00000000000E+00  0.00000000000E+00  0.40162227206E+02  0.40162227206E+02  0.00000000000E+00 0. -1.
          1   -1    0    0  501    0 -0.00000000000E+00 -0.00000000000E+00 -0.41937127746E+03  0.41937127746E+03  0.00000000000E+00 0. -1.
          2    1    1    2  501    0  0.41736993012E+02  0.35631027001E+02 -0.62673933183E+02  0.83304072958E+02  0.00000000000E+00 0. -1.
          1    1    1    2  502    0  0.49738476463E+01  0.39431039640E+02 -0.13386768103E+03  0.13964276591E+03  0.00000000000E+00 0. -1.
         22    1    1    2    0    0 -0.60636242076E+02 -0.57565952242E+02 -0.19419477508E+03  0.21142895587E+03  0.00000000000E+00 0. -1.
         22    1    1    2    0    0  0.13925401418E+02 -0.17496114399E+02  0.11527339036E+02  0.25157709931E+02  0.00000000000E+00 0. -1.
</event>
<event>
 6    1  0.3624778E-005  0.2247905E+03  0.7818608E-02  0.1131534E+00
          2   -1    0    0  502    0  0.00000000000E+00  0.00000000000E+00  0.34344157648E+03  0.34344157648E+03  0.00000000000E+00 0. -1.
          1   -1    0    0  501    0 -0.00000000000E+00 -0.00000000000E+00 -0.64933510059E+03  0.64933510059E+03  0.00000000000E+00 0.  1.
          2    1    1    2  501    0 -0.12801992205E+03 -0.15819534911E+03  0.82752461729E+02  0.21968804893E+03  0.00000000000E+00 0. -1.
          1    1    1    2  502    0 -0.48487618908E+02  0.39401586087E+02 -0.50030040170E+03  0.50418649933E+03  0.00000000000E+00 0.  1.
         22    1    1    2    0    0  0.18062333794E+03  0.13298474959E+03  0.87858127268E+02  0.24089164443E+03  0.00000000000E+00 0. -1.
         22    1    1    2    0    0 -0.41157969799E+01 -0.14190986571E+02  0.23796288585E+02  0.28010484378E+02  0.00000000000E+00 0. -1.
</event>
<event>
 6    1  0.3624778E-005  0.8467166E+02  0.7818608E-02  0.1392907E+00
          2   -1    0    0  502    0  0.00000000000E+00  0.00000000000E+00  0.18457186791E+02  0.18457186791E+02  0.00000000000E+00 0.  1.
          1   -1    0    0  501    0 -0.00000000000E+00 -0.00000000000E+00 -0.10856810652E+04  0.10856810652E+04  0.00000000000E+00 0.  1.
          2    1    1    2  501    0  0.24014624769E+02  0.10444791429E+02 -0.26073292944E+03  0.26204476023E+03  0.00000000000E+00 0.  1.
          1    1    1    2  502    0 -0.18086091156E+02 -0.61635670612E+02 -0.52156206629E+03  0.52550266563E+03  0.00000000000E+00 0.  1.
         22    1    1    2    0    0 -0.27887798240E+02  0.44041987950E+02 -0.28854478626E+03  0.29321582439E+03  0.00000000000E+00 0. -1.
         22    1    1    2    0    0  0.21959264628E+02  0.71488912339E+01  0.36159035647E+01  0.23375001764E+02  0.00000000000E+00 0.  1.
</event>
<event>
 6    1  0.3624778E-005  0.7391098E+02  0.7818608E-02  0.1467435E+00
          2   -1    0    0  502    0  0.00000000000E+00  0.00000000000E+00  0.54963100834E+02  0.54963100834E+02  0.00000000000E+00 0. -1.
          1   -1    0    0  501    0 -0.00000000000E+00 -0.00000000000E+00 -0.46912248811E+03  0.46912248811E+03  0.00000000000E+00 0. -1.
          2    1    1    2  501    0  0.30668043151E+02 -0.14131725057E+02 -0.38112753487E+02  0.50919706423E+02  0.00000000000E+00 0. -1.
          1    1    1    2  502    0 -0.62964280155E+02  0.11840655028E+02 -0.32532290742E+03  0.33157155453E+03  0.00000000000E+00 0. -1.
         22    1    1    2    0    0  0.55920098038E+00 -0.11196847785E+02  0.41577127422E+02  0.43062043968E+02  0.00000000000E+00 0. -1.
         22    1    1    2    0    0  0.31737036023E+02  0.13487917814E+02 -0.92300853795E+02  0.98532284018E+02  0.00000000000E+00 0.  1.
</event>
<event>
 6    1  0.3624778E-005  0.1016758E+03  0.7818608E-02  0.1320370E+00
          2   -1    0    0  502    0  0.00000000000E+00  0.00000000000E+00  0.61005242568E+03  0.61005242568E+03  0.00000000000E+00 0.  1.
          1   -1    0    0  501    0 -0.00000000000E+00 -0.00000000000E+00 -0.51093704543E+02  0.51093704543E+02  0.00000000000E+00 0.  1.
          2    1    1    2  501    0 -0.24738068804E+02  0.27604953199E+02 -0.17664401293E+02  0.41061375553E+02  0.00000000000E+00 0.  1.
          1    1    1    2  502    0  0.46333273029E+02 -0.76052759335E+02  0.31464186692E+03  0.32700198594E+03  0.00000000000E+00 0.  1.
         22    1    1    2    0    0  0.23699350944E+02  0.44625070483E+02  0.34687879409E+02  0.61288703108E+02  0.00000000000E+00 0. -1.
         22    1    1    2    0    0 -0.45294555169E+02  0.38227356521E+01  0.22729337610E+03  0.23179406562E+03  0.00000000000E+00 0.  1.
</event>
<event>
 6    1  0.3624778E-005  0.8154843E+02  0.7818608E-02  0.1328297E+00
          2   -1    0    0  502    0  0.00000000000E+00  0.00000000000E+00  0.26308333761E+03  0.26308333761E+03  0.00000000000E+00 0. -1.
          1   -1    0    0  501    0 -0.00000000000E+00 -0.00000000000E+00 -0.16465370737E+03  0.16465370737E+03  0.00000000000E+00 0. -1.
          2    1    1    2  501    0 -0.34008019539E+02 -0.31682458892E+01  0.41832993754E+02  0.54005393633E+02  0.00000000000E+00 0. -1.
          1    1    1    2  502    0  0.49226935197E+01  0.68697952164E+02 -0.12459440789E+03  0.14236364711E+03  0.00000000000E+00 0. -1.
         22    1    1    2    0    0  0.57348215788E+02 -0.89616327183E+02  0.12704337073E+03  0.16571035574E+03  0.00000000000E+00 0.  1.
         22    1    1    2    0    0 -0.28262889769E+02  0.24086620908E+02  0.54147673644E+02  0.65657648495E+02  0.00000000000E+00 0. -1.
</event>
<event>
 6    1  0.3624778E-005  0.9552341E+02  0.7818608E-02  0.1306090E+00
          2   -1    0    0  502    0  0.00000000000E+00  0.00000000000E+00  0.43285858529E+02  0.43285858529E+02  0.00000000000E+00 0. -1.
          1   -1    0    0  501    0 -0.00000000000E+00 -0.00000000000E+00 -0.52209035460E+03  0.52209035460E+03  0.00000000000E+00 0. -1.
          2    1    1    2  501    0 -0.37350306146E+02 -0.14686895348E+02 -0.23775496972E+03  0.24111859300E+03  0.00000000000E+00 0. -1.
          1    1    1    2  502    0 -0.46763259430E+02 -0.29225955852E+02 -0.74663384572E+02  0.92820148264E+02  0.00000000000E+00 0. -1.
         22    1    1    2    0    0  0.27227126749E+02 -0.76543190887E+01 -0.15036699871E+03  0.15300372327E+03  0.00000000000E+00 0. -1.
         22    1    1    2    0    0  0.56886438827E+02  0.51567170289E+02 -0.16019143064E+02  0.78433748594E+02  0.00000000000E+00 0. -1.
</event>
<event>
 6    1  0.3624778E-005  0.1401270E+03  0.7818608E-02  0.1252085E+00
          2   -1    0    0  502    0  0.00000000000E+00  0.00000000000E+00  0.15099341833E+03  0.15099341833E+03  0.00000000000E+00 0. -1.
          1   -1    0    0  501    0 -0.00000000000E+00 -0.00000000000E+00 -0.16423103545E+04  0.16423103545E+04  0.00000000000E+00 0. -1.
          2    1    1    2  501    0  0.54297070803E+02 -0.53006953334E+02 -0.13461253752E+03  0.15452651635E+03  0.00000000000E+00 0. -1.
          1    1    1    2  502    0 -0.79469360945E+02  0.10956632356E+03 -0.14589267645E+04  0.14651919542E+04  0.00000000000E+00 0. -1.
         22    1    1    2    0    0 -0.39500136943E+01 -0.62806844087E+02  0.12238557560E+03  0.13761733679E+03  0.00000000000E+00 0. -1.
         22    1    1    2    0    0  0.29122303837E+02  0.62474738631E+01 -0.20163209740E+02  0.35967965434E+02  0.00000000000E+00 0. -1.
</event>
<event>
 6    1  0.3624778E-005  0.1291309E+03  0.7818608E-02  0.1289254E+00
          2   -1    0    0  502    0  0.00000000000E+00  0.00000000000E+00  0.95031419284E+02  0.95031419284E+02  0.00000000000E+00 0.  1.
          1   -1    0    0  501    0 -0.00000000000E+00 -0.00000000000E+00 -0.17197752624E+04  0.17197752624E+04  0.00000000000E+00 0.  1.
          2    1    1    2  501    0  0.60271445711E+02 -0.22660133488E+02 -0.10438193436E+03  0.12264467799E+03  0.00000000000E+00 0.  1.
          1    1    1    2  502    0 -0.41138737771E+02  0.30335725712E+02 -0.15554132421E+04  0.15562528733E+04  0.00000000000E+00 0.  1.
         22    1    1    2    0    0  0.24818873445E+02 -0.30359313638E+02  0.66569445706E+02  0.77260310026E+02  0.00000000000E+00 0.  1.
         22    1    1    2    0    0 -0.43951581384E+02  0.22683721414E+02 -0.31518112382E+02  0.58648820376E+02  0.00000000000E+00 0.  1.
</event>
<event>
 6    1  0.3624778E-005  0.1506931E+03  0.7818608E-02  0.1269863E+00
          2   -1    0    0  502    0  0.00000000000E+00  0.00000000000E+00  0.25687374917E+03  0.25687374917E+03  0.00000000000E+00 0.  1.
          1   -1    0    0  501    0 -0.00000000000E+00 -0.00000000000E+00 -0.15033126696E+04  0.15033126696E+04  0.00000000000E+00 0. -1.
          2    1    1    2  501    0  0.12409526642E+03 -0.56982638375E+02 -0.66188284468E+01  0.13671307588E+03  0.00000000000E+00 0.  1.
          1    1    1    2  502    0 -0.12373590295E+03  0.80743596776E+02 -0.14055620399E+04  0.14133063186E+04  0.00000000000E+00 0. -1.
         22    1    1    2    0    0 -0.29582394977E+02 -0.19978373361E+02  0.17552545523E+03  0.17911850526E+03  0.00000000000E+00 0.  1.
         22    1    1    2    0    0  0.29223031502E+02 -0.37825850395E+01 -0.97835073043E+01  0.31048519046E+02  0.00000000000E+00 0.  1.
</event>
<event>
 6    1  0.3624778E-005  0.6825434E+02  0.7818608E-02  0.1385282E+00
          2   -1    0    0  502    0  0.00000000000E+00  0.00000000000E+00  0.35512642607E+03  0.35512642607E+03  0.00000000000E+00 0.  1.
          1   -1    0    0  501    0 -0.00000000000E+00 -0.00000000000E+00 -0.36108283371E+02  0.36108283371E+02  0.00000000000E+00 0.  1.
          2    1    1    2  501    0 -0.21268088893E+02  0.30497639214E+02  0.20218303289E+02  0.42322776263E+02  0.00000000000E+00 0.  1.
          1    1    1    2  502    0  0.13689470144E+02 -0.19865445801E+02  0.51671750622E+00  0.24130986856E+02  0.00000000000E+00 0.  1.
         22    1    1    2    0    0  0.25180765111E+02  0.34658521739E+02  0.30409506740E+02  0.52535913059E+02  0.00000000000E+00 0.  1.
         22    1    1    2    0    0 -0.17602146362E+02 -0.45290715152E+02  0.26787361516E+03  0.27224503326E+03  0.00000000000E+00 0.  1.
</event>
<event>
 6    1  0.3624778E-005  0.1298720E+03  0.7818608E-02  0.1230892E+00
          2   -1    0    0  502    0  0.00000000000E+00  0.00000000000E+00  0.11094407590E+04  0.11094407590E+04  0.00000000000E+00 0. -1.
          1   -1    0    0  501    0 -0.00000000000E+00 -0.00000000000E+00 -0.97413811483E+02  0.97413811483E+02  0.00000000000E+00 0. -1.
          2    1    1    2  501    0 -0.23274492484E+02  0.18778988947E+02  0.13564815586E+03  0.13890563204E+03  0.00000000000E+00 0. -1.
          1    1    1    2  502    0 -0.51154637644E+01 -0.13943161943E+03 -0.31314203650E+02  0.14299623707E+03  0.00000000000E+00 0. -1.
         22    1    1    2    0    0  0.71380333516E+02  0.11376463923E+03  0.68928269426E+03  0.70224509806E+03  0.00000000000E+00 0. -1.
         22    1    1    2    0    0 -0.42990377268E+02  0.68879912579E+01  0.21841030102E+03  0.22270760326E+03  0.00000000000E+00 0. -1.
</event>
<event>
 6    1  0.3624778E-005  0.3161603E+03  0.7818608E-02  0.1078001E+00
          2   -1    0    0  502    0  0.00000000000E+00  0.00000000000E+00  0.71927359829E+03  0.71927359829E+03  0.00000000000E+00 0. -1.
          1   -1    0    0  501    0 -0.00000000000E+00 -0.00000000000E+00 -0.98580919231E+03  0.98580919231E+03  0.00000000000E+00 0.  1.
          2    1    1    2  501    0  0.34498581821E+03 -0.68928984058E+02 -0.44620644938E+02  0.35462292871E+03  0.00000000000E+00 0. -1.
          1    1    1    2  502    0 -0.66382974095E+02 -0.63676296315E+01 -0.74031349330E+03  0.74331104816E+03  0.00000000000E+00 0.  1.
         22    1    1    2    0    0 -0.29126505459E+03  0.74882576935E+02  0.50960780464E+03  0.59172869366E+03  0.00000000000E+00 0. -1.
         22    1    1    2    0    0  0.12662210473E+02  0.41403675462E+00  0.87907395816E+01  0.15420120067E+02  0.00000000000E+00 0.  1.
</event>
<event>
 6    1  0.3624778E-005  0.9217732E+02  0.7818608E-02  0.1314194E+00
          2   -1    0    0  502    0  0.00000000000E+00  0.00000000000E+00  0.50386294928E+02  0.50386294928E+02  0.00000000000E+00 0. -1.
          1   -1    0    0  501    0 -0.00000000000E+00 -0.00000000000E+00 -0.67703587978E+03  0.67703587978E+03  0.00000000000E+00 0. -1.
          2    1    1    2  501    0 -0.59889216800E+00  0.66592299373E+02 -0.30379700729E+03  0.31101047353E+03  0.00000000000E+00 0. -1.
          1    1    1    2  502    0 -0.18957556907E+02 -0.11818993918E+02 -0.26219006279E+03  0.26314008932E+03  0.00000000000E+00 0. -1.
         22    1    1    2    0    0 -0.24721304771E+02 -0.27063157968E+01 -0.78739270211E+02  0.82573238571E+02  0.00000000000E+00 0. -1.
         22    1    1    2    0    0  0.44277753846E+02 -0.52066989658E+02  0.18076755441E+02  0.70698373284E+02  0.00000000000E+00 0. -1.
</event>
<event>
 6    1  0.3624778E-005  0.1116734E+03  0.7818608E-02  0.1290934E+00
          2   -1    0    0  502    0  0.00000000000E+00  0.00000000000E+00  0.20765703206E+03  0.20765703206E+03  0.00000000000E+00 0. -1.
          1   -1    0    0  501    0 -0.00000000000E+00 -0.00000000000E+00 -0.67087147887E+03  0.67087147887E+03  0.00000000000E+00 0. -1.
          2    1    1    2  501    0 -0.10062020442E+02 -0.58828416732E+02  0.34393490540E+02  0.68883518073E+02  0.00000000000E+00 0. -1.
          1    1    1    2  502    0  0.43297597208E+02  0.59452391771E+02 -0.62498676735E+03  0.62929939470E+03  0.00000000000E+00 0. -1.
         22    1    1    2    0    0 -0.56579154156E+02  0.15823931626E+02  0.10064969221E+02  0.59606216979E+02  0.00000000000E+00 0. -1.
         22    1    1    2    0    0  0.23343577390E+02 -0.16447906665E+02  0.11731386077E+03  0.12073938118E+03  0.00000000000E+00 0. -1.
</event>
<event>
 6    1  0.3624778E-005  0.1503166E+03  0.7818608E-02  0.1245853E+00
          2   -1    0    0  502    0  0.00000000000E+00  0.00000000000E+00  0.18758284110E+03  0.18758284110E+03  0.00000000000E+00 0. -1.
          1   -1    0    0  501    0 -0.00000000000E+00 -0.00000000000E+00 -0.42033379718E+03  0.42033379718E+03  0.00000000000E+00 0. -1.
          2    1    1    2  501    0  0.30346673787E+02  0.12250739177E+03 -0.22975171166E+03  0.26213513816E+03  0.00000000000E+00 0. -1.
          1    1    1    2  502    0 -0.21852419958E+02 -0.54915370905E+02 -0.13573689725E+03  0.14804638292E+03  0.00000000000E+00 0. -1.
         22    1    1    2    0    0  0.28330589221E+02 -0.23101526702E+02 -0.14691628858E+02  0.39397294071E+02  0.00000000000E+00 0. -1.
         22    1    1    2    0    0 -0.36824843050E+02 -0.44490494168E+02  0.14742928168E+03  0.15833782313E+03  0.00000000000E+00 0. -1.
</event>
<event>
 6    1  0.3624778E-005  0.7466125E+03  0.7818608E-02  0.1094020E+00
          2   -1    0    0  502    0  0.00000000000E+00  0.00000000000E+00  0.39582511231E+03  0.39582511231E+03  0.00000000000E+00 0. -1.
          1   -1    0    0  501    0 -0.00000000000E+00 -0.00000000000E+00 -0.43904774740E+04  0.43904774740E+04  0.00000000000E+00 0. -1.
          2    1    1    2  501    0 -0.30524316546E+03 -0.57826182374E+03 -0.66415022476E+02  0.65724507002E+03  0.00000000000E+00 0. -1.
          1    1    1    2  502    0  0.32602267201E+03  0.65214921050E+03 -0.39122565915E+04  0.39796156866E+04  0.00000000000E+00 0. -1.
         22    1    1    2    0    0 -0.31289804892E+02 -0.62591849643E+02 -0.66550944597E+02  0.96570284035E+02  0.00000000000E+00 0.  1.
         22    1    1    2    0    0  0.10510298350E+02 -0.11295537114E+02  0.50570196860E+02  0.52871545660E+02  0.00000000000E+00 0.  1.
</event>
<event>
 6    1  0.3624778E-005  0.1045646E+03  0.7818608E-02  0.1315653E+00
          2   -1    0    0  502    0  0.00000000000E+00  0.00000000000E+00  0.23527881949E+03  0.23527881949E+03  0.00000000000E+00 0. -1.
          1   -1    0    0  501    0 -0.00000000000E+00 -0.00000000000E+00 -0.25718337765E+03  0.25718337765E+03  0.00000000000E+00 0. -1.
          2    1    1    2  501    0  0.59286540962E+02 -0.70484764564E+00 -0.19395256754E+03  0.20281269488E+03  0.00000000000E+00 0. -1.
          1    1    1    2  502    0 -0.74892182094E+02  0.26101483883E+02  0.72892881546E+01  0.79644586265E+02  0.00000000000E+00 0. -1.
         22    1    1    2    0    0 -0.68193246028E+00 -0.45472310122E+02  0.17602497421E+03  0.18180480622E+03  0.00000000000E+00 0. -1.
         22    1    1    2    0    0  0.16287573592E+02  0.20075673885E+02 -0.11266252982E+02  0.28200109782E+02  0.00000000000E+00 0. -1.
</event>
<event>
 6    1  0.3624778E-005  0.8655004E+02  0.7818608E-02  0.1315910E+00
          2   -1    0    0  502    0  0.00000000000E+00  0.00000000000E+00  0.10801942786E+02  0.10801942786E+02  0.00000000000E+00 0.  1.
          1   -1    0    0  501    0 -0.00000000000E+00 -0.00000000000E+00 -0.18577666780E+04  0.18577666780E+04  0.00000000000E+00 0.  1.
          2    1    1    2  501    0  0.19447107047E+02 -0.24617074230E+02 -0.16412682053E+03  0.16709818530E+03  0.00000000000E+00 0.  1.
          1    1    1    2  502    0  0.22327541340E+02  0.80936467136E+00 -0.11751615263E+04  0.11753738925E+04  0.00000000000E+00 0.  1.
         22    1    1    2    0    0  0.76128498666E+01 -0.46690389564E+02 -0.12019324925E+03  0.12916797252E+03  0.00000000000E+00 0.  1.
         22    1    1    2    0    0 -0.49387498253E+02  0.70498099122E+02 -0.38748313915E+03  0.39692857051E+03  0.00000000000E+00 0.  1.
</event>
<event>
 6    1  0.3624778E-005  0.3543620E+03  0.7818608E-02  0.1140023E+00
          2   -1    0    0  502    0  0.00000000000E+00  0.00000000000E+00  0.11846815216E+03  0.11846815216E+03  0.00000000000E+00 0.  1.
          1   -1    0    0  501    0 -0.00000000000E+00 -0.00000000000E+00 -0.16398453150E+04  0.16398453150E+04  0.00000000000E+00 0.  1.
          2    1    1    2  501    0 -0.15306218168E+02 -0.28741381160E+03 -0.37694206144E+03  0.47426395298E+03  0.00000000000E+00 0.  1.
          1    1    1    2  502    0  0.12226757482E+02  0.29012503690E+03 -0.11236709877E+04  0.11605854209E+04  0.00000000000E+00 0.  1.
         22    1    1    2    0    0  0.30209794967E+02  0.33641678538E+02 -0.51605777818E+02  0.68611591958E+02  0.00000000000E+00 0.  1.
         22    1    1    2    0    0 -0.27130334281E+02 -0.36352903837E+02  0.30841664109E+02  0.54852501316E+02  0.00000000000E+00 0. -1.
</event>
<event>
 6    1  0.3624778E-005  0.1891552E+03  0.7818608E-02  0.1225585E+00
          2   -1    0    0  502    0  0.00000000000E+00  0.00000000000E+00  0.79745928554E+03  0.79745928554E+03  0.00000000000E+00 0.  1.
          1   -1    0    0  501    0 -0.00000000000E+00 -0.00000000000E+00 -0.35948879606E+02  0.35948879606E+02  0.00000000000E+00 0.  1.
          2    1    1    2  501    0  0.80130208970E+02 -0.13088916282E+02  0.44477469944E+03  0.45212465469E+03  0.00000000000E+00 0.  1.
          1    1    1    2  502    0 -0.88344547213E+01  0.31611261031E+02 -0.81662009297E+00  0.32832701421E+02  0.00000000000E+00 0.  1.
         22    1    1    2    0    0 -0.58215257157E+02 -0.56879405945E+02  0.10920373973E+03  0.13619742934E+03  0.00000000000E+00 0.  1.
         22    1    1    2    0    0 -0.13080497091E+02  0.38357061196E+02  0.20834858685E+03  0.21225337969E+03  0.00000000000E+00 0. -1.
</event>
<event>
 6    1  0.3624778E-005  0.7260944E+02  0.7818608E-02  0.1353240E+00
          2   -1    0    0  502    0  0.00000000000E+00  0.00000000000E+00  0.48103589213E+03  0.48103589213E+03  0.00000000000E+00 0. -1.
          1   -1    0    0  501    0 -0.00000000000E+00 -0.00000000000E+00 -0.10439913145E+03  0.10439913145E+03  0.00000000000E+00 0. -1.
          2    1    1    2  501    0 -0.18714808609E+02  0.80821419467E+02  0.44376963182E+02  0.94083265075E+02  0.00000000000E+00 0. -1.
          1    1    1    2  502    0 -0.30362514476E+02 -0.57002363841E+02 -0.52132323694E+02  0.82999583990E+02  0.00000000000E+00 0. -1.
         22    1    1    2    0    0  0.55076133071E+02 -0.42102342528E+02  0.38281928669E+03  0.38904574788E+03  0.00000000000E+00 0. -1.
         22    1    1    2    0    0 -0.59988099864E+01  0.18283286903E+02  0.15728345005E+01  0.19306426640E+02  0.00000000000E+00 0. -1.
</event>
<event>
 6    1  0.3624778E-005  0.5804531E+03  0.7818608E-02  0.1121394E+00
          2   -1    0    0  502    0  0.00000000000E+00  0.00000000000E+00  0.31999601613E+03  0.31999601613E+03  0.00000000000E+00 0.  1.
          1   -1    0    0  501    0 -0.00000000000E+00 -0.00000000000E+00 -0.11081482546E+04  0.11081482546E+04  0.00000000000E+00 0. -1.
          2    1    1    2  501    0 -0.10923718302E+03 -0.20303321660E+01 -0.16333665251E+03  0.19650889663E+03  0.00000000000E+00 0.  1.
          1    1    1    2  502    0  0.36975973260E+03 -0.29061960191E+03 -0.66780445174E+03  0.81678932329E+03  0.00000000000E+00 0. -1.
         22    1    1    2    0    0 -0.91337084888E+01 -0.13499614216E+02  0.40902861081E+01  0.16804602202E+02  0.00000000000E+00 0.  1.
         22    1    1    2    0    0 -0.25138884110E+03  0.30614954829E+03  0.38898579638E+02  0.39804144865E+03  0.00000000000E+00 0.  1.
</event>
<event>
 6    1  0.3624778E-005  0.9427039E+02  0.7818608E-02  0.1422493E+00
          2   -1    0    0  502    0  0.00000000000E+00  0.00000000000E+00  0.10165240944E+03  0.10165240944E+03  0.00000000000E+00 0. -1.
          1   -1    0    0  501    0 -0.00000000000E+00 -0.00000000000E+00 -0.13834652714E+03  0.13834652714E+03  0.00000000000E+00 0. -1.
          2    1    1    2  501    0 -0.13893265460E+02 -0.43058206857E+02 -0.16207164812E+02  0.48059381957E+02  0.00000000000E+00 0. -1.
          1    1    1    2  502    0 -0.75491673201E+01  0.36067915383E+02  0.38048829755E+02  0.52967894928E+02  0.00000000000E+00 0. -1.
         22    1    1    2    0    0  0.13294554562E+02  0.13657961250E+02 -0.97122155968E+02  0.98974735495E+02  0.00000000000E+00 0. -1.
         22    1    1    2    0    0  0.81478782177E+01 -0.66676697766E+01  0.38586373321E+02  0.39996924204E+02  0.00000000000E+00 0. -1.
</event>
<event>
 6    1  0.3624778E-005  0.1818930E+03  0.7818608E-02  0.1248826E+00
          2   -1    0    0  502    0  0.00000000000E+00  0.00000000000E+00  0.59574662366E+02  0.59574662366E+02  0.00000000000E+00 0.  1.
          1   -1    0    0  501    0 -0.00000000000E+00 -0.00000000000E+00 -0.63847731374E+03  0.63847731374E+03  0.00000000000E+00 0. -1.
          2    1    1    2  501    0 -0.19757886836E+02 -0.14656153968E+02 -0.14342356878E+03  0.14551802988E+03  0.00000000000E+00 0.  1.
          1    1    1    2  502    0  0.17294831880E+02  0.13376014568E+02 -0.43094298444E+03  0.43149725934E+03  0.00000000000E+00 0. -1.
         22    1    1    2    0    0 -0.29589474574E+02 -0.21451756126E+02 -0.49366183099E+02  0.61422592587E+02  0.00000000000E+00 0.  1.
         22    1    1    2    0    0  0.32052529529E+02  0.22731895526E+02  0.44830084939E+02  0.59614094299E+02  0.00000000000E+00 0.  1.
</event>
<event>
 6    1  0.3624778E-005  0.1336508E+03  0.7818608E-02  0.1310618E+00
          2   -1    0    0  502    0  0.00000000000E+00  0.00000000000E+00  0.26669703205E+03  0.26669703205E+03  0.00000000000E+00 0. -1.
          1   -1    0    0  501    0 -0.00000000000E+00 -0.00000000000E+00 -0.91487255307E+03  0.91487255307E+03  0.00000000000E+00 0. -1.
          2    1    1    2  501    0 -0.27792877697E+02 -0.39544548292E+02  0.57317605627E+02  0.74976818185E+02  0.00000000000E+00 0. -1.
          1    1    1    2  502    0 -0.17824163230E+02 -0.13228103687E+02 -0.88071994215E+03  0.88099960274E+03  0.00000000000E+00 0. -1.
         22    1    1    2    0    0  0.68810576036E+02  0.54197260075E+02  0.55639070015E+02  0.10376870668E+03  0.00000000000E+00 0. -1.
         22    1    1    2    0    0 -0.23193535108E+02 -0.14246080958E+01  0.11958774549E+03  0.12182445752E+03  0.00000000000E+00 0. -1.
</event>
<event>
 6    1  0.3624778E-005  0.7482459E+02  0.7818608E-02  0.1345823E+00
          2   -1    0    0  502    0  0.00000000000E+00  0.00000000000E+00  0.64351289401E+03  0.64351289401E+03  0.00000000000E+00 0.  1.
          1   -1    0    0  501    0 -0.00000000000E+00 -0.00000000000E+00 -0.18516246739E+02  0.18516246739E+02  0.00000000000E+00 0.  1.
          2    1    1    2  501    0  0.18240315203E+02  0.15632654196E+02  0.13437997074E+03  0.13651031284E+03  0.00000000000E+00 0.  1.
          1    1    1    2  502    0 -0.44946640606E+02  0.18088597469E+02  0.71788798886E+02  0.86608484028E+02  0.00000000000E+00 0.  1.
         22    1    1    2    0    0 -0.44617707155E+01 -0.76806800229E+02  0.21870497985E+03  0.23184274879E+03  0.00000000000E+00 0.  1.
         22    1    1    2    0    0  0.31168096119E+02  0.43085548565E+02  0.20012289780E+03  0.20706759508E+03  0.00000000000E+00 0.  1.
</event>
<event>
 6    1  0.3624778E-005  0.1091660E+03  0.7818608E-02  0.1361137E+00
          2   -1    0    0  502    0  0.00000000000E+00  0.00000000000E+00  0.36629831032E+02  0.36629831032E+02  0.00000000000E+00 0.  1.
          1   -1    0    0  501    0 -0.00000000000E+00 -0.00000000000E+00 -0.14403512599E+04  0.14403512599E+04  0.00000000000E+00 0.  1.
          2    1    1    2  501    0 -0.34631500139E+02  0.23802184859E+02 -0.11029532138E+03  0.11802941466E+03  0.00000000000E+00 0.  1.
          1    1    1    2  502    0  0.94339126368E+02 -0.45925187522E+02 -0.11586610763E+04  0.11634021159E+04  0.00000000000E+00 0.  1.
         22    1    1    2    0    0 -0.69866325707E+02  0.71003867387E+01 -0.15391274098E+03  0.16917698069E+03  0.00000000000E+00 0.  1.
         22    1    1    2    0    0  0.10158699478E+02  0.15022615924E+02  0.19147709827E+02  0.26372579622E+02  0.00000000000E+00 0. -1.
</event>
<event>
 6    1  0.3624778E-005  0.5424100E+02  0.7818608E-02  0.1438263E+00
          2   -1    0    0  502    0  0.00000000000E+00  0.00000000000E+00  0.19905056611E+03  0.19905056611E+03  0.00000000000E+00 0.  1.
          1   -1    0    0  501    0 -0.00000000000E+00 -0.00000000000E+00 -0.10414144387E+04  0.10414144387E+04  0.00000000000E+00 0. -1.
          2    1    1    2  501    0  0.50372822388E+02 -0.59254396611E+01 -0.26583465885E+02  0.57264410666E+02  0.00000000000E+00 0.  1.
          1    1    1    2  502    0 -0.42620536085E+02  0.21362527360E+02 -0.97613472608E+03  0.97729825086E+03  0.00000000000E+00 0. -1.
         22    1    1    2    0    0  0.35768374822E+02 -0.14941016270E+02 -0.10047212845E+01  0.38776540195E+02  0.00000000000E+00 0.  1.
         22    1    1    2    0    0 -0.43520661125E+02 -0.49607142932E+00  0.16135904069E+03  0.16712580305E+03  0.00000000000E+00 0.  1.
</event>
<event>
 6    1  0.3624778E-005  0.1305693E+03  0.7818608E-02  0.1269272E+00
          2   -1    0    0  502    0  0.00000000000E+00  0.00000000000E+00  0.13960271184E+03  0.13960271184E+03  0.00000000000E+00 0. -1.
          1   -1    0    0  501    0 -0.00000000000E+00 -0.00000000000E+00 -0.13950351821E+04  0.13950351821E+04  0.00000000000E+00 0.  1.
          2    1    1    2  501    0 -0.62930148197E+00  0.28843552299E+02 -0.30123179764E+01  0.29007250631E+02  0.00000000000E+00 0. -1.
          1    1    1    2  502    0 -0.92312140231E+02 -0.92635897665E+02 -0.13200514064E+04  0.13265137227E+04  0.00000000000E+00 0.  1.
         22    1    1    2    0    0  0.37471408413E+02  0.61734961158E+02 -0.20402983236E+02  0.75043944476E+02  0.00000000000E+00 0. -1.
         22    1    1    2    0    0  0.55470033300E+02  0.20573842085E+01  0.88034237370E+02  0.10407297619E+03  0.00000000000E+00 0. -1.
</event>
<event>
 6    1  0.3624778E-005  0.8692875E+02  0.7818608E-02  0.1312929E+00
          2   -1    0    0  502    0  0.00000000000E+00  0.00000000000E+00  0.13508953573E+03  0.13508953573E+03  0.00000000000E+00 0. -1.
          1   -1    0    0  501    0 -0.00000000000E+00 -0.00000000000E+00 -0.92786964472E+02  0.92786964472E+02  0.00000000000E+00 0. -1.
          2    1    1    2  501    0  0.40977828863E+02  0.23305273233E+02  0.34820386979E+01  0.47269893297E+02  0.00000000000E+00 0. -1.
          1    1    1    2  502    0 -0.30231905921E+02 -0.29089814091E+02  0.29212562954E+02  0.51122981660E+02  0.00000000000E+00 0. -1.
         22    1    1    2    0    0 -0.69576208833E+02  0.33046824104E+01 -0.95477408280E+00  0.69661189732E+02  0.00000000000E+00 0. -1.
         22    1    1    2    0    0  0.58830285892E+02  0.24798584468E+01  0.10562743685E+02  0.59822435508E+02  0.00000000000E+00 0. -1.
</event>
<event>
 6    1  0.3624778E-005  0.1327216E+03  0.7818608E-02  0.1293566E+00
          2   -1    0    0  502    0  0.00000000000E+00  0.00000000000E+00  0.20985976685E+03  0.20985976685E+03  0.00000000000E+00 0.  1.
          1   -1    0    0  501    0 -0.00000000000E+00 -0.00000000000E+00 -0.18390066895E+03  0.18390066895E+03  0.00000000000E+00 0. -1.
          2    1    1    2  501    0  0.64580246202E+02  0.26011696537E+01 -0.19034830239E+02  0.67377288794E+02  0.00000000000E+00 0.  1.
          1    1    1    2  502    0 -0.10653577292E+03  0.22967036720E+02 -0.86788471599E+02  0.13931832073E+03  0.00000000000E+00 0. -1.
         22    1    1    2    0    0 -0.33256288500E+02  0.20525896509E+01  0.91515435994E+02  0.97392345049E+02  0.00000000000E+00 0. -1.
         22    1    1    2    0    0  0.75211815218E+02 -0.27620796024E+02  0.40266963740E+02  0.89672481232E+02  0.00000000000E+00 0.  1.
</event>
<event>
 6    1  0.3624778E-005  0.1171025E+03  0.7818608E-02  0.1365451E+00
          2   -1    0    0  502    0  0.00000000000E+00  0.00000000000E+00  0.22004275195E+03  0.22004275195E+03  0.00000000000E+00 0. -1.
          1   -1    0    0  501    0 -0.00000000000E+00 -0.00000000000E+00 -0.63795176028E+03  0.63795176028E+03  0.00000000000E+00 0. -1.
          2    1    1    2  501    0 -0.20231343814E+02 -0.11890425261E+02  0.68432358973E+00  0.23476749864E+02  0.00000000000E+00 0. -1.
          1    1    1    2  502    0  0.15020310356E+02  0.71332808677E+02 -0.60110289053E+03  0.60550694820E+03  0.00000000000E+00 0. -1.
         22    1    1    2    0    0 -0.73826336916E+01  0.11504376224E+02 -0.14084831039E+02  0.19627440432E+02  0.00000000000E+00 0. -1.
         22    1    1    2    0    0  0.12593667149E+02 -0.70946759641E+02  0.19659438965E+03  0.20938337374E+03  0.00000000000E+00 0. -1.
</event>
<event>
 6    1  0.3624778E-005  0.9973956E+02  0.7818608E-02  0.1402889E+00
          2   -1    0    0  502    0  0.00000000000E+00  0.00000000000E+00  0.18181345926E+02  0.18181345926E+02  0.00000000000E+00 0. -1.
          1   -1    0    0  501    0 -0.00000000000E+00 -0.00000000000E+00 -0.87547922984E+03  0.87547922984E+03  0.00000000000E+00 0. -1.
          2    1    1    2  501    0 -0.14954956710E+01  0.28159157013E+02 -0.36118940189E+03  0.36228850198E+03  0.00000000000E+00 0. -1.
          1    1    1    2  502    0 -0.12263806119E+02  0.41638430282E+02 -0.16167695295E+03  0.16740249978E+03  0.00000000000E+00 0. -1.
         22    1    1    2    0    0  0.40690435609E+01 -0.62623411312E+02 -0.34330859525E+03  0.34899719244E+03  0.00000000000E+00 0. -1.
         22    1    1    2    0    0  0.96902582287E+01 -0.71741759837E+01  0.88770661797E+01  0.14972381559E+02  0.00000000000E+00 0. -1.
</event>
<event>
 6    1  0.3624778E-005  0.7313816E+02  0.7818608E-02  0.1414373E+00
          2   -1    0    0  502    0  0.00000000000E+00  0.00000000000E+00  0.17439252278E+03  0.17439252278E+03  0.00000000000E+00 0. -1.
          1   -1    0    0  501    0 -0.00000000000E+00 -0.00000000000E+00 -0.60567699657E+02  0.60567699657E+02  0.00000000000E+00 0. -1.
          2    1    1    2  501    0  0.33697424848E+02 -0.17246321647E+02 -0.10704581585E+01  0.37869485505E+02  0.00000000000E+00 0. -1.
          1    1    1    2  502    0 -0.29662927787E+02  0.15111177919E+01  0.39040677781E+02  0.49054533771E+02  0.00000000000E+00 0. -1.
         22    1    1    2    0    0 -0.27754150771E+02  0.62342838715E+01 -0.28697684390E+02  0.40406883941E+02  0.00000000000E+00 0.  1.
         22    1    1    2    0    0  0.23719653711E+02  0.95009199840E+01  0.10455228789E+03  0.10762931922E+03  0.00000000000E+00 0. -1.
</event>
<event>
 6    1  0.3624778E-005  0.1374816E+03  0.7818608E-02  0.1266502E+00
          2   -1    0    0  502    0  0.00000000000E+00  0.00000000000E+00  0.33937035371E+02  0.33937035371E+02  0.00000000000E+00 0. -1.
          1   -1    0    0  501    0 -0.00000000000E+00 -0.00000000000E+00 -0.75584050683E+03  0.75584050683E+03  0.00000000000E+00 0. -1.
          2    1    1    2  501    0 -0.63595998811E+02  0.77801947371E+02 -0.17041542756E+03  0.19783582090E+03  0.00000000000E+00 0. -1.
          1    1    1    2  502    0 -0.13804549725E+02 -0.63987046145E+02 -0.22355201867E+03  0.23293864582E+03  0.00000000000E+00 0. -1.
         22    1    1    2    0    0  0.36380601049E+02 -0.34554819999E+02 -0.30217293521E+03  0.30631040872E+03  0.00000000000E+00 0. -1.
         22    1    1    2    0    0  0.41019947486E+02  0.20739918774E+02 -0.25763090018E+02  0.52692666756E+02  0.00000000000E+00 0. -1.
</event>
<event>
 6    1  0.3624778E-005  0.8242189E+02  0.7818608E-02  0.1324621E+00
          2   -1    0    0  502    0  0.00000000000E+00  0.00000000000E+00  0.42661711356E+03  0.42661711356E+03  0.00000000000E+00 0. -1.
          1   -1    0    0  501    0 -0.00000000000E+00 -0.00000000000E+00 -0.63425428600E+02  0.63425428600E+02  0.00000000000E+00 0. -1.
          2    1    1    2  501    0  0.31735393115E+02 -0.20747132056E+02  0.10413920406E+03  0.11082667769E+03  0.00000000000E+00 0. -1.
          1    1    1    2  502    0  0.75784324019E+01  0.25996283399E+02 -0.42916430703E+02  0.50745043231E+02  0.00000000000E+00 0. -1.
         22    1    1    2    0    0  0.34432481076E+02 -0.30495358448E+02  0.70028563102E+02  0.83782828134E+02  0.00000000000E+00 0. -1.
         22    1    1    2    0    0 -0.73746306593E+02  0.25246207105E+02  0.23194034850E+03  0.24468799311E+03  0.00000000000E+00 0. -1.
</event>
<event>
 6    1  0.3624778E-005  0.5502235E+02  0.7818608E-02  0.1431912E+00
          2   -1    0    0  502    0  0.00000000000E+00  0.00000000000E+00  0.82161278877E+02  0.82161278877E+02  0.00000000000E+00 0.  1.
          1   -1    0    0  501    0 -0.00000000000E+00 -0.00000000000E+00 -0.11138382667E+04  0.11138382667E+04  0.00000000000E+00 0. -1.
          2    1    1    2  501    0  0.21583570610E+02  0.13290666178E+02 -0.35044448507E+02  0.43250499407E+02  0.00000000000E+00 0.  1.
          1    1    1    2  502    0 -0.99694690155E+01 -0.28838965856E+02 -0.10224473634E+04  0.10229025795E+04  0.00000000000E+00 0. -1.
         22    1    1    2    0    0  0.18605164525E+02  0.46967168701E+02 -0.30208339692E+02  0.58860945199E+02  0.00000000000E+00 0.  1.
         22    1    1    2    0    0 -0.30219266119E+02 -0.31418869023E+02  0.56023163780E+02  0.70985521449E+02  0.00000000000E+00 0.  1.
</event>
<event>
 6    1  0.3624778E-005  0.9805533E+02  0.7818608E-02  0.1365824E+00
          2   -1    0    0  502    0  0.00000000000E+00  0.00000000000E+00  0.89718897756E+02  0.89718897756E+02  0.00000000000E+00 0. -1.
          1   -1    0    0  501    0 -0.00000000000E+00 -0.00000000000E+00 -0.37848865277E+03  0.37848865277E+03  0.00000000000E+00 0. -1.
          2    1    1    2  501    0  0.42435740898E+02  0.28837029407E+02 -0.26442932426E+03  0.26936078760E+03  0.00000000000E+00 0. -1.
          1    1    1    2  502    0 -0.27433109327E+02  0.20660152618E+02  0.34408579637E+02  0.48614480828E+02  0.00000000000E+00 0. -1.
         22    1    1    2    0    0 -0.21485191184E+02 -0.85895619306E+01  0.38281852522E+02  0.44731356417E+02  0.00000000000E+00 0. -1.
         22    1    1    2    0    0  0.64825596137E+01 -0.40907620095E+02 -0.97030862913E+02  0.10550092568E+03  0.00000000000E+00 0.  1.
</event>
<event>
 6    1  0.3624778E-005  0.9466608E+02  0.7818608E-02  0.1293539E+00
          2   -1    0    0  502    0  0.00000000000E+00  0.00000000000E+00  0.13707203092E+03  0.13707203092E+03  0.00000000000E+00 0.  1.
          1   -1    0    0  501    0 -0.00000000000E+00 -0.00000000000E+00 -0.66576108320E+03  0.66576108320E+03  0.00000000000E+00 0.  1.
          2    1    1    2  501    0  0.49474466230E+01  0.60415961407E+02 -0.58860463659E+02  0.84493312179E+02  0.00000000000E+00 0.  1.
          1    1    1    2  502    0  0.32732455485E+02  0.13542801758E+02 -0.54754612047E+03  0.54869078283E+03  0.00000000000E+00 0.  1.
         22    1    1    2    0    0 -0.11184711362E+02  0.17611353467E+02 -0.22945632421E+02  0.31012248974E+02  0.00000000000E+00 0.  1.
         22    1    1    2    0    0 -0.26495190746E+02 -0.91570116633E+02  0.10066316427E+03  0.13863677014E+03  0.00000000000E+00 0.  1.
</event>
<event>
 6    1  0.3624778E-005  0.6791660E+02  0.7818608E-02  0.1374793E+00
          2   -1    0    0  502    0  0.00000000000E+00  0.00000000000E+00  0.52770474506E+03  0.52770474506E+03  0.00000000000E+00 0.  1.
          1   -1    0    0  501    0 -0.00000000000E+00 -0.00000000000E+00 -0.14094110086E+03  0.14094110086E+03  0.00000000000E+00 0.  1.
          2    1    1    2  501    0 -0.76325009491E+02  0.41049376574E+02  0.33459707890E+03  0.34563819754E+03  0.00000000000E+00 0.  1.
          1    1    1    2  502    0  0.59030754848E+02 -0.17525235218E+02 -0.10361858520E+03  0.12053453898E+03  0.00000000000E+00 0.  1.
         22    1    1    2    0    0 -0.16622020190E+02  0.26004908646E+02  0.13571199918E+03  0.13917720198E+03  0.00000000000E+00 0.  1.
         22    1    1    2    0    0  0.33916274833E+02 -0.49529050003E+02  0.20073151320E+02  0.63295907424E+02  0.00000000000E+00 0.  1.
</event>
<event>
 6    1  0.3624778E-005  0.8313835E+02  0.7818608E-02  0.1365661E+00
          2   -1    0    0  502    0  0.00000000000E+00  0.00000000000E+00  0.29207976451E+03  0.29207976451E+03  0.00000000000E+00 0.  1.
          1   -1    0    0  501    0 -0.00000000000E+00 -0.00000000000E+00 -0.15735340411E+04  0.15735340411E+04  0.00000000000E+00 0.  1.
          2    1    1    2  501    0  0.26649359400E+02 -0.64657173352E+01  0.37253885710E+02  0.46258467955E+02  0.00000000000E+00 0.  1.
          1    1    1    2  502    0 -0.45437779790E+02  0.51506449718E+02 -0.15509353127E+04  0.15524554262E+04  0.00000000000E+00 0.  1.
         22    1    1    2    0    0  0.37729950335E+02 -0.12023129985E+02  0.22461792841E+03  0.22808182429E+03  0.00000000000E+00 0.  1.
         22    1    1    2    0    0 -0.18941529945E+02 -0.33017602398E+02  0.76092220609E+01  0.38818087088E+02  0.00000000000E+00 0.  1.
</event>
<event>
 6    1  0.3624778E-005  0.2748785E+03  0.7818608E-02  0.1144015E+00
          2   -1    0    0  502    0  0.00000000000E+00  0.00000000000E+00  0.69618310813E+02  0.69618310813E+02  0.00000000000E+00 0. -1.
          1   -1    0    0  501    0 -0.00000000000E+00 -0.00000000000E+00 -0.80812035268E+03  0.80812035268E+03  0.00000000000E+00 0. -1.
          2    1    1    2  501    0 -0.42750299896E+02  0.81520155992E+02 -0.39370822815E+03  0.40432572622E+03  0.00000000000E+00 0. -1.
          1    1    1    2  502    0  0.54174754608E+02  0.23326758935E+02 -0.29377097033E+03  0.29963381773E+03  0.00000000000E+00 0. -1.
         22    1    1    2    0    0 -0.28834571823E+02 -0.16494746469E+02  0.35695869082E+02  0.48761708982E+02  0.00000000000E+00 0. -1.
         22    1    1    2    0    0  0.17410117112E+02 -0.88352168458E+02 -0.86718712464E+02  0.12501741055E+03  0.00000000000E+00 0. -1.
</event>
<event>
 6    1  0.3624778E-005  0.4241279E+03  0.7818608E-02  0.1147811E+00
          2   -1    0    0  502    0  0.00000000000E+00  0.00000000000E+00  0.89477727398E+03  0.89477727398E+03  0.00000000000E+00 0.  1.
          1   -1    0    0  501    0 -0.00000000000E+00 -0.00000000000E+00 -0.27250031199E+03  0.27250031199E+03  0.00000000000E+00 0.  1.
          2    1    1    2  501    0  0.10707219287E+03  0.22015230875E+03  0.51195853003E+03  0.56747954149E+03  0.00000000000E+00 0.  1.
          1    1    1    2  502    0  0.18118785552E+02 -0.10436228891E+03 -0.19839804797E+03  0.22490345300E+03  0.00000000000E+00 0.  1.
         22    1    1    2    0    0 -0.14007529312E+03 -0.99652304266E+02  0.19884690854E+03  0.26285311967E+03  0.00000000000E+00 0. -1.
         22    1    1    2    0    0  0.14884314693E+02 -0.16137715577E+02  0.10986957139E+03  0.11204147181E+03  0.00000000000E+00 0. -1.
</event>
<event>
 6    1  0.3624778E-005  0.5501955E+02  0.7818608E-02  0.1442676E+00
          2   -1    0    0  502    0  0.00000000000E+00  0.00000000000E+00  0.16880884945E+03  0.16880884945E+03  0.00000000000E+00 0. -1.
          1   -1    0    0  501    0 -0.00000000000E+00 -0.00000000000E+00 -0.26467847432E+03  0.26467847432E+03  0.00000000000E+00 0.  1.
          2    1    1    2  501    0  0.41229382246E+02 -0.47957199881E+02 -0.91934453754E+02  0.11158718012E+03  0.00000000000E+00 0. -1.
          1    1    1    2  502    0 -0.20497236837E+01  0.41642197254E+02 -0.13030111563E+03  0.13680882535E+03  0.00000000000E+00 0.  1.
         22    1    1    2    0    0 -0.35182376065E+02  0.16924978751E+02  0.15206789579E+03  0.15699967968E+03  0.00000000000E+00 0. -1.
         22    1    1    2    0    0 -0.39972824967E+01 -0.10609976123E+02 -0.25701951270E+02  0.28091638610E+02  0.00000000000E+00 0. -1.
</event>
<event>
 6    1  0.3624778E-005  0.1738602E+03  0.7818608E-02  0.1212858E+00
          2   -1    0    0  502    0  0.00000000000E+00  0.00000000000E+00  0.65113396730E+03  0.65113396730E+03  0.00000000000E+00 0. -1.
          1   -1    0    0  501    0 -0.00000000000E+00 -0.00000000000E+00 -0.26628043766E+03  0.26628043766E+03  0.00000000000E+00 0.  1.
          2    1    1    2  501    0  0.28316530221E+02  0.30512336901E+01  0.65913801649E+02  0.71803657000E+02  0.00000000000E+00 0. -1.
          1    1    1    2  502    0 -0.12609281961E+03 -0.12048212145E+03 -0.21439457223E+03  0.27636999358E+03  0.00000000000E+00 0.  1.
         22    1    1    2    0    0 -0.11229023583E+02  0.72974698451E+02  0.13495575381E+03  0.15383254880E+03  0.00000000000E+00 0. -1.
         22    1    1    2    0    0  0.10900531297E+03  0.44456189310E+02  0.39837854642E+03  0.41540820559E+03  0.00000000000E+00 0. -1.
</event>
<event>
 6    1  0.3624778E-005  0.8043262E+02  0.7818608E-02  0.1348639E+00
          2   -1    0    0  502    0  0.00000000000E+00  0.00000000000E+00  0.73706741262E+02  0.73706741262E+02  0.00000000000E+00 0.  1.
          1   -1    0    0  501    0 -0.00000000000E+00 -0.00000000000E+00 -0.55289529445E+03  0.55289529445E+03  0.00000000000E+00 0.  1.
          2    1    1    2  501    0  0.65716937443E+02 -0.96364361358E+01 -0.32432950133E+02  0.73915309799E+02  0.00000000000E+00 0.  1.
          1    1    1    2  502    0 -0.69792776247E+02 -0.52176511743E+01 -0.41882568277E+03  0.42463302751E+03  0.00000000000E+00 0.  1.
         22    1    1    2    0    0 -0.55587482047E+02 -0.70248390011E+01  0.54106547048E+01  0.56290245227E+02  0.00000000000E+00 0.  1.
         22    1    1    2    0    0  0.59663320851E+02  0.21878926311E+02 -0.33340574983E+02  0.71763453176E+02  0.00000000000E+00 0.  1.
</event>
<event>
 6    1  0.3624778E-005  0.9074812E+02  0.7818608E-02  0.1312183E+00
          2   -1    0    0  502    0  0.00000000000E+00  0.00000000000E+00  0.25041916605E+03  0.25041916605E+03  0.00000000000E+00 0.  1.
          1   -1    0    0  501    0 -0.00000000000E+00 -0.00000000000E+00 -0.64535267823E+03  0.64535267823E+03  0.00000000000E+00 0.  1.
          2    1    1    2  501    0 -0.44831881018E+02 -0.30211569677E+02  0.30041785419E+02  0.61847759612E+02  0.00000000000E+00 0.  1.
          1    1    1    2  502    0  0.37976326368E+02  0.23357820525E+02 -0.60862777274E+03  0.61025859674E+03  0.00000000000E+00 0.  1.
         22    1    1    2    0    0  0.13499047346E+02  0.64999065039E+02  0.12041940561E+03  0.13750613071E+03  0.00000000000E+00 0.  1.
         22    1    1    2    0    0 -0.66434926965E+01 -0.58145315887E+02  0.63233069529E+02  0.86159357222E+02  0.00000000000E+00 0.  1.
</event>
<event>
 6    1  0.3624778E-005  0.3007649E+03  0.7818608E-02  0.1165110E+00
          2   -1    0    0  502    0  0.00000000000E+00  0.00000000000E+00  0.20967220035E+03  0.20967220035E+03  0.00000000000E+00 0. -1.
          1   -1    0    0  501    0 -0.00000000000E+00 -0.00000000000E+00 -0.57472038896E+03  0.57472038896E+03  0.00000000000E+00 0.  1.
          2    1    1    2  501    0  0.11352971289E+03 -0.37247245360E+02 -0.44617564282E+02  0.12754246366E+03  0.00000000000E+00 0. -1.
          1    1    1    2  502    0 -0.26683041063E+03  0.16496477973E+03 -0.27136950848E+03  0.41479302878E+03  0.00000000000E+00 0.  1.
         22    1    1    2    0    0  0.29719144420E+02 -0.28319553487E+02  0.42369160184E+02  0.58994664076E+02  0.00000000000E+00 0. -1.
         22    1    1    2    0    0  0.12358155333E+03 -0.99397980880E+02 -0.91430276030E+02  0.18306243279E+03  0.00000000000E+00 0. -1.
</event>
<event>
 6    1  0.3624778E-005  0.1325280E+03  0.7818608E-02  0.1346336E+00
          2   -1    0    0  502    0  0.00000000000E+00  0.00000000000E+00  0.75653343380E+02  0.75653343380E+02  0.00000000000E+00 0.  1.
          1   -1    0    0  501    0 -0.00000000000E+00 -0.00000000000E+00 -0.12656865513E+04  0.12656865513E+04  0.00000000000E+00 0.  1.
          2    1    1    2  501    0  0.18470383045E+02  0.54175322710E+02 -0.40734733605E+02  0.70252680820E+02  0.00000000000E+00 0.  1.
          1    1    1    2  502    0  0.13334879045E+01  0.21166180361E+02 -0.11253578947E+04  0.11255577179E+04  0.00000000000E+00 0.  1.
         22    1    1    2    0    0 -0.13028167959E+02 -0.17158572723E+00  0.42824322930E+02  0.44762542783E+02  0.00000000000E+00 0.  1.
         22    1    1    2    0    0 -0.67757029902E+01 -0.75169917343E+02 -0.66764902596E+02  0.10076695313E+03  0.00000000000E+00 0.  1.
</event>
<event>
 6    1  0.3624778E-005  0.4030725E+02  0.7818608E-02  0.1509886E+00
          2   -1    0    0  502    0  0.00000000000E+00  0.00000000000E+00  0.62274117103E+03  0.62274117103E+03  0.00000000000E+00 0. -1.
          1   -1    0    0  501    0 -0.00000000000E+00 -0.00000000000E+00 -0.23106842467E+03  0.23106842467E+03  0.00000000000E+00 0. -1.
          2    1    1    2  501    0  0.38496677818E+02 -0.68658691383E+01 -0.16300680849E+03  0.16763160197E+03  0.00000000000E+00 0. -1.
          1    1    1    2  502    0 -0.24273941572E+02 -0.11127950678E+02  0.55807044059E+03  0.55870893334E+03  0.00000000000E+00 0. -1.
         22    1    1    2    0    0  0.11640495577E+02 -0.98380659140E+01 -0.58544374574E+02  0.60495722762E+02  0.00000000000E+00 0. -1.
         22    1    1    2    0    0 -0.25863231823E+02  0.27831885730E+02  0.55153488839E+02  0.66973337641E+02  0.00000000000E+00 0. -1.
</event>
<event>
 6    1  0.3624778E-005  0.7723555E+02  0.7818608E-02  0.1396817E+00
          2   -1    0    0  502    0  0.00000000000E+00  0.00000000000E+00  0.26164567254E+02  0.26164567254E+02  0.00000000000E+00 0.  1.
          1   -1    0    0  501    0 -0.00000000000E+00 -0.00000000000E+00 -0.35004062428E+04  0.35004062428E+04  0.00000000000E+00 0. -1.
          2    1    1    2  501    0  0.46345925428E+02 -0.36648082458E+01 -0.31051353469E+03  0.31397457039E+03  0.00000000000E+00 0.  1.
          1    1    1    2  502    0 -0.56732926571E+02  0.42104750744E+02 -0.30185052529E+04  0.30193319455E+04  0.00000000000E+00 0. -1.
         22    1    1    2    0    0 -0.22532547932E+02 -0.17591617241E+02  0.12207116256E+02  0.31083667750E+02  0.00000000000E+00 0.  1.
         22    1    1    2    0    0  0.32919549076E+02 -0.20848325257E+02 -0.15743000417E+03  0.16218062644E+03  0.00000000000E+00 0.  1.
</event>
<event>
 6    1  0.3624778E-005  0.1057744E+03  0.7818608E-02  0.1305852E+00
          2   -1    0    0  502    0  0.00000000000E+00  0.00000000000E+00  0.16981745266E+03  0.16981745266E+03  0.00000000000E+00 0.  1.
          1   -1    0    0  501    0 -0.00000000000E+00 -0.00000000000E+00 -0.72299033026E+03  0.72299033026E+03  0.00000000000E+00 0.  1.
          2    1    1    2  501    0  0.35029180154E+02 -0.29919503274E+02 -0.84300046596E+02  0.96066216718E+02  0.00000000000E+00 0.  1.
          1    1    1    2  502    0 -0.55749790182E+02  0.56153177008E+02 -0.60395829336E+03  0.60911972429E+03  0.00000000000E+00 0.  1.
         22    1    1    2    0    0  0.49791370894E+02 -0.16574549157E+02  0.14596655752E+03  0.15511328831E+03  0.00000000000E+00 0.  1.
         22    1    1    2    0    0 -0.29070760865E+02 -0.96591245774E+01 -0.10881095167E+02  0.32508553596E+02  0.00000000000E+00 0.  1.
</event>
<event>
 6    1  0.3624778E-005  0.9604343E+02  0.7818608E-02  0.1293624E+00
          2   -1    0    0  502    0  0.00000000000E+00  0.00000000000E+00  0.10489083638E+03  0.10489083638E+03  0.00000000000E+00 0. -1.
          1   -1    0    0  501    0 -0.00000000000E+00 -0.00000000000E+00 -0.10868733225E+04  0.10868733225E+04  0.00000000000E+00 0.  1.
          2    1    1    2  501    0 -0.58506099458E+01  0.71719503067E+02 -0.23831297576E+02  0.75801368728E+02  0.00000000000E+00 0. -1.
          1    1    1    2  502    0  0.46296841188E+02 -0.33181912160E+02 -0.97331165539E+03  0.97497693066E+03  0.00000000000E+00 0.  1.
         22    1    1    2    0    0  0.18473135272E+02  0.27163891919E+02 -0.27614621085E+02  0.42915044549E+02  0.00000000000E+00 0. -1.
         22    1    1    2    0    0 -0.58919366514E+02 -0.65701482825E+02  0.42775087929E+02  0.98070814941E+02  0.00000000000E+00 0. -1.
</event>
<event>
 6    1  0.3624778E-005  0.1117437E+03  0.7818608E-02  0.1294140E+00
          2   -1    0    0  502    0  0.00000000000E+00  0.00000000000E+00  0.58613645016E+03  0.58613645016E+03  0.00000000000E+00 0. -1.
          1   -1    0    0  501    0 -0.00000000000E+00 -0.00000000000E+00 -0.47470183706E+02  0.47470183706E+02  0.00000000000E+00 0.  1.
          2    1    1    2  501    0  0.87965475308E+01  0.24590929215E+02  0.23645577505E+02  0.35230759056E+02  0.00000000000E+00 0. -1.
          1    1    1    2  502    0  0.24391752676E+01 -0.35815949442E+02 -0.25568104481E+02  0.44073345427E+02  0.00000000000E+00 0.  1.
         22    1    1    2    0    0 -0.63443312888E+02  0.15409622299E+02  0.37459589867E+03  0.38024281415E+03  0.00000000000E+00 0. -1.
         22    1    1    2    0    0  0.52207590089E+02 -0.41846020724E+01  0.16599289477E+03  0.17405971524E+03  0.00000000000E+00 0.  1.
</event>
<event>
 6    1  0.3624778E-005  0.3124821E+03  0.7818608E-02  0.1189442E+00
          2   -1    0    0  502    0  0.00000000000E+00  0.00000000000E+00  0.80308119515E+03  0.80308119515E+03  0.00000000000E+00 0. -1.
          1   -1    0    0  501    0 -0.00000000000E+00 -0.00000000000E+00 -0.72087000742E+02  0.72087000742E+02  0.00000000000E+00 0.  1.
          2    1    1    2  501    0 -0.65035851193E+02  0.12794687595E+03  0.32780243336E+03  0.35784703481E+03  0.00000000000E+00 0. -1.
          1    1    1    2  502    0  0.42822919342E+02  0.27436164933E+02 -0.16004987505E+02  0.53317025351E+02  0.00000000000E+00 0.  1.
         22    1    1    2    0    0  0.86150473065E+01 -0.17155249900E+03  0.32645768050E+03  0.36888900242E+03  0.00000000000E+00 0. -1.
         22    1    1    2    0    0  0.13597884545E+02  0.16169458113E+02  0.92739068056E+02  0.95115133306E+02  0.00000000000E+00 0. -1.
</event>
<event>
 6    1  0.3624778E-005  0.9611766E+02  0.7818608E-02  0.1326859E+00
          2   -1    0    0  502    0  0.00000000000E+00  0.00000000000E+00  0.39265235641E+02  0.39265235641E+02  0.00000000000E+00 0.  1.
          1   -1    0    0  501    0 -0.00000000000E+00 -0.00000000000E+00 -0.50088801759E+03  0.50088801759E+03  0.00000000000E+00 0. -1.
          2    1    1    2  501    0 -0.41417595201E+02 -0.11021124668E+02 -0.57300878455E+02  0.71556083269E+02  0.00000000000E+00 0.  1.
          1    1    1    2  502    0  0.21668214509E+02 -0.38697994194E+01 -0.31597678124E+03  0.31674250291E+03  0.00000000000E+00 0. -1.
         22    1    1    2    0    0  0.13694424152E+02 -0.44502484604E+02 -0.16491913991E+01  0.46591074478E+02  0.00000000000E+00 0.  1.
         22    1    1    2    0    0  0.60549565392E+01  0.59393408691E+02 -0.86695930864E+02  0.10526359258E+03  0.00000000000E+00 0. -1.
</event>
<event>
 6    1  0.3624778E-005  0.1670166E+03  0.7818608E-02  0.1228786E+00
          2   -1    0    0  502    0  0.00000000000E+00  0.00000000000E+00  0.29313175607E+03  0.29313175607E+03  0.00000000000E+00 0. -1.
          1   -1    0    0  501    0 -0.00000000000E+00 -0.00000000000E+00 -0.37061669343E+03  0.37061669343E+03  0.00000000000E+00 0. -1.
          2    1    1    2  501    0  0.10103413457E+03  0.10106842510E+03 -0.29460021233E+03  0.32743244800E+03  0.00000000000E+00 0. -1.
          1    1    1    2  502    0 -0.51427180638E+02 -0.10269174894E+03  0.12488262983E+03  0.16966443777E+03  0.00000000000E+00 0. -1.
         22    1    1    2    0    0 -0.54594660198E+02 -0.24005327809E+02  0.11658133831E+03  0.13095052931E+03  0.00000000000E+00 0.  1.
         22    1    1    2    0    0  0.49877062659E+01  0.25628651648E+02 -0.24348693176E+02  0.35701034418E+02  0.00000000000E+00 0. -1.
</event>
<event>
 6    1  0.3624778E-005  0.8060875E+02  0.7818608E-02  0.1334292E+00
          2   -1    0    0  502    0  0.00000000000E+00  0.00000000000E+00  0.82165288633E+02  0.82165288633E+02  0.00000000000E+00 0. -1.
          1   -1    0    0  501    0 -0.00000000000E+00 -0.00000000000E+00 -0.99657732604E+03  0.99657732604E+03  0.00000000000E+00 0.  1.
          2    1    1    2  501    0 -0.32894542988E+02  0.13602874341E+02  0.56490851282E+01  0.36041660777E+02  0.00000000000E+00 0. -1.
          1    1    1    2  502    0 -0.72153990036E+01  0.20215888649E+02 -0.90498056726E+03  0.90523509170E+03  0.00000000000E+00 0.  1.
         22    1    1    2    0    0 -0.36339133556E+02 -0.20083456356E+02  0.26606364335E+02  0.49313045636E+02  0.00000000000E+00 0. -1.
         22    1    1    2    0    0  0.76449075547E+02 -0.13735306634E+02 -0.41686919616E+02  0.88152816560E+02  0.00000000000E+00 0. -1.
</event>
<event>
 6    1  0.3624778E-005  0.1267002E+03  0.7818608E-02  0.1275938E+00
          2   -1    0    0  502    0  0.00000000000E+00  0.00000000000E+00  0.10888250009E+03  0.10888250009E+03  0.00000000000E+00 0. -1.
          1   -1    0    0  501    0 -0.00000000000E+00 -0.00000000000E+00 -0.25757575907E+03  0.25757575907E+03  0.00000000000E+00 0.  1.
          2    1    1    2  501    0 -0.42702210755E+02 -0.16049226944E+02 -0.51523088812E+02  0.68816314705E+02  0.00000000000E+00 0. -1.
          1    1    1    2  502    0  0.60149986679E+02  0.14899203143E+02 -0.14563921613E+03  0.15827440862E+03  0.00000000000E+00 0.  1.
         22    1    1    2    0    0 -0.67523180456E+02  0.19786442651E+02  0.49325851983E+02  0.85929755531E+02  0.00000000000E+00 0. -1.
         22    1    1    2    0    0  0.50075404531E+02 -0.18636418850E+02 -0.85680603083E+00  0.53437780297E+02  0.00000000000E+00 0.  1.
</event>
<event>
 6    1  0.3624778E-005  0.1237755E+03  0.7818608E-02  0.1284450E+00
          2   -1    0    0  502    0  0.00000000000E+00  0.00000000000E+00  0.64240779869E+03  0.64240779869E+03  0.00000000000E+00 0.  1.
          1   -1    0    0  501    0 -0.00000000000E+00 -0.00000000000E+00 -0.31791925762E+03  0.31791925762E+03  0.00000000000E+00 0. -1.
          2    1    1    2  501    0  0.52555382691E+01  0.45357660996E+02  0.91434348285E+02  0.10220165429E+03  0.00000000000E+00 0.  1.
          1    1    1    2  502    0 -0.25271398784E+02 -0.20673723015E+02 -0.30379410547E+03  0.30554362199E+03  0.00000000000E+00 0. -1.
         22    1    1    2    0    0 -0.33782812429E+02  0.34023849879E+02  0.26533864224E+03  0.26963585786E+03  0.00000000000E+00 0.  1.
         22    1    1    2    0    0  0.53798672944E+02 -0.58707787860E+02  0.27150965602E+03  0.28294592218E+03  0.00000000000E+00 0.  1.
</event>
<event>
 6    1  0.3624778E-005  0.1020414E+03  0.7818608E-02  0.1314706E+00
          2   -1    0    0  502    0  0.00000000000E+00  0.00000000000E+00  0.60282517627E+02  0.60282517627E+02  0.00000000000E+00 0.  1.
          1   -1    0    0  501    0 -0.00000000000E+00 -0.00000000000E+00 -0.55510726104E+03  0.55510726104E+03  0.00000000000E+00 0. -1.
          2    1    1    2  501    0 -0.35061266751E+02  0.31522367049E+02 -0.15268142151E+03  0.15979539582E+03  0.00000000000E+00 0.  1.
          1    1    1    2  502    0  0.98370706046E+01 -0.10357409996E+03 -0.26937252292E+03  0.28876619997E+03  0.00000000000E+00 0. -1.
         22    1    1    2    0    0 -0.73109135724E+01  0.49236712235E+02  0.28976562060E+02  0.57596392576E+02  0.00000000000E+00 0.  1.
         22    1    1    2    0    0  0.32535109719E+02  0.22815020680E+02 -0.10174736105E+03  0.10923179031E+03  0.00000000000E+00 0.  1.
</event>
<event>
 6    1  0.3624778E-005  0.6989800E+02  0.7818608E-02  0.1363038E+00
          2   -1    0    0  502    0  0.00000000000E+00  0.00000000000E+00  0.17540255925E+03  0.17540255925E+03  0.00000000000E+00 0. -1.
          1   -1    0    0  501    0 -0.00000000000E+00 -0.00000000000E+00 -0.10199213089E+04  0.10199213089E+04  0.00000000000E+00 0. -1.
          2    1    1    2  501    0  0.19905977400E+02  0.46882791529E+02  0.72359148639E+01  0.51445141089E+02  0.00000000000E+00 0. -1.
          1    1    1    2  502    0  0.26916646168E+02 -0.35498807206E+02 -0.96846245996E+03  0.96948656902E+03  0.00000000000E+00 0. -1.
         22    1    1    2    0    0  0.65389861714E+01  0.28448616604E+02 -0.10326674492E+02  0.30963241641E+02  0.00000000000E+00 0. -1.
         22    1    1    2    0    0 -0.53361609740E+02 -0.39832600927E+02  0.12703446997E+03  0.14342891637E+03  0.00000000000E+00 0. -1.
</event>
<event>
 6    1  0.3624778E-005  0.1785017E+03  0.7818608E-02  0.1254935E+00
          2   -1    0    0  502    0  0.00000000000E+00  0.00000000000E+00  0.11205079478E+03  0.11205079478E+03  0.00000000000E+00 0. -1.
          1   -1    0    0  501    0 -0.00000000000E+00 -0.00000000000E+00 -0.10345770242E+04  0.10345770242E+04  0.00000000000E+00 0.  1.
          2    1    1    2  501    0 -0.14070661265E+02  0.72370580108E+02  0.41346388627E+02  0.84528150495E+02  0.00000000000E+00 0. -1.
          1    1    1    2  502    0 -0.10028173254E+02 -0.54040164927E+02 -0.92476721415E+03  0.92639910625E+03  0.00000000000E+00 0.  1.
         22    1    1    2    0    0  0.22887761054E+02 -0.47073325981E+02 -0.73896248633E+02  0.90556077582E+02  0.00000000000E+00 0.  1.
         22    1    1    2    0    0  0.12110734654E+01  0.28742910800E+02  0.34790844716E+02  0.45144484672E+02  0.00000000000E+00 0.  1.
</event>
<event>
 6    1  0.3624778E-005  0.4974667E+03  0.7818608E-02  0.1136970E+00
          2   -1    0    0  502    0  0.00000000000E+00  0.00000000000E+00  0.63040838918E+03  0.63040838918E+03  0.00000000000E+00 0.  1.
          1   -1    0    0  501    0 -0.00000000000E+00 -0.00000000000E+00 -0.14674800317E+03  0.14674800317E+03  0.00000000000E+00 0.  1.
          2    1    1    2  501    0 -0.22211529988E+03 -0.59497911859E+02  0.12577790998E+03  0.26209786454E+03  0.00000000000E+00 0.  1.
          1    1    1    2  502    0 -0.92684853717E+01  0.22848194791E+02 -0.33100456649E+02  0.41274508557E+02  0.00000000000E+00 0.  1.
         22    1    1    2    0    0 -0.88161157621E+01 -0.15292780896E+02  0.53273797692E+02  0.56122104069E+02  0.00000000000E+00 0. -1.
         22    1    1    2    0    0  0.24019990102E+03  0.51942497964E+02  0.33770913499E+03  0.41766191519E+03  0.00000000000E+00 0.  1.
</event>
<event>
 6    1  0.3624778E-005  0.7207983E+02  0.7818608E-02  0.1354806E+00
          2   -1    0    0  502    0  0.00000000000E+00  0.00000000000E+00  0.13177168873E+03  0.13177168873E+03  0.00000000000E+00 0. -1.
          1   -1    0    0  501    0 -0.00000000000E+00 -0.00000000000E+00 -0.67648816717E+03  0.67648816717E+03  0.00000000000E+00 0. -1.
          2    1    1    2  501    0 -0.60275317717E+01 -0.53709458475E+02  0.66453687202E+02  0.85657046481E+02  0.00000000000E+00 0. -1.
          1    1    1    2  502    0 -0.31206589382E+02 -0.44688648909E+01 -0.57043120294E+03  0.57130165348E+03  0.00000000000E+00 0. -1.
         22    1    1    2    0    0  0.42375059100E+02  0.72578878771E+02 -0.75720647111E+02  0.11312363005E+03  0.00000000000E+00 0.  1.
         22    1    1    2    0    0 -0.51409379455E+01 -0.14400555404E+02  0.34981684409E+02  0.38177525889E+02  0.00000000000E+00 0. -1.
</event>
<event>
 6    1  0.3624778E-005  0.8267941E+02  0.7818608E-02  0.1342262E+00
          2   -1    0    0  502    0  0.00000000000E+00  0.00000000000E+00  0.28643793452E+03  0.28643793452E+03  0.00000000000E+00 0. -1.
          1   -1    0    0  501    0 -0.00000000000E+00 -0.00000000000E+00 -0.23825531769E+04  0.23825531769E+04  0.00000000000E+00 0. -1.
          2    1    1    2  501    0 -0.22539792339E+02  0.25962384668E+02  0.49557926481E+01  0.34736832572E+02  0.00000000000E+00 0. -1.
          1    1    1    2  502    0  0.23906697433E+02 -0.22767727060E+02 -0.23539363573E+04  0.23541678517E+04  0.00000000000E+00 0. -1.
         22    1    1    2    0    0 -0.23127465260E+02 -0.50859197354E+02  0.19105118553E+03  0.19905299067E+03  0.00000000000E+00 0. -1.
         22    1    1    2    0    0  0.21760560166E+02  0.47664539746E+02  0.61814136762E+02  0.81033436504E+02  0.00000000000E+00 0. -1.
</event>
<event>
 6    1  0.3624778E-005  0.4026778E+02  0.7818608E-02  0.1516800E+00
          2   -1    0    0  502    0  0.00000000000E+00  0.00000000000E+00  0.12853146756E+03  0.12853146756E+03  0.00000000000E+00 0. -1.
          1   -1    0    0  501    0 -0.00000000000E+00 -0.00000000000E+00 -0.82122604534E+02  0.82122604534E+02  0.00000000000E+00 0. -1.
          2    1    1    2  501    0  0.21824224446E+02 -0.12082381210E+01 -0.24576972911E+02  0.32890488131E+02  0.00000000000E+00 0. -1.
          1    1    1    2  502    0 -0.16520785312E+02 -0.19594769815E+02 -0.90555201433E+01  0.27182600988E+02  0.00000000000E+00 0. -1.
         22    1    1    2    0    0  0.65514516529E+01 -0.12614311301E+02 -0.30952944719E+02  0.34060639383E+02  0.00000000000E+00 0. -1.
         22    1    1    2    0    0 -0.11854890787E+02  0.33417319237E+02  0.11099430080E+03  0.11652034359E+03  0.00000000000E+00 0. -1.
</event>
<event>
 6    1  0.3624778E-005  0.1796534E+03  0.7818608E-02  0.1168584E+00
          2   -1    0    0  502    0  0.00000000000E+00  0.00000000000E+00  0.86325044419E+03  0.86325044419E+03  0.00000000000E+00 0.  1.
          1   -1    0    0  501    0 -0.00000000000E+00 -0.00000000000E+00 -0.81876140509E+02  0.81876140509E+02  0.00000000000E+00 0.  1.
          2    1    1    2  501    0 -0.47894297997E+02 -0.15766320496E+03  0.47846749932E+03  0.50604614205E+03  0.00000000000E+00 0.  1.
          1    1    1    2  502    0  0.28275831460E+02  0.37196968709E+01 -0.36733066431E+02  0.46504590731E+02  0.00000000000E+00 0.  1.
         22    1    1    2    0    0  0.30385186312E+02  0.16882812089E+03  0.26475135059E+03  0.31546706895E+03  0.00000000000E+00 0.  1.
         22    1    1    2    0    0 -0.10766719776E+02 -0.14884612807E+02  0.74888520198E+02  0.77108782966E+02  0.00000000000E+00 0.  1.
</event>
<event>
 6    1  0.3624778E-005  0.7535420E+02  0.7818608E-02  0.1344883E+00
          2   -1    0    0  502    0  0.00000000000E+00  0.00000000000E+00  0.39281998414E+03  0.39281998414E+03  0.00000000000E+00 0. -1.
          1   -1    0    0  501    0 -0.00000000000E+00 -0.00000000000E+00 -0.47995319668E+02  0.47995319668E+02  0.00000000000E+00 0.  1.
          2    1    1    2  501    0 -0.20118641852E+02  0.13506872460E+02  0.92505934637E+02  0.95627105450E+02  0.00000000000E+00 0. -1.
          1    1    1    2  502    0  0.49525431919E+01 -0.23416379031E+02 -0.29212316191E+02  0.37765247361E+02  0.00000000000E+00 0.  1.
         22    1    1    2    0    0 -0.42922599514E+02  0.39456889834E+02  0.13069784957E+03  0.14311227616E+03  0.00000000000E+00 0. -1.
         22    1    1    2    0    0  0.58088698174E+02 -0.29547383264E+02  0.15083319645E+03  0.16431067484E+03  0.00000000000E+00 0.  1.
</event>
<event>
 6    1  0.3624778E-005  0.1417489E+03  0.7818608E-02  0.1329322E+00
          2   -1    0    0  502    0  0.00000000000E+00  0.00000000000E+00  0.61203884549E+02  0.61203884549E+02  0.00000000000E+00 0. -1.
          1   -1    0    0  501    0 -0.00000000000E+00 -0.00000000000E+00 -0.54386584616E+03  0.54386584616E+03  0.00000000000E+00 0. -1.
          2    1    1    2  501    0 -0.18066329046E+02 -0.65743280472E+02 -0.16015812899E+03  0.17406664659E+03  0.00000000000E+00 0. -1.
          1    1    1    2  502    0 -0.35944122272E+02  0.12610491079E+03 -0.10001866846E+03  0.16491865417E+03  0.00000000000E+00 0. -1.
         22    1    1    2    0    0  0.39886742283E+02 -0.58042019139E+02 -0.23606994003E+03  0.24635106003E+03  0.00000000000E+00 0. -1.
         22    1    1    2    0    0  0.14123709035E+02 -0.23196111767E+01  0.13584775872E+02  0.19733369920E+02  0.00000000000E+00 0. -1.
</event>
<event>
 6    1  0.3624778E-005  0.2635373E+03  0.7818608E-02  0.1123838E+00
          2   -1    0    0  502    0  0.00000000000E+00  0.00000000000E+00  0.21815300096E+04  0.21815300096E+04  0.00000000000E+00 0.  1.
          1   -1    0    0  501    0 -0.00000000000E+00 -0.00000000000E+00 -0.37605267627E+03  0.37605267627E+03  0.00000000000E+00 0. -1.
          2    1    1    2  501    0  0.36612961206E+03  0.25175851507E+02  0.12989393127E+04  0.13497881517E+04  0.00000000000E+00 0.  1.
          1    1    1    2  502    0 -0.21609519179E+03 -0.74192397220E+02 -0.29954991453E+03  0.37673836414E+03  0.00000000000E+00 0. -1.
         22    1    1    2    0    0  0.12957779044E+02  0.31991825919E+02  0.88491357285E+02  0.94984742341E+02  0.00000000000E+00 0. -1.
         22    1    1    2    0    0 -0.16299219931E+03  0.17024719794E+02  0.71759657783E+03  0.73607142767E+03  0.00000000000E+00 0.  1.
</event>
<event>
 6    1  0.3624778E-005  0.1255337E+03  0.7818608E-02  0.1254665E+00
          2   -1    0    0  502    0  0.00000000000E+00  0.00000000000E+00  0.29307137137E+03  0.29307137137E+03  0.00000000000E+00 0.  1.
          1   -1    0    0  501    0 -0.00000000000E+00 -0.00000000000E+00 -0.16691378565E+04  0.16691378565E+04  0.00000000000E+00 0.  1.
          2    1    1    2  501    0 -0.93895752776E+02 -0.10866042142E+03 -0.20928407218E+03  0.25381749829E+03  0.00000000000E+00 0.  1.
          1    1    1    2  502    0  0.11447150697E+03  0.27669663240E+02 -0.14147687436E+04  0.14196619083E+04  0.00000000000E+00 0.  1.
         22    1    1    2    0    0 -0.14147116017E+02 -0.19150388018E+01 -0.10159095643E+02  0.17521857478E+02  0.00000000000E+00 0. -1.
         22    1    1    2    0    0 -0.64286381759E+01  0.82905796980E+02  0.25814542621E+03  0.27120796381E+03  0.00000000000E+00 0.  1.
</event>
<event>
 6    1  0.3624778E-005  0.8448918E+02  0.7818608E-02  0.1350920E+00
          2   -1    0    0  502    0  0.00000000000E+00  0.00000000000E+00  0.32951322223E+03  0.32951322223E+03  0.00000000000E+00 0.  1.
          1   -1    0    0  501    0 -0.00000000000E+00 -0.00000000000E+00 -0.87680183705E+02  0.87680183705E+02  0.00000000000E+00 0.  1.
          2    1    1    2  501    0  0.61778205066E+02 -0.24260547244E+01 -0.41387487270E+02  0.74399976245E+02  0.00000000000E+00 0.  1.
          1    1    1    2  502    0 -0.47307466603E+02  0.61317644299E+01  0.21360399138E+02  0.52267213267E+02  0.00000000000E+00 0.  1.
         22    1    1    2    0    0 -0.40813139551E+02 -0.22270521933E+02  0.25281404786E+03  0.25705375178E+03  0.00000000000E+00 0.  1.
         22    1    1    2    0    0  0.26342401087E+02  0.18564812227E+02  0.90460788006E+01  0.33472464650E+02  0.00000000000E+00 0. -1.
</event>
<event>
 6    1  0.3624778E-005  0.5886324E+02  0.7818608E-02  0.1405653E+00
          2   -1    0    0  502    0  0.00000000000E+00  0.00000000000E+00  0.10393353069E+03  0.10393353069E+03  0.00000000000E+00 0. -1.
          1   -1    0    0  501    0 -0.00000000000E+00 -0.00000000000E+00 -0.13288279283E+04  0.13288279283E+04  0.00000000000E+00 0.  1.
          2    1    1    2  501    0 -0.41394635100E+02  0.71785935566E+01 -0.37271256356E+02  0.56162216577E+02  0.00000000000E+00 0. -1.
          1    1    1    2  502    0  0.18877693674E+02 -0.17744476131E+02 -0.12380037118E+04  0.12382747773E+04  0.00000000000E+00 0.  1.
         22    1    1    2    0    0  0.53092611740E+02 -0.10188729990E+02  0.76066089118E+02  0.93320338372E+02  0.00000000000E+00 0. -1.
         22    1    1    2    0    0 -0.30575670314E+02  0.20754612565E+02 -0.25685518600E+02  0.45004126740E+02  0.00000000000E+00 0. -1.
</event>
<event>
 6    1  0.3624778E-005  0.6725317E+02  0.7818608E-02  0.1479618E+00
          2   -1    0    0  502    0  0.00000000000E+00  0.00000000000E+00  0.19413222044E+02  0.19413222044E+02  0.00000000000E+00 0.  1.
          1   -1    0    0  501    0 -0.00000000000E+00 -0.00000000000E+00 -0.17677193671E+04  0.17677193671E+04  0.00000000000E+00 0.  1.
          2    1    1    2  501    0  0.16708738855E+02 -0.12284238441E+02 -0.12496174057E+03  0.12667091645E+03  0.00000000000E+00 0.  1.
          1    1    1    2  502    0 -0.28963561550E+02  0.58591426420E+02 -0.13848202731E+04  0.13863617969E+04  0.00000000000E+00 0.  1.
         22    1    1    2    0    0 -0.11892539071E+02 -0.38768460113E+01  0.12906525453E+02  0.17973336357E+02  0.00000000000E+00 0.  1.
         22    1    1    2    0    0  0.24147361766E+02 -0.42430341967E+02 -0.25143065689E+03  0.25612653948E+03  0.00000000000E+00 0.  1.
</event>
<event>
 6    1  0.3624778E-005  0.1422539E+03  0.7818608E-02  0.1271642E+00
          2   -1    0    0  502    0  0.00000000000E+00  0.00000000000E+00  0.86943831205E+02  0.86943831205E+02  0.00000000000E+00 0.  1.
          1   -1    0    0  501    0 -0.00000000000E+00 -0.00000000000E+00 -0.35785409237E+03  0.35785409237E+03  0.00000000000E+00 0.  1.
          2    1    1    2  501    0 -0.27343450202E+02 -0.12289725781E+02 -0.27355246641E+02  0.40583385117E+02  0.00000000000E+00 0.  1.
          1    1    1    2  502    0 -0.14122708149E+02  0.90938480549E+02 -0.23383298292E+03  0.25129091116E+03  0.00000000000E+00 0.  1.
         22    1    1    2    0    0  0.82192072426E+02 -0.73904645655E+02  0.10249770239E+01  0.11053725163E+03  0.00000000000E+00 0.  1.
         22    1    1    2    0    0 -0.40725914076E+02 -0.47441091131E+01 -0.10747008633E+02  0.42386375678E+02  0.00000000000E+00 0.  1.
</event>
<event>
 6    1  0.3624778E-005  0.1033225E+03  0.7818608E-02  0.1353294E+00
          2   -1    0    0  502    0  0.00000000000E+00  0.00000000000E+00  0.12624145478E+03  0.12624145478E+03  0.00000000000E+00 0. -1.
          1   -1    0    0  501    0 -0.00000000000E+00 -0.00000000000E+00 -0.40143731104E+03  0.40143731104E+03  0.00000000000E+00 0. -1.
          2    1    1    2  501    0  0.50848429410E+02 -0.61263973852E+02 -0.14273071386E+03  0.16343467792E+03  0.00000000000E+00 0. -1.
          1    1    1    2  502    0 -0.58629233959E+02  0.58184295601E+02 -0.20366225403E+03  0.21977514201E+03  0.00000000000E+00 0. -1.
         22    1    1    2    0    0  0.32122706030E+02  0.11741462348E+01 -0.27804435641E+02  0.42500982381E+02  0.00000000000E+00 0. -1.
         22    1    1    2    0    0 -0.24341901481E+02  0.19055320167E+01  0.99001547271E+02  0.10196796351E+03  0.00000000000E+00 0. -1.
</event>
<event>
 6    1  0.3624778E-005  0.8263439E+02  0.7818608E-02  0.1322378E+00
          2   -1    0    0  502    0  0.00000000000E+00  0.00000000000E+00  0.35923792060E+03  0.35923792060E+03  0.00000000000E+00 0. -1.
          1   -1    0    0  501    0 -0.00000000000E+00 -0.00000000000E+00 -0.11094964504E+04  0.11094964504E+04  0.00000000000E+00 0.  1.
          2    1    1    2  501    0  0.21496940875E+02  0.23162998262E+02  0.24038134893E+02  0.39704847117E+02  0.00000000000E+00 0. -1.
          1    1    1    2  502    0  0.43109428784E+02 -0.54490075633E+01 -0.10853977972E+04  0.10862672290E+04  0.00000000000E+00 0.  1.
         22    1    1    2    0    0 -0.87993949460E+02 -0.30503069545E+02  0.29958177872E+03  0.31372378701E+03  0.00000000000E+00 0. -1.
         22    1    1    2    0    0  0.23387579800E+02  0.12789078847E+02  0.11519353836E+02  0.29038507873E+02  0.00000000000E+00 0. -1.
</event>
<event>
 6    1  0.3624778E-005  0.1320199E+03  0.7818608E-02  0.1248216E+00
          2   -1    0    0  502    0  0.00000000000E+00  0.00000000000E+00  0.68084653453E+02  0.68084653453E+02  0.00000000000E+00 0.  1.
          1   -1    0    0  501    0 -0.00000000000E+00 -0.00000000000E+00 -0.22907294996E+03  0.22907294996E+03  0.00000000000E+00 0. -1.
          2    1    1    2  501    0  0.23305143238E+02 -0.62817948971E+02 -0.75103245533E+02  0.10064651958E+03  0.00000000000E+00 0.  1.
          1    1    1    2  502    0 -0.30424273374E+02 -0.10922211029E+02 -0.31919817123E+02  0.45429129744E+02  0.00000000000E+00 0. -1.
         22    1    1    2    0    0  0.52573579068E+02  0.12228055513E+02  0.54221421253E+01  0.54248559270E+02  0.00000000000E+00 0.  1.
         22    1    1    2    0    0 -0.45454448932E+02  0.61512104487E+02 -0.59387375973E+02  0.96833394813E+02  0.00000000000E+00 0. -1.
</event>
<event>
 6    1  0.4054074E-005  0.1360705E+03  0.7818608E-02  0.1257400E+00
          2   -1    0    0  502    0  0.00000000000E+00  0.00000000000E+00  0.54084166494E+03  0.54084166494E+03  0.00000000000E+00 0.  1.
          1   -1    0    0  501    0 -0.00000000000E+00 -0.00000000000E+00 -0.11334546794E+04  0.11334546794E+04  0.00000000000E+00 0.  1.
          2    1    1    2  501    0  0.31006531302E+02 -0.27223212869E+02  0.11873242759E+02  0.42935791549E+02  0.00000000000E+00 0.  1.
          1    1    1    2  502    0 -0.38153829035E+02  0.54342883292E+02 -0.11088316343E+04  0.11108179225E+04  0.00000000000E+00 0.  1.
         22    1    1    2    0    0 -0.58657637654E+02 -0.19634070914E+02  0.21551395364E+03  0.22421525240E+03  0.00000000000E+00 0. -1.
         22    1    1    2    0    0  0.65804935387E+02 -0.74855995091E+01  0.28883142346E+03  0.29632737791E+03  0.00000000000E+00 0.  1.
</event>
<event>
 6    1  0.3624778E-005  0.1975371E+03  0.7818608E-02  0.1186284E+00
          2   -1    0    0  502    0  0.00000000000E+00  0.00000000000E+00  0.18559345459E+03  0.18559345459E+03  0.00000000000E+00 0. -1.
          1   -1    0    0  501    0 -0.00000000000E+00 -0.00000000000E+00 -0.36761583579E+03  0.36761583579E+03  0.00000000000E+00 0. -1.
          2    1    1    2  501    0  0.12074083330E+03 -0.53110320910E+02 -0.17245667563E+03  0.21711830872E+03  0.00000000000E+00 0. -1.
          1    1    1    2  502    0 -0.14734404551E+03  0.12008549397E+03 -0.21694184512E+02  0.19131500529E+03  0.00000000000E+00 0. -1.
         22    1    1    2    0    0  0.46176288107E+02  0.20562008729E+02 -0.11869817826E+02  0.51922426383E+02  0.00000000000E+00 0. -1.
         22    1    1    2    0    0 -0.19573075897E+02 -0.87537181791E+02  0.23998296769E+02  0.92853549979E+02  0.00000000000E+00 0. -1.
</event>
<event>
 6    1  0.3624778E-005  0.1028175E+03  0.7818608E-02  0.1279485E+00
          2   -1    0    0  502    0  0.00000000000E+00  0.00000000000E+00  0.70413371924E+03  0.70413371924E+03  0.00000000000E+00 0.  1.
          1   -1    0    0  501    0 -0.00000000000E+00 -0.00000000000E+00 -0.27528630565E+02  0.27528630565E+02  0.00000000000E+00 0.  1.
          2    1    1    2  501    0  0.43539703968E+02  0.14882846593E+02  0.54421999345E+02  0.71266815258E+02  0.00000000000E+00 0.  1.
          1    1    1    2  502    0 -0.12146231758E+02  0.65824810422E+02  0.12896009176E+03  0.14529673734E+03  0.00000000000E+00 0.  1.
         22    1    1    2    0    0  0.41524090780E+02 -0.25733228743E+01  0.13278882219E+03  0.13915366832E+03  0.00000000000E+00 0.  1.
         22    1    1    2    0    0 -0.72917562990E+02 -0.78134334140E+02  0.36043417537E+03  0.37594512889E+03  0.00000000000E+00 0.  1.
</event>
<event>
 6    1  0.3624778E-005  0.7154910E+02  0.7818608E-02  0.1360067E+00
          2   -1    0    0  502    0  0.00000000000E+00  0.00000000000E+00  0.23538225649E+03  0.23538225649E+03  0.00000000000E+00 0. -1.
          1   -1    0    0  501    0 -0.00000000000E+00 -0.00000000000E+00 -0.75348481896E+03  0.75348481896E+03  0.00000000000E+00 0.  1.
          2    1    1    2  501    0  0.57861187961E+01 -0.34967214616E+02 -0.51950742829E+02  0.62889307113E+02  0.00000000000E+00 0. -1.
          1    1    1    2  502    0 -0.74311292275E+02  0.24540488337E+02 -0.67088254672E+03  0.67543156221E+03  0.00000000000E+00 0.  1.
         22    1    1    2    0    0 -0.14364124049E+01 -0.15853621067E+02 -0.12869334266E+02  0.20469986468E+02  0.00000000000E+00 0.  1.
         22    1    1    2    0    0  0.69961585884E+02  0.26280347346E+02  0.21760006135E+03  0.23007621967E+03  0.00000000000E+00 0. -1.
</event>
<event>
 6    1  0.3624778E-005  0.1178508E+03  0.7818608E-02  0.1275543E+00
          2   -1    0    0  502    0  0.00000000000E+00  0.00000000000E+00  0.23245176273E+02  0.23245176273E+02  0.00000000000E+00 0.  1.
          1   -1    0    0  501    0 -0.00000000000E+00 -0.00000000000E+00 -0.37476757656E+04  0.37476757656E+04  0.00000000000E+00 0.  1.
          2    1    1    2  501    0  0.33680009781E+01 -0.60674591955E+02 -0.82172353448E+02  0.10220100396E+03  0.00000000000E+00 0.  1.
          1    1    1    2  502    0 -0.12555552169E+02  0.50093653543E+02 -0.33482548065E+04  0.33486530524E+04  0.00000000000E+00 0.  1.
         22    1    1    2    0    0  0.66985220785E+02  0.59493470146E+01 -0.13502912505E+03  0.15084853047E+03  0.00000000000E+00 0.  1.
         22    1    1    2    0    0 -0.57797669594E+02  0.46315913968E+01 -0.15897430430E+03  0.16921835502E+03  0.00000000000E+00 0. -1.
</event>
<event>
 6    1  0.1524531E-004  0.9939181E+02  0.7818608E-02  0.1289174E+00
          2   -1    0    0  502    0  0.00000000000E+00  0.00000000000E+00  0.55228122110E+03  0.55228122110E+03  0.00000000000E+00 0.  1.
          1   -1    0    0  501    0 -0.00000000000E+00 -0.00000000000E+00 -0.62175782938E+03  0.62175782938E+03  0.00000000000E+00 0.  1.
          2    1    1    2  501    0  0.11169371274E+03  0.51616092370E+02 -0.10756088949E+03  0.16342904089E+03  0.00000000000E+00 0.  1.
          1    1    1    2  502    0 -0.53582972698E+02 -0.16804449120E+01 -0.47473274716E+03  0.47775008119E+03  0.00000000000E+00 0.  1.
         22    1    1    2    0    0  0.13724757068E+02 -0.44810635907E+01  0.14897196163E+01  0.14514411873E+02  0.00000000000E+00 0. -1.
         22    1    1    2    0    0 -0.71835497114E+02 -0.45454583867E+02  0.51132730875E+03  0.51834551653E+03  0.00000000000E+00 0.  1.
</event>
<event>
 6    1  0.3624778E-005  0.8392323E+02  0.7818608E-02  0.1397581E+00
          2   -1    0    0  502    0  0.00000000000E+00  0.00000000000E+00  0.91138656967E+02  0.91138656967E+02  0.00000000000E+00 0. -1.
          1   -1    0    0  501    0 -0.00000000000E+00 -0.00000000000E+00 -0.54485995296E+03  0.54485995296E+03  0.00000000000E+00 0. -1.
          2    1    1    2  501    0  0.29647991967E+02  0.40140492182E+02 -0.73224619227E+02  0.88612117688E+02  0.00000000000E+00 0. -1.
          1    1    1    2  502    0 -0.55966535325E+00 -0.70096357195E+02 -0.41038431399E+03  0.41632811301E+03  0.00000000000E+00 0. -1.
         22    1    1    2    0    0 -0.89924426883E+01  0.20093171858E+02  0.76363038725E+02  0.79472720251E+02  0.00000000000E+00 0. -1.
         22    1    1    2    0    0 -0.20095883926E+02  0.98626931556E+01 -0.46475401503E+02  0.51585658975E+02  0.00000000000E+00 0. -1.
</event>
<event>
 6    1  0.3624778E-005  0.1992984E+03  0.7818608E-02  0.1173130E+00
          2   -1    0    0  502    0  0.00000000000E+00  0.00000000000E+00  0.15356634327E+04  0.15356634327E+04  0.00000000000E+00 0. -1.
          1   -1    0    0  501    0 -0.00000000000E+00 -0.00000000000E+00 -0.50138452542E+02  0.50138452542E+02  0.00000000000E+00 0. -1.
          2    1    1    2  501    0 -0.14939940373E+03  0.15255558815E+02  0.80922886430E+03  0.82304572700E+03  0.00000000000E+00 0. -1.
          1    1    1    2  502    0  0.33337367990E+02 -0.18395269229E+02 -0.22443613944E+02  0.44198210839E+02  0.00000000000E+00 0. -1.
         22    1    1    2    0    0  0.19126875157E+02 -0.49235761790E+02  0.15456709399E+03  0.16334314842E+03  0.00000000000E+00 0. -1.
         22    1    1    2    0    0  0.96935160582E+02  0.52375472205E+02  0.54417263585E+03  0.55521479902E+03  0.00000000000E+00 0. -1.
</event>
<event>
 6    1  0.3624778E-005  0.1278332E+03  0.7818608E-02  0.1239785E+00
          2   -1    0    0  502    0  0.00000000000E+00  0.00000000000E+00  0.10028085821E+03  0.10028085821E+03  0.00000000000E+00 0. -1.
          1   -1    0    0  501    0 -0.00000000000E+00 -0.00000000000E+00 -0.20704108011E+03  0.20704108011E+03  0.00000000000E+00 0. -1.
          2    1    1    2  501    0  0.91112707545E+02 -0.19033672032E+01 -0.85330980341E+02  0.12484600310E+03  0.00000000000E+00 0. -1.
          1    1    1    2  502    0 -0.29223111440E+02  0.21117024041E+02 -0.16018572854E+02  0.39452675738E+02  0.00000000000E+00 0. -1.
         22    1    1    2    0    0  0.25684878844E+02  0.32248218566E+02 -0.42007382243E+01  0.41440400620E+02  0.00000000000E+00 0.  1.
         22    1    1    2    0    0 -0.87574474949E+02 -0.51461875405E+02 -0.12099304844E+01  0.10158285886E+03  0.00000000000E+00 0. -1.
</event>
<event>
 6    1  0.3624778E-005  0.8751083E+02  0.7818608E-02  0.1435452E+00
          2   -1    0    0  502    0  0.00000000000E+00  0.00000000000E+00  0.40980262670E+02  0.40980262670E+02  0.00000000000E+00 0. -1.
          1   -1    0    0  501    0 -0.00000000000E+00 -0.00000000000E+00 -0.72166832745E+03  0.72166832745E+03  0.00000000000E+00 0.  1.
          2    1    1    2  501    0  0.20180920777E+02  0.42707651858E+01 -0.60916025064E+02  0.64313848495E+02  0.00000000000E+00 0. -1.
          1    1    1    2  502    0 -0.52071567167E+02  0.52707595161E+02 -0.52847055963E+03  0.53363908317E+03  0.00000000000E+00 0.  1.
         22    1    1    2    0    0  0.21129207863E+02 -0.58008791239E+02 -0.11949475138E+03  0.13450077655E+03  0.00000000000E+00 0. -1.
         22    1    1    2    0    0  0.10761438526E+02  0.10304308922E+01  0.28193271290E+02  0.30194881901E+02  0.00000000000E+00 0. -1.
</event>
<event>
 6    1  0.3624778E-005  0.3066979E+02  0.7818608E-02  0.1608707E+00
          2   -1    0    0  502    0  0.00000000000E+00  0.00000000000E+00  0.97094607204E+02  0.97094607204E+02  0.00000000000E+00 0.  1.
          1   -1    0    0  501    0 -0.00000000000E+00 -0.00000000000E+00 -0.27416583495E+03  0.27416583495E+03  0.00000000000E+00 0.  1.
          2    1    1    2  501    0 -0.12515967625E+02 -0.24510269491E+02 -0.71185773560E+02  0.76320489473E+02  0.00000000000E+00 0.  1.
          1    1    1    2  502    0  0.81527614820E+01  0.24137519365E+02 -0.15655209572E+03  0.15861162011E+03  0.00000000000E+00 0.  1.
         22    1    1    2    0    0  0.18242057671E+02  0.16687262321E+02  0.89025363094E+02  0.92394548897E+02  0.00000000000E+00 0.  1.
         22    1    1    2    0    0 -0.13878851528E+02 -0.16314512195E+02 -0.38358721558E+02  0.43933783669E+02  0.00000000000E+00 0.  1.
</event>
<event>
 6    1  0.3624778E-005  0.1169886E+03  0.7818608E-02  0.1272819E+00
          2   -1    0    0  502    0  0.00000000000E+00  0.00000000000E+00  0.67970642755E+03  0.67970642755E+03  0.00000000000E+00 0. -1.
          1   -1    0    0  501    0 -0.00000000000E+00 -0.00000000000E+00 -0.85497637068E+02  0.85497637068E+02  0.00000000000E+00 0. -1.
          2    1    1    2  501    0  0.15938284066E+02  0.36101740435E+02 -0.36763332350E+02  0.53934285635E+02  0.00000000000E+00 0. -1.
          1    1    1    2  502    0 -0.74395526854E+02 -0.11541435461E+03  0.44814368041E+03  0.46870878587E+03  0.00000000000E+00 0. -1.
         22    1    1    2    0    0  0.59084150913E+02  0.72529970732E+01  0.17243486681E+02  0.61974839158E+02  0.00000000000E+00 0.  1.
         22    1    1    2    0    0 -0.62690812559E+00  0.72059617102E+02  0.16558495575E+03  0.18058615396E+03  0.00000000000E+00 0. -1.
</event>
<event>
 6    1  0.3624778E-005  0.2086062E+03  0.7818608E-02  0.1219049E+00
          2   -1    0    0  502    0  0.00000000000E+00  0.00000000000E+00  0.92141545275E+02  0.92141545275E+02  0.00000000000E+00 0. -1.
          1   -1    0    0  501    0 -0.00000000000E+00 -0.00000000000E+00 -0.43495724489E+03  0.43495724489E+03  0.00000000000E+00 0. -1.
          2    1    1    2  501    0 -0.74739811343E+02  0.17446381113E+02 -0.31626979878E+02  0.83010128717E+02  0.00000000000E+00 0. -1.
          1    1    1    2  502    0  0.12279178737E+03  0.80297251378E+02 -0.16742479142E+03  0.22261296549E+03  0.00000000000E+00 0. -1.
         22    1    1    2    0    0 -0.21767265265E+02  0.30536391673E+02 -0.33701788397E+02  0.50419198671E+02  0.00000000000E+00 0.  1.
         22    1    1    2    0    0 -0.26284710758E+02 -0.12828002416E+03 -0.11006213992E+03  0.17105649728E+03  0.00000000000E+00 0. -1.
</event>
<event>
 6    1  0.3624778E-005  0.9617344E+02  0.7818608E-02  0.1294274E+00
          2   -1    0    0  502    0  0.00000000000E+00  0.00000000000E+00  0.24290651872E+03  0.24290651872E+03  0.00000000000E+00 0.  1.
          1   -1    0    0  501    0 -0.00000000000E+00 -0.00000000000E+00 -0.57444067913E+02  0.57444067913E+02  0.00000000000E+00 0.  1.
          2    1    1    2  501    0 -0.44412199763E+02 -0.38276707847E+02  0.78092621901E+02  0.97652483055E+02  0.00000000000E+00 0.  1.
          1    1    1    2  502    0  0.35948972497E+02  0.26869770901E+02  0.17514380328E+02  0.48177450432E+02  0.00000000000E+00 0.  1.
         22    1    1    2    0    0 -0.10597144192E+02 -0.55038547587E+02  0.47348238760E+02  0.73371635523E+02  0.00000000000E+00 0.  1.
         22    1    1    2    0    0  0.19060371458E+02  0.66445484534E+02  0.42507209822E+02  0.81149017628E+02  0.00000000000E+00 0.  1.
</event>
<event>
 6    1  0.3624778E-005  0.3701399E+03  0.7818608E-02  0.1165572E+00
          2   -1    0    0  502    0  0.00000000000E+00  0.00000000000E+00  0.98757623822E+02  0.98757623822E+02  0.00000000000E+00 0. -1.
          1   -1    0    0  501    0 -0.00000000000E+00 -0.00000000000E+00 -0.15386203621E+04  0.15386203621E+04  0.00000000000E+00 0. -1.
          2    1    1    2  501    0  0.67527929425E+02  0.12359629197E+03 -0.29650361257E+03  0.32825364721E+03  0.00000000000E+00 0. -1.
          1    1    1    2  502    0 -0.13811116399E+03 -0.32931334201E+03 -0.86362520074E+03  0.93454291405E+03  0.00000000000E+00 0. -1.
         22    1    1    2    0    0  0.92337185955E+02  0.20444503296E+03 -0.26907937939E+03  0.35032504881E+03  0.00000000000E+00 0.  1.
         22    1    1    2    0    0 -0.21753951392E+02  0.12720170747E+01 -0.10654545602E+02  0.24256375875E+02  0.00000000000E+00 0. -1.
</event>
<event>
 6    1  0.3624778E-005  0.2827649E+03  0.7818608E-02  0.1174743E+00
          2   -1    0    0  502    0  0.00000000000E+00  0.00000000000E+00  0.15808468950E+04  0.15808468950E+04  0.00000000000E+00 0.  1.
          1   -1    0    0  501    0 -0.00000000000E+00 -0.00000000000E+00 -0.63999088361E+02  0.63999088361E+02  0.00000000000E+00 0.  1.
          2    1    1    2  501    0  0.79244171718E+02 -0.18198692084E+03  0.68271762221E+03  0.71098680000E+03  0.00000000000E+00 0.  1.
          1    1    1    2  502    0 -0.14297641966E+00  0.21161954518E+03  0.23641276659E+03  0.31729142527E+03  0.00000000000E+00 0.  1.
         22    1    1    2    0    0  0.56789738484E+01  0.39221261597E+02  0.21263677033E+03  0.21629829912E+03  0.00000000000E+00 0.  1.
         22    1    1    2    0    0 -0.84780169147E+02 -0.68853885941E+02  0.38508064749E+03  0.40026945894E+03  0.00000000000E+00 0.  1.
</event>
<event>
 6    1  0.3624778E-005  0.7869811E+02  0.7818608E-02  0.1335847E+00
          2   -1    0    0  502    0  0.00000000000E+00  0.00000000000E+00  0.65704512984E+03  0.65704512984E+03  0.00000000000E+00 0. -1.
          1   -1    0    0  501    0 -0.00000000000E+00 -0.00000000000E+00 -0.32927030463E+02  0.32927030463E+02  0.00000000000E+00 0. -1.
          2    1    1    2  501    0 -0.26050966825E+02  0.13721127494E+02  0.14499078795E+03  0.14795016324E+03  0.00000000000E+00 0. -1.
          1    1    1    2  502    0 -0.11617728574E+02  0.20932275426E+02 -0.15548230886E+02  0.28546090020E+02  0.00000000000E+00 0. -1.
         22    1    1    2    0    0 -0.14974243940E+02  0.39394026341E+02  0.22484547640E+03  0.22876102279E+03  0.00000000000E+00 0. -1.
         22    1    1    2    0    0  0.52642939339E+02 -0.74047429261E+02  0.26983006591E+03  0.28471488425E+03  0.00000000000E+00 0. -1.
</event>
<event>
 6    1  0.3624778E-005  0.1813043E+03  0.7818608E-02  0.1257284E+00
          2   -1    0    0  502    0  0.00000000000E+00  0.00000000000E+00  0.24728536637E+03  0.24728536637E+03  0.00000000000E+00 0. -1.
          1   -1    0    0  501    0 -0.00000000000E+00 -0.00000000000E+00 -0.21389613317E+03  0.21389613317E+03  0.00000000000E+00 0.  1.
          2    1    1    2  501    0 -0.12425346569E+03  0.58759259064E+02 -0.14417880818E+02  0.13820075813E+03  0.00000000000E+00 0. -1.
          1    1    1    2  502    0  0.11553784649E+03 -0.55009593957E+02 -0.73619555898E+02  0.14763091956E+03  0.00000000000E+00 0.  1.
         22    1    1    2    0    0 -0.12433949809E+02  0.23071292451E+02  0.13579004821E+03  0.13829614903E+03  0.00000000000E+00 0. -1.
         22    1    1    2    0    0  0.21149569008E+02 -0.26820957557E+02 -0.14363378299E+02  0.37053672823E+02  0.00000000000E+00 0.  1.
</event>
<event>
 6    1  0.3624778E-005  0.9285600E+02  0.7818608E-02  0.1298714E+00
          2   -1    0    0  502    0  0.00000000000E+00  0.00000000000E+00  0.17200842174E+02  0.17200842174E+02  0.00000000000E+00 0.  1.
          1   -1    0    0  501    0 -0.00000000000E+00 -0.00000000000E+00 -0.10733808285E+04  0.10733808285E+04  0.00000000000E+00 0.  1.
          2    1    1    2  501    0  0.45547676370E+02  0.34646699789E+02 -0.48707179563E+03  0.49042218417E+03  0.00000000000E+00 0.  1.
          1    1    1    2  502    0  0.33127482452E+02 -0.23875572097E+02 -0.82284980988E+02  0.91860171635E+02  0.00000000000E+00 0.  1.
         22    1    1    2    0    0  0.16981184090E+02 -0.41877787679E+02 -0.13377352125E+03  0.14120008747E+03  0.00000000000E+00 0. -1.
         22    1    1    2    0    0 -0.95656342913E+02  0.31106659987E+02 -0.35304968843E+03  0.36709922737E+03  0.00000000000E+00 0.  1.
</event>
<event>
 6    1  0.3624778E-005  0.4074500E+03  0.7818608E-02  0.1175200E+00
          2   -1    0    0  502    0  0.00000000000E+00  0.00000000000E+00  0.27932682240E+03  0.27932682240E+03  0.00000000000E+00 0.  1.
          1   -1    0    0  501    0 -0.00000000000E+00 -0.00000000000E+00 -0.68999858274E+03  0.68999858274E+03  0.00000000000E+00 0. -1.
          2    1    1    2  501    0 -0.48866906267E+02 -0.17742210540E+03  0.17282973093E+03  0.25246127209E+03  0.00000000000E+00 0.  1.
          1    1    1    2  502    0  0.64639468414E+02  0.24067090662E+03 -0.47303414885E+03  0.53466068880E+03  0.00000000000E+00 0. -1.
         22    1    1    2    0    0  0.32696312083E+00 -0.13105343939E+02  0.29702330514E+02  0.32466681115E+02  0.00000000000E+00 0. -1.
         22    1    1    2    0    0 -0.16099525268E+02 -0.50143457283E+02 -0.14016967293E+03  0.14973676313E+03  0.00000000000E+00 0. -1.
</event>
<event>
 6    1  0.3624778E-005  0.1303966E+03  0.7818608E-02  0.1238339E+00
          2   -1    0    0  502    0  0.00000000000E+00  0.00000000000E+00  0.97544256813E+02  0.97544256813E+02  0.00000000000E+00 0. -1.
          1   -1    0    0  501    0 -0.00000000000E+00 -0.00000000000E+00 -0.26882513443E+03  0.26882513443E+03  0.00000000000E+00 0. -1.
          2    1    1    2  501    0 -0.23712451902E+02  0.72480332380E+02 -0.11199223809E+03  0.13549147704E+03  0.00000000000E+00 0. -1.
          1    1    1    2  502    0  0.41405355267E+02 -0.10272927216E+02 -0.78772002230E+02  0.89582167945E+02  0.00000000000E+00 0. -1.
         22    1    1    2    0    0 -0.20494686581E+02 -0.99980640938E+02  0.13480896669E+02  0.10294607965E+03  0.00000000000E+00 0. -1.
         22    1    1    2    0    0  0.28017832165E+01  0.37773235774E+02  0.60024660421E+01  0.38349666603E+02  0.00000000000E+00 0.  1.
</event>
<event>
 6    1  0.3624778E-005  0.3660928E+03  0.7818608E-02  0.1122139E+00
          2   -1    0    0  502    0  0.00000000000E+00  0.00000000000E+00  0.21748895505E+03  0.21748895505E+03  0.00000000000E+00 0. -1.
          1   -1    0    0  501    0 -0.00000000000E+00 -0.00000000000E+00 -0.11013673810E+04  0.11013673810E+04  0.00000000000E+00 0. -1.
          2    1    1    2  501    0  0.24958436174E+03  0.95340909885E+02 -0.63870353451E+03  0.69233261350E+03  0.00000000000E+00 0. -1.
          1    1    1    2  502    0 -0.34952997044E+03 -0.16767170488E+03 -0.23019329659E+03  0.45085912950E+03  0.00000000000E+00 0. -1.
         22    1    1    2    0    0  0.61596732391E+02  0.16516148040E+02  0.50589547728E+02  0.81401737860E+02  0.00000000000E+00 0. -1.
         22    1    1    2    0    0  0.38348876307E+02  0.55814646958E+02 -0.65571142598E+02  0.94262855201E+02  0.00000000000E+00 0.  1.
</event>
<event>
 6    1  0.3624778E-005  0.6567757E+02  0.7818608E-02  0.1455203E+00
          2   -1    0    0  502    0  0.00000000000E+00  0.00000000000E+00  0.40059968098E+02  0.40059968098E+02  0.00000000000E+00 0. -1.
          1   -1    0    0  501    0 -0.00000000000E+00 -0.00000000000E+00 -0.31567645628E+03  0.31567645628E+03  0.00000000000E+00 0. -1.
          2    1    1    2  501    0 -0.13425397776E+02 -0.31188640756E+02 -0.90585357215E+02  0.96740268552E+02  0.00000000000E+00 0. -1.
          1    1    1    2  502    0  0.34241689926E+02 -0.55670988381E+01 -0.78221328821E+02  0.85569049316E+02  0.00000000000E+00 0. -1.
         22    1    1    2    0    0 -0.55877740516E+01  0.25262558924E+02 -0.13606358229E+03  0.13850169143E+03  0.00000000000E+00 0. -1.
         22    1    1    2    0    0 -0.15228518099E+02  0.11493180670E+02  0.29253780149E+02  0.34925415079E+02  0.00000000000E+00 0. -1.
</event>
<event>
 6    1  0.5707784E-005  0.8620979E+02  0.7818608E-02  0.1330445E+00
          2   -1    0    0  502    0  0.00000000000E+00  0.00000000000E+00  0.28727828811E+03  0.28727828811E+03  0.00000000000E+00 0. -1.
          1   -1    0    0  501    0 -0.00000000000E+00 -0.00000000000E+00 -0.24146781192E+03  0.24146781192E+03  0.00000000000E+00 0. -1.
          2    1    1    2  501    0  0.79884859966E+02 -0.93254503353E+02 -0.18380525071E+03  0.22104832828E+03  0.00000000000E+00 0. -1.
          1    1    1    2  502    0 -0.36050838843E+02  0.46051177673E+02  0.31175758552E+02  0.66274443549E+02  0.00000000000E+00 0. -1.
         22    1    1    2    0    0 -0.33743266215E+02  0.51128986764E+02  0.21392774769E+03  0.22252609405E+03  0.00000000000E+00 0. -1.
         22    1    1    2    0    0 -0.10090754908E+02 -0.39256610842E+01 -0.15487779349E+02  0.18897234156E+02  0.00000000000E+00 0. -1.
</event>
