<event>
 6    1  0.3701283E-005  0.8033932E+02  0.7818608E-02  0.1330866E+00
          2   -1    0    0  502    0  0.00000000000E+00  0.00000000000E+00  0.73735024262E+03  0.73735024262E+03  0.00000000000E+00 0.  1.
          1   -1    0    0  501    0 -0.00000000000E+00 -0.00000000000E+00 -0.13542831675E+02  0.13542831675E+02  0.00000000000E+00 0.  1.
          2    1    1    2  501    0 -0.30314805258E+02  0.90620609266E+01  0.20546823515E+03  0.20789012488E+03  0.00000000000E+00 0.  1.
          1    1    1    2  502    0  0.15356706324E+02  0.23586949224E+02  0.53339875904E+02  0.60310156394E+02  0.00000000000E+00 0.  1.
         22    1    1    2    0    0  0.27425025392E+01 -0.80259348420E+02  0.29367698429E+03  0.30445895524E+03  0.00000000000E+00 0.  1.
         22    1    1    2    0    0  0.12215596395E+02  0.47610338270E+02  0.17132231560E+03  0.17823383777E+03  0.00000000000E+00 0.  1.
</event>
<event>
 6    1  0.3701283E-005  0.1809256E+03  0.7818608E-02  0.1166910E+00
          2   -1    0    0  502    0  0.00000000000E+00  0.00000000000E+00  0.24286405387E+03  0.24286405387E+03  0.00000000000E+00 0. -1.
          1   -1    0    0  501    0 -0.00000000000E+00 -0.00000000000E+00 -0.39155735358E+03  0.39155735358E+03  0.00000000000E+00 0. -1.
          2    1    1    2  501    0 -0.26462889706E+01 -0.25818968371E+02  0.29220078789E+01  0.26118194866E+02  0.00000000000E+00 0. -1.
          1    1    1    2  502    0  0.64589280216E+02  0.55578110723E+02 -0.35205872202E+03  0.36222375027E+03  0.00000000000E+00 0. -1.
         22    1    1    2    0    0  0.27110587133E+02 -0.41431600695E+02  0.46917377203E+02  0.68211448852E+02  0.00000000000E+00 0. -1.
         22    1    1    2    0    0 -0.89053578379E+02  0.11672458343E+02  0.15352603722E+03  0.17786801346E+03  0.00000000000E+00 0. -1.
</event>
<event>
 6    1  0.3701283E-005  0.1890776E+03  0.7818608E-02  0.1159296E+00
          2   -1    0    0  502    0  0.00000000000E+00  0.00000000000E+00  0.21337784826E+03  0.21337784826E+03  0.00000000000E+00 0. -1.
          1   -1    0    0  501    0 -0.00000000000E+00 -0.00000000000E+00 -0.77971540818E+02  0.77971540818E+02  0.00000000000E+00 0. -1.
          2    1    1    2  501    0 -0.28781902601E+01  0.61068322063E+02  0.63142044607E+02  0.87889372144E+02  0.00000000000E+00 0. -1.
          1    1    1    2  502    0 -0.11739128770E+02 -0.58712362681E+02  0.19300186899E+01  0.59905539376E+02  0.00000000000E+00 0. -1.
         22    1    1    2    0    0  0.55512243564E+02 -0.34653187327E+02  0.63166954398E+02  0.90953376547E+02  0.00000000000E+00 0.  1.
         22    1    1    2    0    0 -0.40894924534E+02  0.32297227944E+02  0.71672897500E+01  0.52601101014E+02  0.00000000000E+00 0. -1.
</event>
<event>
 6    1  0.3701283E-005  0.1811279E+03  0.7818608E-02  0.1166716E+00
          2   -1    0    0  502    0  0.00000000000E+00  0.00000000000E+00  0.55199529552E+02  0.55199529552E+02  0.00000000000E+00 0.  1.
          1   -1    0    0  501    0 -0.00000000000E+00 -0.00000000000E+00 -0.15786586300E+04  0.15786586300E+04  0.00000000000E+00 0. -1.
          2    1    1    2  501    0  0.20897317604E+02  0.26557522562E+02 -0.62961262447E+02  0.71457123204E+02  0.00000000000E+00 0.  1.
          1    1    1    2  502    0 -0.23663807050E+01 -0.61119016477E+02 -0.14276348000E+04  0.14289444552E+04  0.00000000000E+00 0. -1.
         22    1    1    2    0    0  0.10451910012E+02  0.81589802280E+00  0.43683172545E+02  0.44923575949E+02  0.00000000000E+00 0.  1.
         22    1    1    2    0    0 -0.28982846911E+02  0.33745595893E+02 -0.76546210560E+02  0.88533005192E+02  0.00000000000E+00 0.  1.
</event>
<event>
 6    1  0.3701283E-005  0.1161030E+03  0.7818608E-02  0.1252278E+00
          2   -1    0    0  502    0  0.00000000000E+00  0.00000000000E+00  0.17150099553E+03  0.17150099553E+03  0.00000000000E+00 0.  1.
          1   -1    0    0  501    0 -0.00000000000E+00 -0.00000000000E+00 -0.52621918082E+03  0.52621918082E+03  0.00000000000E+00 0. -1.
          2    1    1    2  501    0 -0.90997197766E+02  0.21089700318E+01 -0.73618643533E+02  0.11706682891E+03  0.00000000000E+00 0.  1.
          1    1    1    2  502    0  0.89362945874E-01 -0.30015036428E+02 -0.38837683632E+03  0.38953495015E+03  0.00000000000E+00 0. -1.
         22    1    1    2    0    0 -0.19133102544E+02  0.17272960187E+02 -0.12046317988E+02  0.28452496264E+02  0.00000000000E+00 0. -1.
         22    1    1    2    0    0  0.11004093736E+03  0.10633106209E+02  0.11932361255E+03  0.16266590103E+03  0.00000000000E+00 0.  1.
</event>
<event>
 6    1  0.3701283E-005  0.8808914E+02  0.7818608E-02  0.1308776E+00
          2   -1    0    0  502    0  0.00000000000E+00  0.00000000000E+00  0.33995832845E+03  0.33995832845E+03  0.00000000000E+00 0.  1.
          1   -1    0    0  501    0 -0.00000000000E+00 -0.00000000000E+00 -0.13990692600E+03  0.13990692600E+03  0.00000000000E+00 0.  1.
          2    1    1    2  501    0 -0.26696502014E+02 -0.13450046209E+02  0.17523038300E+02  0.34650596445E+02  0.00000000000E+00 0.  1.
          1    1    1    2  502    0 -0.25649925246E+02 -0.26965847902E+02 -0.11258213753E+03  0.11857408363E+03  0.00000000000E+00 0.  1.
         22    1    1    2    0    0  0.86167279078E+02  0.51737691264E+02  0.24768879558E+03  0.26730381242E+03  0.00000000000E+00 0.  1.
         22    1    1    2    0    0 -0.33820851819E+02 -0.11321797153E+02  0.47421706101E+02  0.59336761945E+02  0.00000000000E+00 0. -1.
</event>
<event>
 6    1  0.3701283E-005  0.3667290E+03  0.7818608E-02  0.1055951E+00
          2   -1    0    0  502    0  0.00000000000E+00  0.00000000000E+00  0.10832416128E+04  0.10832416128E+04  0.00000000000E+00 0. -1.
          1   -1    0    0  501    0 -0.00000000000E+00 -0.00000000000E+00 -0.33469869810E+03  0.33469869810E+03  0.00000000000E+00 0.  1.
          2    1    1    2  501    0  0.12671654701E+03 -0.87273687367E+02  0.23109327400E+03  0.27762903501E+03  0.00000000000E+00 0. -1.
          1    1    1    2  502    0 -0.20362555933E+03  0.35189134365E+01 -0.26838519077E+03  0.33690705216E+03  0.00000000000E+00 0.  1.
         22    1    1    2    0    0  0.62991900376E+02  0.11576462235E+03  0.59753112559E+03  0.61189286101E+03  0.00000000000E+00 0. -1.
         22    1    1    2    0    0  0.13917111949E+02 -0.32009848423E+02  0.18830370592E+03  0.19151136275E+03  0.00000000000E+00 0.  1.
</event>
<event>
 6    1  0.3701283E-005  0.2137816E+03  0.7818608E-02  0.1138606E+00
          2   -1    0    0  502    0  0.00000000000E+00  0.00000000000E+00  0.29218838872E+03  0.29218838872E+03  0.00000000000E+00 0.  1.
          1   -1    0    0  501    0 -0.00000000000E+00 -0.00000000000E+00 -0.10635439181E+03  0.10635439181E+03  0.00000000000E+00 0.  1.
          2    1    1    2  501    0 -0.12177677681E+02 -0.32291746573E+02 -0.31575554375E+01  0.34655777105E+02  0.00000000000E+00 0.  1.
          1    1    1    2  502    0  0.19777373495E+02 -0.61150953890E+02 -0.49116111791E+02  0.80888664852E+02  0.00000000000E+00 0.  1.
         22    1    1    2    0    0  0.33787268992E+01 -0.29090702979E+02  0.56582383410E+02  0.63712250844E+02  0.00000000000E+00 0.  1.
         22    1    1    2    0    0 -0.10978422713E+02  0.12253340344E+03  0.18152528073E+03  0.21928608772E+03  0.00000000000E+00 0.  1.
</event>
<event>
 6    1  0.3701283E-005  0.1251469E+03  0.7818608E-02  0.1277125E+00
          2   -1    0    0  502    0  0.00000000000E+00  0.00000000000E+00  0.55742514122E+03  0.55742514122E+03  0.00000000000E+00 0. -1.
          1   -1    0    0  501    0 -0.00000000000E+00 -0.00000000000E+00 -0.86625380739E+03  0.86625380739E+03  0.00000000000E+00 0. -1.
          2    1    1    2  501    0  0.53405625939E+02 -0.13840252429E+02  0.98790188222E+02  0.11315129146E+03  0.00000000000E+00 0. -1.
          1    1    1    2  502    0 -0.11074476412E+03  0.32630550233E+02 -0.84466992002E+03  0.85252356529E+03  0.00000000000E+00 0. -1.
         22    1    1    2    0    0  0.66029438652E+02  0.34709198459E+02  0.17218736399E+03  0.18765154821E+03  0.00000000000E+00 0. -1.
         22    1    1    2    0    0 -0.86903004688E+01 -0.53499496263E+02  0.26486370163E+03  0.27035254366E+03  0.00000000000E+00 0. -1.
</event>
<event>
 6    1  0.3701283E-005  0.1676727E+03  0.7818608E-02  0.1182495E+00
          2   -1    0    0  502    0  0.00000000000E+00  0.00000000000E+00  0.68807589746E+02  0.68807589746E+02  0.00000000000E+00 0.  1.
          1   -1    0    0  501    0 -0.00000000000E+00 -0.00000000000E+00 -0.16100573920E+04  0.16100573920E+04  0.00000000000E+00 0. -1.
          2    1    1    2  501    0  0.15070297802E+03 -0.39302727988E+02 -0.25361638336E+03  0.29761949183E+03  0.00000000000E+00 0.  1.
          1    1    1    2  502    0 -0.25279641225E+02  0.76686961728E+00 -0.11641705328E+04  0.11644452232E+04  0.00000000000E+00 0. -1.
         22    1    1    2    0    0  0.14618043876E+02 -0.20930186220E+02 -0.23926670743E+02  0.34989219408E+02  0.00000000000E+00 0.  1.
         22    1    1    2    0    0 -0.14004138067E+03  0.59466044590E+02 -0.99536215322E+02  0.18181104730E+03  0.00000000000E+00 0.  1.
</event>
<event>
 6    1  0.3701283E-005  0.1660319E+03  0.7818608E-02  0.1182050E+00
          2   -1    0    0  502    0  0.00000000000E+00  0.00000000000E+00  0.38259093730E+02  0.38259093730E+02  0.00000000000E+00 0. -1.
          1   -1    0    0  501    0 -0.00000000000E+00 -0.00000000000E+00 -0.17299825644E+04  0.17299825644E+04  0.00000000000E+00 0. -1.
          2    1    1    2  501    0 -0.22423625932E+02  0.98344888126E+01 -0.48529561599E+02  0.54356733889E+02  0.00000000000E+00 0. -1.
          1    1    1    2  502    0 -0.89929331437E+01  0.31407509449E+02 -0.15488645585E+04  0.15492090643E+04  0.00000000000E+00 0. -1.
         22    1    1    2    0    0  0.50401168464E+02 -0.39446777595E+02  0.43696892002E+01  0.64151541126E+02  0.00000000000E+00 0. -1.
         22    1    1    2    0    0 -0.18984609388E+02 -0.17952206669E+01 -0.98699039827E+02  0.10052431882E+03  0.00000000000E+00 0. -1.
</event>
<event>
 6    1  0.3701283E-005  0.1722685E+03  0.7818608E-02  0.1175503E+00
          2   -1    0    0  502    0  0.00000000000E+00  0.00000000000E+00  0.63624413105E+03  0.63624413105E+03  0.00000000000E+00 0.  1.
          1   -1    0    0  501    0 -0.00000000000E+00 -0.00000000000E+00 -0.37527861734E+02  0.37527861734E+02  0.00000000000E+00 0.  1.
          2    1    1    2  501    0  0.31150560760E+02 -0.18761866401E+02  0.13460573630E+03  0.13943123506E+03  0.00000000000E+00 0.  1.
          1    1    1    2  502    0 -0.43606375802E+02  0.59028690934E+02  0.29563199417E+02  0.79119435816E+02  0.00000000000E+00 0.  1.
         22    1    1    2    0    0  0.36068819860E+02  0.38457794719E+02  0.14756280149E+03  0.15669952816E+03  0.00000000000E+00 0.  1.
         22    1    1    2    0    0 -0.23613004819E+02 -0.78724619252E+02  0.28698453211E+03  0.29852179375E+03  0.00000000000E+00 0.  1.
</event>
<event>
 6    1  0.3701283E-005  0.1409636E+03  0.7818608E-02  0.1212863E+00
          2   -1    0    0  502    0  0.00000000000E+00  0.00000000000E+00  0.79747883201E+02  0.79747883201E+02  0.00000000000E+00 0. -1.
          1   -1    0    0  501    0 -0.00000000000E+00 -0.00000000000E+00 -0.11286148658E+04  0.11286148658E+04  0.00000000000E+00 0. -1.
          2    1    1    2  501    0  0.59778400948E+02 -0.94975924068E+02 -0.75382251525E+02  0.13519011509E+03  0.00000000000E+00 0. -1.
          1    1    1    2  502    0 -0.11178828107E+03 -0.52450485876E+02 -0.79208326047E+03  0.80165052534E+03  0.00000000000E+00 0. -1.
         22    1    1    2    0    0  0.19417955211E+01 -0.22650897427E+02 -0.97111870673E+01  0.24721263688E+02  0.00000000000E+00 0. -1.
         22    1    1    2    0    0  0.50068084602E+02  0.17007730737E+03 -0.17169028355E+03  0.24680084490E+03  0.00000000000E+00 0. -1.
</event>
<event>
 6    1  0.3701283E-005  0.2383740E+03  0.7818608E-02  0.1120881E+00
          2   -1    0    0  502    0  0.00000000000E+00  0.00000000000E+00  0.21670968919E+03  0.21670968919E+03  0.00000000000E+00 0.  1.
          1   -1    0    0  501    0 -0.00000000000E+00 -0.00000000000E+00 -0.22602924497E+03  0.22602924497E+03  0.00000000000E+00 0.  1.
          2    1    1    2  501    0  0.13347170365E+02 -0.24156288657E+02 -0.15514971268E+02  0.31660504922E+02  0.00000000000E+00 0.  1.
          1    1    1    2  502    0 -0.81665431415E+02  0.16198585948E+03 -0.73726766594E+02  0.19581699996E+03  0.00000000000E+00 0.  1.
         22    1    1    2    0    0  0.84158609974E+02 -0.92896966553E+02  0.10307863702E+03  0.16228901207E+03  0.00000000000E+00 0.  1.
         22    1    1    2    0    0 -0.15840348924E+02 -0.44932604273E+02 -0.23156454932E+02  0.52972417217E+02  0.00000000000E+00 0. -1.
</event>
<event>
 6    1  0.3701283E-005  0.8073770E+02  0.7818608E-02  0.1328042E+00
          2   -1    0    0  502    0  0.00000000000E+00  0.00000000000E+00  0.17447222911E+03  0.17447222911E+03  0.00000000000E+00 0.  1.
          1   -1    0    0  501    0 -0.00000000000E+00 -0.00000000000E+00 -0.13802005328E+03  0.13802005328E+03  0.00000000000E+00 0.  1.
          2    1    1    2  501    0 -0.31428636118E+02 -0.16711785016E+02 -0.15731414340E+02  0.38916838564E+02  0.00000000000E+00 0.  1.
          1    1    1    2  502    0 -0.28830157209E+02  0.17157319089E+02 -0.78591746071E+02  0.85452993590E+02  0.00000000000E+00 0.  1.
         22    1    1    2    0    0  0.81357443075E+02  0.21538911265E+02  0.13319481355E+03  0.15755575711E+03  0.00000000000E+00 0.  1.
         22    1    1    2    0    0 -0.21098649747E+02 -0.21984445338E+02 -0.24194773114E+01  0.30566693122E+02  0.00000000000E+00 0. -1.
</event>
<event>
 6    1  0.3701283E-005  0.7944243E+02  0.7818608E-02  0.1333675E+00
          2   -1    0    0  502    0  0.00000000000E+00  0.00000000000E+00  0.24226683895E+03  0.24226683895E+03  0.00000000000E+00 0. -1.
          1   -1    0    0  501    0 -0.00000000000E+00 -0.00000000000E+00 -0.87501806580E+02  0.87501806580E+02  0.00000000000E+00 0.  1.
          2    1    1    2  501    0  0.26789204707E+02  0.19192153668E+02 -0.92967691951E+01  0.34240767642E+02  0.00000000000E+00 0. -1.
          1    1    1    2  502    0 -0.51909260746E+02  0.11259517266E+02  0.15662613516E+03  0.16538770902E+03  0.00000000000E+00 0.  1.
         22    1    1    2    0    0  0.57653992805E+02  0.25714369007E+02  0.14727282165E+02  0.64823641519E+02  0.00000000000E+00 0. -1.
         22    1    1    2    0    0 -0.32533936766E+02 -0.56166039942E+02 -0.72916157613E+01  0.65316527347E+02  0.00000000000E+00 0.  1.
</event>
<event>
 6    1  0.3701283E-005  0.3949086E+03  0.7818608E-02  0.1045557E+00
          2   -1    0    0  502    0  0.00000000000E+00  0.00000000000E+00  0.81497631539E+03  0.81497631539E+03  0.00000000000E+00 0.  1.
          1   -1    0    0  501    0 -0.00000000000E+00 -0.00000000000E+00 -0.49300766026E+03  0.49300766026E+03  0.00000000000E+00 0. -1.
          2    1    1    2  501    0  0.33832831481E+02 -0.26780272295E+02  0.19510440881E+02  0.47355050138E+02  0.00000000000E+00 0.  1.
          1    1    1    2  502    0  0.24657300478E+03  0.14222896926E+03 -0.39652280993E+03  0.48811644633E+03  0.00000000000E+00 0. -1.
         22    1    1    2    0    0 -0.29331302920E+03 -0.10917001223E+03  0.68123976499E+03  0.74969209818E+03  0.00000000000E+00 0.  1.
         22    1    1    2    0    0  0.12907192936E+02 -0.62786847367E+01  0.17741259192E+02  0.22820381005E+02  0.00000000000E+00 0. -1.
</event>
<event>
 6    1  0.3701283E-005  0.2236113E+03  0.7818608E-02  0.1131219E+00
          2   -1    0    0  502    0  0.00000000000E+00  0.00000000000E+00  0.49658037186E+02  0.49658037186E+02  0.00000000000E+00 0. -1.
          1   -1    0    0  501    0 -0.00000000000E+00 -0.00000000000E+00 -0.38491177761E+03  0.38491177761E+03  0.00000000000E+00 0. -1.
          2    1    1    2  501    0  0.15142164175E+02 -0.64421956475E+02 -0.69629306311E+02  0.96060990570E+02  0.00000000000E+00 0. -1.
          1    1    1    2  502    0 -0.20211965396E+02 -0.27753023142E+02 -0.11764058924E+03  0.12254820307E+03  0.00000000000E+00 0. -1.
         22    1    1    2    0    0 -0.54635942452E+02  0.77680668644E+02 -0.78542380827E+02  0.12324073221E+03  0.00000000000E+00 0. -1.
         22    1    1    2    0    0  0.59705743673E+02  0.14494310972E+02 -0.69441464049E+02  0.92719888953E+02  0.00000000000E+00 0. -1.
</event>
<event>
 6    1  0.3701283E-005  0.2194594E+03  0.7818608E-02  0.1134287E+00
          2   -1    0    0  502    0  0.00000000000E+00  0.00000000000E+00  0.74113347077E+03  0.74113347077E+03  0.00000000000E+00 0. -1.
          1   -1    0    0  501    0 -0.00000000000E+00 -0.00000000000E+00 -0.72860909929E+02  0.72860909929E+02  0.00000000000E+00 0. -1.
          2    1    1    2  501    0 -0.48379190500E+02  0.38472057787E+01 -0.30048450711E+02  0.57081139231E+02  0.00000000000E+00 0. -1.
          1    1    1    2  502    0  0.53897794688E+02  0.17463612090E+02  0.57123658784E+03  0.57403936216E+03  0.00000000000E+00 0. -1.
         22    1    1    2    0    0  0.27446164408E+02 -0.68375452205E+02  0.78079397685E+02  0.10735402530E+03  0.00000000000E+00 0. -1.
         22    1    1    2    0    0 -0.32964768596E+02  0.47064634336E+02  0.49005026018E+02  0.75519854004E+02  0.00000000000E+00 0. -1.
</event>
<event>
 6    1  0.3701283E-005  0.3877798E+03  0.7818608E-02  0.1048095E+00
          2   -1    0    0  502    0  0.00000000000E+00  0.00000000000E+00  0.33336382095E+03  0.33336382095E+03  0.00000000000E+00 0. -1.
          1   -1    0    0  501    0 -0.00000000000E+00 -0.00000000000E+00 -0.16961118259E+04  0.16961118259E+04  0.00000000000E+00 0. -1.
          2    1    1    2  501    0 -0.14424046710E+03 -0.19002914312E+03  0.54869833555E+02  0.24480009440E+03  0.00000000000E+00 0. -1.
          1    1    1    2  502    0  0.15120253998E+03  0.19274303837E+03 -0.15705406742E+04  0.15895314077E+04  0.00000000000E+00 0. -1.
         22    1    1    2    0    0  0.35713860281E+02 -0.45113565254E+02  0.98225973256E+02  0.11383784699E+03  0.00000000000E+00 0. -1.
         22    1    1    2    0    0 -0.42675933163E+02  0.42399670003E+02  0.54696862432E+02  0.81306297712E+02  0.00000000000E+00 0.  1.
</event>
<event>
 6    1  0.3701283E-005  0.2260192E+03  0.7818608E-02  0.1129473E+00
          2   -1    0    0  502    0  0.00000000000E+00  0.00000000000E+00  0.19712392530E+03  0.19712392530E+03  0.00000000000E+00 0. -1.
          1   -1    0    0  501    0 -0.00000000000E+00 -0.00000000000E+00 -0.52353414408E+03  0.52353414408E+03  0.00000000000E+00 0.  1.
          2    1    1    2  501    0  0.48706569614E+02 -0.27662972988E+02 -0.75124217012E+01  0.56515541915E+02  0.00000000000E+00 0. -1.
          1    1    1    2  502    0 -0.50397894815E+02 -0.50368514546E+02 -0.45505012285E+03  0.46059477783E+03  0.00000000000E+00 0.  1.
         22    1    1    2    0    0  0.39692594485E+02 -0.12312786639E+02  0.81113908773E+02  0.91140402502E+02  0.00000000000E+00 0. -1.
         22    1    1    2    0    0 -0.38001269285E+02  0.90344274173E+02  0.55038417002E+02  0.11240734713E+03  0.00000000000E+00 0. -1.
</event>
<event>
 6    1  0.3701283E-005  0.9198739E+02  0.7818608E-02  0.1299507E+00
          2   -1    0    0  502    0  0.00000000000E+00  0.00000000000E+00  0.26804291947E+03  0.26804291947E+03  0.00000000000E+00 0.  1.
          1   -1    0    0  501    0 -0.00000000000E+00 -0.00000000000E+00 -0.11480922681E+03  0.11480922681E+03  0.00000000000E+00 0. -1.
          2    1    1    2  501    0  0.87373336952E+01  0.40320776707E+02  0.58643063932E+02  0.71701568893E+02  0.00000000000E+00 0.  1.
          1    1    1    2  502    0 -0.36002714461E+02  0.21054020070E+02 -0.76443371195E+02  0.87080745342E+02  0.00000000000E+00 0. -1.
         22    1    1    2    0    0  0.21730154063E+02 -0.99944206100E+02  0.14407552259E+03  0.17668842673E+03  0.00000000000E+00 0.  1.
         22    1    1    2    0    0  0.55352267028E+01  0.38569409324E+02  0.26958477333E+02  0.47381405322E+02  0.00000000000E+00 0.  1.
</event>
<event>
 6    1  0.3701283E-005  0.1067817E+03  0.7818608E-02  0.1267282E+00
          2   -1    0    0  502    0  0.00000000000E+00  0.00000000000E+00  0.46439301502E+03  0.46439301502E+03  0.00000000000E+00 0.  1.
          1   -1    0    0  501    0 -0.00000000000E+00 -0.00000000000E+00 -0.26386461344E+04  0.26386461344E+04  0.00000000000E+00 0. -1.
          2    1    1    2  501    0 -0.17068588698E+01 -0.48176505024E+02  0.24751303264E+02  0.54189630159E+02  0.00000000000E+00 0.  1.
          1    1    1    2  502    0 -0.40708428807E+02 -0.40417533446E+02 -0.26086306686E+04  0.26092613358E+04  0.00000000000E+00 0. -1.
         22    1    1    2    0    0  0.50708068537E+01 -0.26792376757E+02  0.27704116111E+02  0.38872388452E+02  0.00000000000E+00 0. -1.
         22    1    1    2    0    0  0.37344480823E+02  0.11538641523E+03  0.38192212989E+03  0.40071579500E+03  0.00000000000E+00 0.  1.
</event>
<event>
 6    1  0.3701283E-005  0.3194507E+03  0.7818608E-02  0.1075902E+00
          2   -1    0    0  502    0  0.00000000000E+00  0.00000000000E+00  0.10046934532E+04  0.10046934532E+04  0.00000000000E+00 0.  1.
          1   -1    0    0  501    0 -0.00000000000E+00 -0.00000000000E+00 -0.41537120935E+03  0.41537120935E+03  0.00000000000E+00 0. -1.
          2    1    1    2  501    0  0.64962583697E+02 -0.70305899499E+02  0.24496388588E+03  0.26300258967E+03  0.00000000000E+00 0.  1.
          1    1    1    2  502    0  0.61071753023E+02  0.20136744806E+03 -0.36079921894E+03  0.41767772809E+03  0.00000000000E+00 0. -1.
         22    1    1    2    0    0  0.18360103295E+02  0.96380793403E+01  0.63692090229E+02  0.66982597174E+02  0.00000000000E+00 0.  1.
         22    1    1    2    0    0 -0.14439444002E+03 -0.14069962790E+03  0.64146548671E+03  0.67240174765E+03  0.00000000000E+00 0.  1.
</event>
<event>
 6    1  0.3701283E-005  0.3315588E+03  0.7818608E-02  0.1070449E+00
          2   -1    0    0  502    0  0.00000000000E+00  0.00000000000E+00  0.37813768572E+03  0.37813768572E+03  0.00000000000E+00 0. -1.
          1   -1    0    0  501    0 -0.00000000000E+00 -0.00000000000E+00 -0.77210854133E+03  0.77210854133E+03  0.00000000000E+00 0.  1.
          2    1    1    2  501    0 -0.16622028350E+02  0.12988484944E+03  0.36758692140E+02  0.13600576234E+03  0.00000000000E+00 0. -1.
          1    1    1    2  502    0  0.11401213197E+03 -0.84718885525E+02 -0.69078695114E+03  0.70523943995E+03  0.00000000000E+00 0.  1.
         22    1    1    2    0    0  0.17905990799E+02  0.12949439596E+00 -0.30749802542E+01  0.18168565680E+02  0.00000000000E+00 0. -1.
         22    1    1    2    0    0 -0.11529609442E+03 -0.45295458315E+02  0.26313238365E+03  0.29083245908E+03  0.00000000000E+00 0. -1.
</event>
<event>
 6    1  0.3701283E-005  0.9451823E+02  0.7818608E-02  0.1296471E+00
          2   -1    0    0  502    0  0.00000000000E+00  0.00000000000E+00  0.69443522082E+02  0.69443522082E+02  0.00000000000E+00 0. -1.
          1   -1    0    0  501    0 -0.00000000000E+00 -0.00000000000E+00 -0.66128180259E+03  0.66128180259E+03  0.00000000000E+00 0. -1.
          2    1    1    2  501    0 -0.18866790465E+02  0.53592472597E+02 -0.83723604615E+02  0.10118177144E+03  0.00000000000E+00 0. -1.
          1    1    1    2  502    0  0.20082688485E+02 -0.13335035173E+02 -0.49397351136E+03  0.49456138897E+03  0.00000000000E+00 0. -1.
         22    1    1    2    0    0 -0.18983134442E+02  0.41277186503E+02 -0.23253463373E+02  0.51038113971E+02  0.00000000000E+00 0.  1.
         22    1    1    2    0    0  0.17767236423E+02 -0.81534623927E+02  0.91122988377E+01  0.83944050291E+02  0.00000000000E+00 0. -1.
</event>
<event>
 6    1  0.3701283E-005  0.6025622E+02  0.7818608E-02  0.1399992E+00
          2   -1    0    0  502    0  0.00000000000E+00  0.00000000000E+00  0.70126847245E+02  0.70126847245E+02  0.00000000000E+00 0. -1.
          1   -1    0    0  501    0 -0.00000000000E+00 -0.00000000000E+00 -0.24602485285E+03  0.24602485285E+03  0.00000000000E+00 0. -1.
          2    1    1    2  501    0  0.38246775894E+02  0.28525390301E+02 -0.87044975113E+02  0.99263998763E+02  0.00000000000E+00 0. -1.
          1    1    1    2  502    0  0.87112711999E+01 -0.37008368676E+02 -0.77381891860E+02  0.86217531777E+02  0.00000000000E+00 0. -1.
         22    1    1    2    0    0 -0.55927426901E+02 -0.12048113597E+02  0.43132914712E+02  0.71648324841E+02  0.00000000000E+00 0. -1.
         22    1    1    2    0    0  0.89693798079E+01  0.20531091972E+02 -0.54604053344E+02  0.59021844713E+02  0.00000000000E+00 0. -1.
</event>
<event>
 6    1  0.3701283E-005  0.1319793E+03  0.7818608E-02  0.1227580E+00
          2   -1    0    0  502    0  0.00000000000E+00  0.00000000000E+00  0.58992643876E+03  0.58992643876E+03  0.00000000000E+00 0. -1.
          1   -1    0    0  501    0 -0.00000000000E+00 -0.00000000000E+00 -0.46653201974E+03  0.46653201974E+03  0.00000000000E+00 0. -1.
          2    1    1    2  501    0  0.16586786069E+02 -0.71736031569E+02  0.12557768499E+03  0.14557106397E+03  0.00000000000E+00 0. -1.
          1    1    1    2  502    0  0.44988319242E+02 -0.62655718676E+02 -0.43190576858E+03  0.43873942253E+03  0.00000000000E+00 0. -1.
         22    1    1    2    0    0 -0.40443751027E+02  0.15847829799E+03  0.36087930004E+03  0.39621324704E+03  0.00000000000E+00 0. -1.
         22    1    1    2    0    0 -0.21131354284E+02 -0.24086547748E+02  0.68843202566E+02  0.75934724967E+02  0.00000000000E+00 0. -1.
</event>
<event>
 6    1  0.3701283E-005  0.1183774E+03  0.7818608E-02  0.1249665E+00
          2   -1    0    0  502    0  0.00000000000E+00  0.00000000000E+00  0.66910303101E+02  0.66910303101E+02  0.00000000000E+00 0. -1.
          1   -1    0    0  501    0 -0.00000000000E+00 -0.00000000000E+00 -0.87486848062E+03  0.87486848062E+03  0.00000000000E+00 0. -1.
          2    1    1    2  501    0 -0.83863247542E+02  0.78976228755E+02 -0.77028858338E+02  0.13857753791E+03  0.00000000000E+00 0. -1.
          1    1    1    2  502    0  0.79071715589E+02 -0.20437614444E+02 -0.62749992025E+03  0.63279236895E+03  0.00000000000E+00 0. -1.
         22    1    1    2    0    0  0.53717801229E+02 -0.66796786211E+02 -0.62404402331E+02  0.10602698830E+03  0.00000000000E+00 0. -1.
         22    1    1    2    0    0 -0.48926269276E+02  0.82581719013E+01 -0.41024996599E+02  0.64381888558E+02  0.00000000000E+00 0.  1.
</event>
<event>
 6    1  0.3701283E-005  0.9062592E+02  0.7818608E-02  0.1304791E+00
          2   -1    0    0  502    0  0.00000000000E+00  0.00000000000E+00  0.99297891805E+03  0.99297891805E+03  0.00000000000E+00 0. -1.
          1   -1    0    0  501    0 -0.00000000000E+00 -0.00000000000E+00 -0.72309800721E+03  0.72309800721E+03  0.00000000000E+00 0. -1.
          2    1    1    2  501    0 -0.14773931456E+02 -0.44397414508E+02  0.40695826428E+03  0.40963938816E+03  0.00000000000E+00 0. -1.
          1    1    1    2  502    0 -0.68833217757E+01  0.51328335352E+02 -0.71369594851E+03  0.71557241776E+03  0.00000000000E+00 0. -1.
         22    1    1    2    0    0 -0.16170656527E+02 -0.60645388719E+02  0.30789843976E+03  0.31423049265E+03  0.00000000000E+00 0. -1.
         22    1    1    2    0    0  0.37827909758E+02  0.53714467875E+02  0.26872015531E+03  0.27663462669E+03  0.00000000000E+00 0. -1.
</event>
<event>
 6    1  0.3701283E-005  0.2655103E+03  0.7818608E-02  0.1103877E+00
          2   -1    0    0  502    0  0.00000000000E+00  0.00000000000E+00  0.58307763032E+02  0.58307763032E+02  0.00000000000E+00 0.  1.
          1   -1    0    0  501    0 -0.00000000000E+00 -0.00000000000E+00 -0.92885127392E+03  0.92885127392E+03  0.00000000000E+00 0.  1.
          2    1    1    2  501    0  0.60181880580E+02 -0.23601021596E+02 -0.13892754580E+02  0.66120160317E+02  0.00000000000E+00 0.  1.
          1    1    1    2  502    0 -0.61756638164E+02  0.14136003683E+03 -0.54848643357E+03  0.56976654007E+03  0.00000000000E+00 0.  1.
         22    1    1    2    0    0  0.18371052572E+02 -0.54087018427E+01  0.35736868614E+01  0.19481295285E+02  0.00000000000E+00 0. -1.
         22    1    1    2    0    0 -0.16796294987E+02 -0.11235031340E+03 -0.31173800959E+03  0.33179104127E+03  0.00000000000E+00 0.  1.
</event>
<event>
 6    1  0.3701283E-005  0.9432482E+02  0.7818608E-02  0.1295887E+00
          2   -1    0    0  502    0  0.00000000000E+00  0.00000000000E+00  0.17929358528E+03  0.17929358528E+03  0.00000000000E+00 0.  1.
          1   -1    0    0  501    0 -0.00000000000E+00 -0.00000000000E+00 -0.10149277656E+03  0.10149277656E+03  0.00000000000E+00 0.  1.
          2    1    1    2  501    0  0.10950123262E+02  0.49732409601E+02 -0.30096412736E+02  0.59152445628E+02  0.00000000000E+00 0.  1.
          1    1    1    2  502    0 -0.51355110588E+02  0.76380719553E+01  0.44816609636E+02  0.68587287641E+02  0.00000000000E+00 0.  1.
         22    1    1    2    0    0 -0.16354762818E+02  0.22645780176E+02 -0.11095901938E+02  0.30057090119E+02  0.00000000000E+00 0.  1.
         22    1    1    2    0    0  0.56759750143E+02 -0.80016261732E+02  0.74176513756E+02  0.12298953846E+03  0.00000000000E+00 0.  1.
</event>
<event>
 6    1  0.3701283E-005  0.1004976E+03  0.7818608E-02  0.1331357E+00
          2   -1    0    0  502    0  0.00000000000E+00  0.00000000000E+00  0.71846745202E+02  0.71846745202E+02  0.00000000000E+00 0.  1.
          1   -1    0    0  501    0 -0.00000000000E+00 -0.00000000000E+00 -0.47760996285E+03  0.47760996285E+03  0.00000000000E+00 0.  1.
          2    1    1    2  501    0  0.50740933580E+02 -0.19637193412E+02 -0.19821725065E+02  0.57906497824E+02  0.00000000000E+00 0.  1.
          1    1    1    2  502    0 -0.86956881414E+02  0.26869658150E+02 -0.34892818288E+03  0.36060276560E+03  0.00000000000E+00 0.  1.
         22    1    1    2    0    0  0.73624053003E+02  0.28799184278E+01 -0.51154330843E+02  0.89697049421E+02  0.00000000000E+00 0.  1.
         22    1    1    2    0    0 -0.37408105169E+02 -0.10112383165E+02  0.14141021138E+02  0.41250395203E+02  0.00000000000E+00 0.  1.
</event>
<event>
 6    1  0.3701283E-005  0.1002788E+03  0.7818608E-02  0.1281326E+00
          2   -1    0    0  502    0  0.00000000000E+00  0.00000000000E+00  0.16330871520E+03  0.16330871520E+03  0.00000000000E+00 0. -1.
          1   -1    0    0  501    0 -0.00000000000E+00 -0.00000000000E+00 -0.75217802635E+03  0.75217802635E+03  0.00000000000E+00 0.  1.
          2    1    1    2  501    0  0.78117879751E+02  0.21935160553E+02  0.99076339156E+02  0.12806121734E+03  0.00000000000E+00 0. -1.
          1    1    1    2  502    0 -0.23455340804E+02  0.24846559110E+02 -0.62928771449E+03  0.63021467146E+03  0.00000000000E+00 0.  1.
         22    1    1    2    0    0  0.20774110446E+02 -0.67661524756E+01  0.28022584539E+02  0.35533220068E+02  0.00000000000E+00 0. -1.
         22    1    1    2    0    0 -0.75436649393E+02 -0.40015567188E+02 -0.86680520345E+02  0.12167763269E+03  0.00000000000E+00 0.  1.
</event>
<event>
 6    1  0.3701283E-005  0.1380608E+03  0.7818608E-02  0.1277294E+00
          2   -1    0    0  502    0  0.00000000000E+00  0.00000000000E+00  0.12850908364E+03  0.12850908364E+03  0.00000000000E+00 0. -1.
          1   -1    0    0  501    0 -0.00000000000E+00 -0.00000000000E+00 -0.47307600171E+03  0.47307600171E+03  0.00000000000E+00 0. -1.
          2    1    1    2  501    0 -0.23934817589E+02  0.61371486277E+01 -0.15112980013E+02  0.28964499843E+02  0.00000000000E+00 0. -1.
          1    1    1    2  502    0  0.13339898976E+03  0.54974030885E+01 -0.37727131189E+03  0.40019889391E+03  0.00000000000E+00 0. -1.
         22    1    1    2    0    0 -0.17990562535E+02  0.35993382631E+02  0.56010690221E+02  0.68966523419E+02  0.00000000000E+00 0. -1.
         22    1    1    2    0    0 -0.91473609637E+02 -0.47627934347E+02 -0.81933163830E+01  0.10345516818E+03  0.00000000000E+00 0. -1.
</event>
<event>
 6    1  0.3701283E-005  0.1703642E+03  0.7818608E-02  0.1177469E+00
          2   -1    0    0  502    0  0.00000000000E+00  0.00000000000E+00  0.53194013867E+02  0.53194013867E+02  0.00000000000E+00 0.  1.
          1   -1    0    0  501    0 -0.00000000000E+00 -0.00000000000E+00 -0.19845589167E+03  0.19845589167E+03  0.00000000000E+00 0. -1.
          2    1    1    2  501    0 -0.37031420307E+02 -0.99347504794E+01  0.11719810959E+01  0.38358817719E+02  0.00000000000E+00 0.  1.
          1    1    1    2  502    0  0.12073353762E+02  0.22506589560E+02 -0.50777770354E+02  0.56839197802E+02  0.00000000000E+00 0. -1.
         22    1    1    2    0    0  0.54601713512E+02  0.61314656735E+01 -0.10643559603E+03  0.11978095880E+03  0.00000000000E+00 0. -1.
         22    1    1    2    0    0 -0.29643646967E+02 -0.18703304754E+02  0.10779507486E+02  0.36670931210E+02  0.00000000000E+00 0.  1.
</event>
<event>
 6    1  0.3701283E-005  0.1084441E+03  0.7818608E-02  0.1267603E+00
          2   -1    0    0  502    0  0.00000000000E+00  0.00000000000E+00  0.69868355026E+02  0.69868355026E+02  0.00000000000E+00 0. -1.
          1   -1    0    0  501    0 -0.00000000000E+00 -0.00000000000E+00 -0.17233925666E+04  0.17233925666E+04  0.00000000000E+00 0.  1.
          2    1    1    2  501    0 -0.58935273161E+02 -0.13113751465E+02 -0.64882927009E+02  0.88629177573E+02  0.00000000000E+00 0. -1.
          1    1    1    2  502    0 -0.74877450610E+01  0.64512438118E+02 -0.15497597081E+04  0.15511199418E+04  0.00000000000E+00 0.  1.
         22    1    1    2    0    0  0.99803964819E+02 -0.55672280805E+02 -0.35604284001E+02  0.11969920335E+03  0.00000000000E+00 0. -1.
         22    1    1    2    0    0 -0.33380946598E+02  0.42735941521E+01 -0.32772925314E+01  0.33812598970E+02  0.00000000000E+00 0. -1.
</event>
<event>
 6    1  0.3701283E-005  0.8664731E+02  0.7818608E-02  0.1311788E+00
          2   -1    0    0  502    0  0.00000000000E+00  0.00000000000E+00  0.25363738742E+03  0.25363738742E+03  0.00000000000E+00 0. -1.
          1   -1    0    0  501    0 -0.00000000000E+00 -0.00000000000E+00 -0.18348003580E+03  0.18348003580E+03  0.00000000000E+00 0. -1.
          2    1    1    2  501    0 -0.32707407803E+01  0.46884955372E+02 -0.54597581773E+02  0.72040215997E+02  0.00000000000E+00 0. -1.
          1    1    1    2  502    0 -0.10830450668E+02  0.26903959256E+02 -0.95022789626E+02  0.99350149640E+02  0.00000000000E+00 0. -1.
         22    1    1    2    0    0  0.46058292683E+01  0.14034359976E+02 -0.11133126137E+02  0.18496578624E+02  0.00000000000E+00 0.  1.
         22    1    1    2    0    0  0.94953621803E+01 -0.87823274604E+02  0.23091084916E+03  0.24723047895E+03  0.00000000000E+00 0. -1.
</event>
<event>
 6    1  0.3701283E-005  0.5945263E+02  0.7818608E-02  0.1401389E+00
          2   -1    0    0  502    0  0.00000000000E+00  0.00000000000E+00  0.12058516768E+03  0.12058516768E+03  0.00000000000E+00 0. -1.
          1   -1    0    0  501    0 -0.00000000000E+00 -0.00000000000E+00 -0.29982716336E+03  0.29982716336E+03  0.00000000000E+00 0. -1.
          2    1    1    2  501    0  0.14821488608E+02  0.37418926505E+02  0.62065957552E+02  0.73973209151E+02  0.00000000000E+00 0. -1.
          1    1    1    2  502    0 -0.16770923904E+02  0.18915516314E+02 -0.20334250390E+03  0.20490786841E+03  0.00000000000E+00 0. -1.
         22    1    1    2    0    0 -0.40144436978E+00  0.17796293883E+02  0.33879609147E+02  0.38271362002E+02  0.00000000000E+00 0. -1.
         22    1    1    2    0    0  0.23508796656E+01 -0.74130736702E+02 -0.71845058481E+02  0.10325989147E+03  0.00000000000E+00 0.  1.
</event>
<event>
 6    1  0.3701283E-005  0.2272732E+03  0.7818608E-02  0.1128574E+00
          2   -1    0    0  502    0  0.00000000000E+00  0.00000000000E+00  0.35052421480E+03  0.35052421480E+03  0.00000000000E+00 0. -1.
          1   -1    0    0  501    0 -0.00000000000E+00 -0.00000000000E+00 -0.11595455165E+04  0.11595455165E+04  0.00000000000E+00 0. -1.
          2    1    1    2  501    0 -0.47236153043E+02  0.56435059787E+02  0.37262648943E+02  0.82490454804E+02  0.00000000000E+00 0. -1.
          1    1    1    2  502    0  0.23232080682E+02 -0.95477772093E+02 -0.11203276462E+04  0.11246287251E+04  0.00000000000E+00 0. -1.
         22    1    1    2    0    0  0.70464508398E+02  0.51911309375E+01  0.13210325700E+03  0.14981143246E+03  0.00000000000E+00 0.  1.
         22    1    1    2    0    0 -0.46460436037E+02  0.33851581368E+02  0.14194043849E+03  0.15313911896E+03  0.00000000000E+00 0. -1.
</event>
<event>
 6    1  0.3701283E-005  0.1987974E+03  0.7818608E-02  0.1150758E+00
          2   -1    0    0  502    0  0.00000000000E+00  0.00000000000E+00  0.55867355702E+02  0.55867355702E+02  0.00000000000E+00 0.  1.
          1   -1    0    0  501    0 -0.00000000000E+00 -0.00000000000E+00 -0.13221190582E+04  0.13221190582E+04  0.00000000000E+00 0. -1.
          2    1    1    2  501    0  0.21070927104E+02  0.20235383780E+02  0.10895334112E+02  0.31179529040E+02  0.00000000000E+00 0.  1.
          1    1    1    2  502    0  0.19629029565E+02 -0.85625948348E+02 -0.11380513337E+04  0.11414367875E+04  0.00000000000E+00 0. -1.
         22    1    1    2    0    0  0.35194072533E+02  0.31378584295E+02 -0.47826640671E+01  0.47393165852E+02  0.00000000000E+00 0.  1.
         22    1    1    2    0    0 -0.75894029202E+02  0.34011980273E+02 -0.13431303883E+03  0.15797693145E+03  0.00000000000E+00 0.  1.
</event>
<event>
 6    1  0.3701283E-005  0.1595925E+03  0.7818608E-02  0.1190568E+00
          2   -1    0    0  502    0  0.00000000000E+00  0.00000000000E+00  0.13106341785E+04  0.13106341785E+04  0.00000000000E+00 0. -1.
          1   -1    0    0  501    0 -0.00000000000E+00 -0.00000000000E+00 -0.10567501106E+03  0.10567501106E+03  0.00000000000E+00 0.  1.
          2    1    1    2  501    0 -0.99507329647E+01  0.13360767740E+03  0.60469701450E+03  0.61936137100E+03  0.00000000000E+00 0. -1.
          1    1    1    2  502    0 -0.27199311913E+02 -0.54811681620E+01 -0.84431734470E+02  0.88873863191E+02  0.00000000000E+00 0.  1.
         22    1    1    2    0    0  0.39992037539E+02 -0.14969523967E+03  0.63823225835E+03  0.65677122611E+03  0.00000000000E+00 0.  1.
         22    1    1    2    0    0 -0.28419926619E+01  0.21568730425E+02  0.46461629050E+02  0.51302729249E+02  0.00000000000E+00 0. -1.
</event>
<event>
 6    1  0.3701283E-005  0.1925555E+03  0.7818608E-02  0.1156176E+00
          2   -1    0    0  502    0  0.00000000000E+00  0.00000000000E+00  0.61283457606E+03  0.61283457606E+03  0.00000000000E+00 0. -1.
          1   -1    0    0  501    0 -0.00000000000E+00 -0.00000000000E+00 -0.45200116004E+03  0.45200116004E+03  0.00000000000E+00 0.  1.
          2    1    1    2  501    0 -0.53233708560E+02  0.21163080525E+02  0.19957111577E+03  0.20763028188E+03  0.00000000000E+00 0. -1.
          1    1    1    2  502    0  0.11275946647E+03 -0.31300915725E+02 -0.42883958513E+03  0.44451977951E+03  0.00000000000E+00 0.  1.
         22    1    1    2    0    0 -0.18942934365E+01  0.58833146767E+02  0.18551040011E+03  0.19462537362E+03  0.00000000000E+00 0. -1.
         22    1    1    2    0    0 -0.57631464473E+02 -0.48695311567E+02  0.20459148527E+03  0.21806030109E+03  0.00000000000E+00 0. -1.
</event>
<event>
 6    1  0.3701283E-005  0.7628248E+02  0.7818608E-02  0.1349540E+00
          2   -1    0    0  502    0  0.00000000000E+00  0.00000000000E+00  0.67989511520E+03  0.67989511520E+03  0.00000000000E+00 0. -1.
          1   -1    0    0  501    0 -0.00000000000E+00 -0.00000000000E+00 -0.40711766079E+02  0.40711766079E+02  0.00000000000E+00 0. -1.
          2    1    1    2  501    0 -0.43932421443E+02  0.49031087117E+02  0.15928660108E+03  0.17235523329E+03  0.00000000000E+00 0. -1.
          1    1    1    2  502    0  0.28083534418E+02 -0.58348884453E+02  0.13781210936E+02  0.66205732359E+02  0.00000000000E+00 0. -1.
         22    1    1    2    0    0  0.55873848090E+02 -0.32576177802E+02  0.22947139350E+03  0.23841185939E+03  0.00000000000E+00 0. -1.
         22    1    1    2    0    0 -0.40024961066E+02  0.41893975139E+02  0.23664414360E+03  0.24363405624E+03  0.00000000000E+00 0.  1.
</event>
<event>
 6    1  0.3701283E-005  0.5071749E+03  0.7818608E-02  0.1011923E+00
          2   -1    0    0  502    0  0.00000000000E+00  0.00000000000E+00  0.20847236516E+03  0.20847236516E+03  0.00000000000E+00 0. -1.
          1   -1    0    0  501    0 -0.00000000000E+00 -0.00000000000E+00 -0.58633790625E+03  0.58633790625E+03  0.00000000000E+00 0. -1.
          2    1    1    2  501    0  0.16834132942E+03  0.16927936539E+03 -0.53119126539E+02  0.24457299185E+03  0.00000000000E+00 0. -1.
          1    1    1    2  502    0 -0.77952696238E+02  0.47713095533E+02 -0.25793444938E+03  0.27364820941E+03  0.00000000000E+00 0. -1.
         22    1    1    2    0    0 -0.16063520679E+01  0.14376577727E+02 -0.19524265907E+02  0.24299450885E+02  0.00000000000E+00 0.  1.
         22    1    1    2    0    0 -0.88782281119E+02 -0.23136903865E+03 -0.47287699265E+02  0.25228961926E+03  0.00000000000E+00 0. -1.
</event>
<event>
 6    1  0.3701283E-005  0.1196205E+03  0.7818608E-02  0.1263373E+00
          2   -1    0    0  502    0  0.00000000000E+00  0.00000000000E+00  0.68129343072E+02  0.68129343072E+02  0.00000000000E+00 0. -1.
          1   -1    0    0  501    0 -0.00000000000E+00 -0.00000000000E+00 -0.67950704295E+03  0.67950704295E+03  0.00000000000E+00 0. -1.
          2    1    1    2  501    0  0.62593981752E+02  0.67317116940E+02 -0.31693174118E+03  0.32999292318E+03  0.00000000000E+00 0. -1.
          1    1    1    2  502    0 -0.29148556585E+02 -0.12317983549E+03 -0.23492178962E+03  0.26685418764E+03  0.00000000000E+00 0. -1.
         22    1    1    2    0    0 -0.61223795083E+02  0.52983055288E+02  0.43433583985E+01  0.81082809486E+02  0.00000000000E+00 0. -1.
         22    1    1    2    0    0  0.27778369916E+02  0.28796632663E+01 -0.63867527480E+02  0.69706465712E+02  0.00000000000E+00 0.  1.
</event>
<event>
 6    1  0.3701283E-005  0.1703716E+03  0.7818608E-02  0.1177461E+00
          2   -1    0    0  502    0  0.00000000000E+00  0.00000000000E+00  0.17285919015E+03  0.17285919015E+03  0.00000000000E+00 0.  1.
          1   -1    0    0  501    0 -0.00000000000E+00 -0.00000000000E+00 -0.58419673842E+03  0.58419673842E+03  0.00000000000E+00 0.  1.
          2    1    1    2  501    0 -0.19597471472E+02  0.13131815555E+02  0.28684617845E+02  0.37139100270E+02  0.00000000000E+00 0.  1.
          1    1    1    2  502    0 -0.53262758063E+02 -0.26125245069E+02 -0.54019475207E+03  0.54344256366E+03  0.00000000000E+00 0.  1.
         22    1    1    2    0    0  0.84774458759E+02 -0.89654831852E+01  0.13545532647E+02  0.86316685533E+02  0.00000000000E+00 0.  1.
         22    1    1    2    0    0 -0.11914229224E+02  0.21958912699E+02  0.86627053317E+02  0.90157579112E+02  0.00000000000E+00 0.  1.
</event>
<event>
 6    1  0.3701283E-005  0.1922226E+03  0.7818608E-02  0.1156472E+00
          2   -1    0    0  502    0  0.00000000000E+00  0.00000000000E+00  0.56132445026E+02  0.56132445026E+02  0.00000000000E+00 0. -1.
          1   -1    0    0  501    0 -0.00000000000E+00 -0.00000000000E+00 -0.13350325810E+04  0.13350325810E+04  0.00000000000E+00 0. -1.
          2    1    1    2  501    0  0.56916248423E+02  0.41183726186E+02 -0.35522428422E+02  0.78723576889E+02  0.00000000000E+00 0. -1.
          1    1    1    2  502    0 -0.54164486967E+02 -0.46556776875E+02 -0.11661089706E+04  0.11682942508E+04  0.00000000000E+00 0. -1.
         22    1    1    2    0    0 -0.23932082074E+02 -0.63352351667E+00 -0.10559311278E+03  0.10827304083E+03  0.00000000000E+00 0. -1.
         22    1    1    2    0    0  0.21180320617E+02  0.60065742049E+01  0.28324375797E+02  0.35874157543E+02  0.00000000000E+00 0.  1.
</event>
<event>
 6    1  0.3701283E-005  0.1467571E+03  0.7818608E-02  0.1206321E+00
          2   -1    0    0  502    0  0.00000000000E+00  0.00000000000E+00  0.78787052588E+03  0.78787052588E+03  0.00000000000E+00 0.  1.
          1   -1    0    0  501    0 -0.00000000000E+00 -0.00000000000E+00 -0.63113842514E+02  0.63113842514E+02  0.00000000000E+00 0.  1.
          2    1    1    2  501    0  0.28441312957E+02  0.89954927453E+02  0.70172314249E+02  0.11757955155E+03  0.00000000000E+00 0.  1.
          1    1    1    2  502    0 -0.30552616754E+02  0.69943782167E+02  0.40335599790E+03  0.41051389269E+03  0.00000000000E+00 0.  1.
         22    1    1    2    0    0  0.40636991379E+01  0.19606820303E+02  0.46360431736E+02  0.50499808750E+02  0.00000000000E+00 0.  1.
         22    1    1    2    0    0 -0.19523953403E+01 -0.17950552992E+03  0.20486793949E+03  0.27239111540E+03  0.00000000000E+00 0.  1.
</event>
<event>
 6    1  0.3701283E-005  0.9028586E+02  0.7818608E-02  0.1305735E+00
          2   -1    0    0  502    0  0.00000000000E+00  0.00000000000E+00  0.67357694367E+03  0.67357694367E+03  0.00000000000E+00 0.  1.
          1   -1    0    0  501    0 -0.00000000000E+00 -0.00000000000E+00 -0.36104252247E+03  0.36104252247E+03  0.00000000000E+00 0.  1.
          2    1    1    2  501    0 -0.23629387889E+02 -0.24426471200E+02  0.50781244261E+02  0.61104298016E+02  0.00000000000E+00 0.  1.
          1    1    1    2  502    0  0.43166027059E+02 -0.31109838384E+02 -0.34585025681E+03  0.34991931651E+03  0.00000000000E+00 0.  1.
         22    1    1    2    0    0  0.74553212607E+01  0.92623628060E+02  0.44779178939E+03  0.45733161375E+03  0.00000000000E+00 0.  1.
         22    1    1    2    0    0 -0.26991960431E+02 -0.37087318475E+02  0.15981164436E+03  0.16626423786E+03  0.00000000000E+00 0.  1.
</event>
<event>
 6    1  0.3701283E-005  0.3040351E+03  0.7818608E-02  0.1083241E+00
          2   -1    0    0  502    0  0.00000000000E+00  0.00000000000E+00  0.14764964525E+04  0.14764964525E+04  0.00000000000E+00 0. -1.
          1   -1    0    0  501    0 -0.00000000000E+00 -0.00000000000E+00 -0.36721147229E+02  0.36721147229E+02  0.00000000000E+00 0. -1.
          2    1    1    2  501    0  0.12574272883E+03 -0.37930466901E+02  0.30592666580E+03  0.33292803880E+03  0.00000000000E+00 0. -1.
          1    1    1    2  502    0 -0.14666588999E+03 -0.43595387522E+02  0.35342195069E+03  0.38512143063E+03  0.00000000000E+00 0. -1.
         22    1    1    2    0    0  0.13815196973E+02  0.11583398701E+03  0.63060797783E+03  0.64130709797E+03  0.00000000000E+00 0. -1.
         22    1    1    2    0    0  0.71079641823E+01 -0.34308132583E+02  0.14981871095E+03  0.15386103233E+03  0.00000000000E+00 0.  1.
</event>
<event>
 6    1  0.3701283E-005  0.2751971E+03  0.7818608E-02  0.1098341E+00
          2   -1    0    0  502    0  0.00000000000E+00  0.00000000000E+00  0.20737341550E+03  0.20737341550E+03  0.00000000000E+00 0. -1.
          1   -1    0    0  501    0 -0.00000000000E+00 -0.00000000000E+00 -0.37911508532E+03  0.37911508532E+03  0.00000000000E+00 0. -1.
          2    1    1    2  501    0  0.72199658533E+02 -0.88080902592E+02 -0.22766831815E+02  0.11614372443E+03  0.00000000000E+00 0. -1.
          1    1    1    2  502    0 -0.94176913877E+02  0.10030571477E+03 -0.26278276680E+03  0.29662317855E+03  0.00000000000E+00 0. -1.
         22    1    1    2    0    0 -0.41258757471E+02  0.33495855501E+02  0.43244721668E+02  0.68515424219E+02  0.00000000000E+00 0.  1.
         22    1    1    2    0    0  0.63236012814E+02 -0.45720667680E+02  0.70563207125E+02  0.10520617363E+03  0.00000000000E+00 0. -1.
</event>
<event>
 6    1  0.3701283E-005  0.2872707E+03  0.7818608E-02  0.1091783E+00
          2   -1    0    0  502    0  0.00000000000E+00  0.00000000000E+00  0.55468936600E+02  0.55468936600E+02  0.00000000000E+00 0. -1.
          1   -1    0    0  501    0 -0.00000000000E+00 -0.00000000000E+00 -0.95552367328E+03  0.95552367328E+03  0.00000000000E+00 0. -1.
          2    1    1    2  501    0 -0.70191821614E+02 -0.85025548436E+01 -0.27858608327E+03  0.28741849463E+03  0.00000000000E+00 0. -1.
          1    1    1    2  502    0  0.53696753522E+02  0.10900062330E+03 -0.52324152154E+03  0.53716493471E+03  0.00000000000E+00 0. -1.
         22    1    1    2    0    0  0.30007059751E+02 -0.10225630019E+03 -0.21797665048E+02  0.10877459614E+03  0.00000000000E+00 0. -1.
         22    1    1    2    0    0 -0.13511991659E+02  0.17582317305E+01 -0.76429466818E+02  0.77634584403E+02  0.00000000000E+00 0. -1.
</event>
<event>
 6    1  0.3701283E-005  0.1347616E+03  0.7818608E-02  0.1221823E+00
          2   -1    0    0  502    0  0.00000000000E+00  0.00000000000E+00  0.82165988902E+03  0.82165988902E+03  0.00000000000E+00 0. -1.
          1   -1    0    0  501    0 -0.00000000000E+00 -0.00000000000E+00 -0.10127672681E+03  0.10127672681E+03  0.00000000000E+00 0. -1.
          2    1    1    2  501    0  0.25311224779E+00 -0.12008426053E+03  0.18937485752E+03  0.22423900275E+03  0.00000000000E+00 0. -1.
          1    1    1    2  502    0  0.24493052541E+02  0.22033889449E+02 -0.70022005968E+02  0.77385290765E+02  0.00000000000E+00 0. -1.
         22    1    1    2    0    0 -0.15552554560E+02  0.12502396881E+03  0.53022239419E+03  0.54498501084E+03  0.00000000000E+00 0. -1.
         22    1    1    2    0    0 -0.91936102296E+01 -0.26973597737E+02  0.70807916464E+02  0.76327311481E+02  0.00000000000E+00 0. -1.
</event>
<event>
 6    1  0.3701283E-005  0.2835990E+03  0.7818608E-02  0.1093739E+00
          2   -1    0    0  502    0  0.00000000000E+00  0.00000000000E+00  0.19942802464E+04  0.19942802464E+04  0.00000000000E+00 0. -1.
          1   -1    0    0  501    0 -0.00000000000E+00 -0.00000000000E+00 -0.45825373275E+02  0.45825373275E+02  0.00000000000E+00 0. -1.
          2    1    1    2  501    0 -0.33436329133E+01  0.90143205024E+02  0.11370995339E+03  0.14514451692E+03  0.00000000000E+00 0. -1.
          1    1    1    2  502    0 -0.63612983782E+02 -0.21270290425E+03  0.14476624677E+04  0.14645872311E+04  0.00000000000E+00 0. -1.
         22    1    1    2    0    0  0.27628604392E+02 -0.22429704453E+02  0.10365862896E+03  0.10959718418E+03  0.00000000000E+00 0.  1.
         22    1    1    2    0    0  0.39328012304E+02  0.14498940368E+03  0.28342382317E+03  0.32077668754E+03  0.00000000000E+00 0. -1.
</event>
<event>
 6    1  0.3701283E-005  0.1313772E+03  0.7818608E-02  0.1227682E+00
          2   -1    0    0  502    0  0.00000000000E+00  0.00000000000E+00  0.19822042481E+03  0.19822042481E+03  0.00000000000E+00 0. -1.
          1   -1    0    0  501    0 -0.00000000000E+00 -0.00000000000E+00 -0.67112931488E+03  0.67112931488E+03  0.00000000000E+00 0. -1.
          2    1    1    2  501    0  0.17840883136E+02 -0.91233614864E+02 -0.15729866236E+03  0.18271491119E+03  0.00000000000E+00 0. -1.
          1    1    1    2  502    0  0.34330318245E+02 -0.11009420270E+02 -0.46160120536E+03  0.46300696633E+03  0.00000000000E+00 0. -1.
         22    1    1    2    0    0 -0.68140343660E+01 -0.17211721684E+02 -0.10748153479E+02  0.21405542060E+02  0.00000000000E+00 0. -1.
         22    1    1    2    0    0 -0.45357167015E+02  0.11945475682E+03  0.15673913112E+03  0.20222232011E+03  0.00000000000E+00 0. -1.
</event>
<event>
 6    1  0.3701283E-005  0.7759723E+02  0.7818608E-02  0.1337174E+00
          2   -1    0    0  502    0  0.00000000000E+00  0.00000000000E+00  0.12329817710E+03  0.12329817710E+03  0.00000000000E+00 0.  1.
          1   -1    0    0  501    0 -0.00000000000E+00 -0.00000000000E+00 -0.19926822536E+03  0.19926822536E+03  0.00000000000E+00 0. -1.
          2    1    1    2  501    0 -0.41114026081E+02  0.32207616218E+01  0.30861219148E+02  0.51508749677E+02  0.00000000000E+00 0.  1.
          1    1    1    2  502    0 -0.51646457542E+02  0.40413849699E+01 -0.10121133566E+03  0.11369882952E+03  0.00000000000E+00 0. -1.
         22    1    1    2    0    0  0.11620151743E+03 -0.21192595425E+02 -0.28790024000E+02  0.12157624865E+03  0.00000000000E+00 0. -1.
         22    1    1    2    0    0 -0.23441033811E+02  0.13930448834E+02  0.23170092244E+02  0.35782574606E+02  0.00000000000E+00 0. -1.
</event>
<event>
 6    1  0.3701283E-005  0.2262529E+03  0.7818608E-02  0.1129305E+00
          2   -1    0    0  502    0  0.00000000000E+00  0.00000000000E+00  0.36862505494E+02  0.36862505494E+02  0.00000000000E+00 0.  1.
          1   -1    0    0  501    0 -0.00000000000E+00 -0.00000000000E+00 -0.90741699504E+03  0.90741699504E+03  0.00000000000E+00 0.  1.
          2    1    1    2  501    0 -0.93629359114E+01 -0.24054496238E+02 -0.41347158444E+02  0.48742905838E+02  0.00000000000E+00 0.  1.
          1    1    1    2  502    0  0.47559817537E+02 -0.12810619200E+03 -0.38684427011E+03  0.41027018170E+03  0.00000000000E+00 0.  1.
         22    1    1    2    0    0 -0.92119172043E+01  0.16605651568E+03 -0.38746840668E+03  0.42165316552E+03  0.00000000000E+00 0.  1.
         22    1    1    2    0    0 -0.28984964421E+02 -0.13895827433E+02 -0.54894654314E+02  0.63613247479E+02  0.00000000000E+00 0.  1.
</event>
<event>
 6    1  0.3701283E-005  0.3643357E+03  0.7818608E-02  0.1056880E+00
          2   -1    0    0  502    0  0.00000000000E+00  0.00000000000E+00  0.15815976800E+03  0.15815976800E+03  0.00000000000E+00 0.  1.
          1   -1    0    0  501    0 -0.00000000000E+00 -0.00000000000E+00 -0.75604139062E+03  0.75604139062E+03  0.00000000000E+00 0.  1.
          2    1    1    2  501    0 -0.29065815004E+03 -0.15003480111E+03 -0.29267845333E+03  0.43892286199E+03  0.00000000000E+00 0.  1.
          1    1    1    2  502    0  0.82672673191E+01  0.31528167720E+02 -0.21589973240E+02  0.39096035773E+02  0.00000000000E+00 0.  1.
         22    1    1    2    0    0  0.16650083042E+03  0.60694505536E+02 -0.79005778823E+02  0.19403160212E+03  0.00000000000E+00 0.  1.
         22    1    1    2    0    0  0.11589005230E+03  0.57812127855E+02 -0.20460741722E+03  0.24215065875E+03  0.00000000000E+00 0.  1.
</event>
<event>
 6    1  0.3701283E-005  0.1767157E+03  0.7818608E-02  0.1171020E+00
          2   -1    0    0  502    0  0.00000000000E+00  0.00000000000E+00  0.41232265494E+02  0.41232265494E+02  0.00000000000E+00 0.  1.
          1   -1    0    0  501    0 -0.00000000000E+00 -0.00000000000E+00 -0.27255194757E+04  0.27255194757E+04  0.00000000000E+00 0.  1.
          2    1    1    2  501    0 -0.35493156997E+02 -0.83387121584E+01 -0.62644468956E+02  0.72481913639E+02  0.00000000000E+00 0.  1.
          1    1    1    2  502    0  0.33451997043E+02  0.55013255465E+02 -0.25338692135E+04  0.25346870982E+04  0.00000000000E+00 0.  1.
         22    1    1    2    0    0 -0.55439013456E+02 -0.65506907405E+01 -0.13460794810E+02  0.57424635472E+02  0.00000000000E+00 0.  1.
         22    1    1    2    0    0  0.57480173410E+02 -0.40123852566E+02 -0.74312732943E+02  0.10215809394E+03  0.00000000000E+00 0.  1.
</event>
<event>
 6    1  0.3701283E-005  0.3091218E+03  0.7818608E-02  0.1080768E+00
          2   -1    0    0  502    0  0.00000000000E+00  0.00000000000E+00  0.16145622729E+03  0.16145622729E+03  0.00000000000E+00 0. -1.
          1   -1    0    0  501    0 -0.00000000000E+00 -0.00000000000E+00 -0.11295106283E+04  0.11295106283E+04  0.00000000000E+00 0. -1.
          2    1    1    2  501    0  0.71824917184E+02 -0.80062147619E+02  0.32863099043E+02  0.11246665945E+03  0.00000000000E+00 0. -1.
          1    1    1    2  502    0 -0.20080421201E+02 -0.61003519771E+02 -0.97952902296E+03  0.98163219159E+03  0.00000000000E+00 0. -1.
         22    1    1    2    0    0  0.24614098176E+02  0.22084855623E+02  0.31742181533E+02  0.45838420189E+02  0.00000000000E+00 0. -1.
         22    1    1    2    0    0 -0.76358594158E+02  0.11898081177E+03 -0.53130658645E+02  0.15102958438E+03  0.00000000000E+00 0. -1.
</event>
<event>
 6    1  0.3701283E-005  0.6926264E+02  0.7818608E-02  0.1366136E+00
          2   -1    0    0  502    0  0.00000000000E+00  0.00000000000E+00  0.52161406804E+03  0.52161406804E+03  0.00000000000E+00 0.  1.
          1   -1    0    0  501    0 -0.00000000000E+00 -0.00000000000E+00 -0.22529656094E+03  0.22529656094E+03  0.00000000000E+00 0. -1.
          2    1    1    2  501    0  0.32386186212E+02 -0.19995288634E+02  0.22323167794E+03  0.22645321517E+03  0.00000000000E+00 0.  1.
          1    1    1    2  502    0 -0.57804673120E+02 -0.69090890938E+01 -0.20562135728E+03  0.21370366940E+03  0.00000000000E+00 0. -1.
         22    1    1    2    0    0  0.13998330500E+02 -0.33966884508E+02  0.21420220674E+03  0.21732990561E+03  0.00000000000E+00 0.  1.
         22    1    1    2    0    0  0.11420156408E+02  0.60871262236E+02  0.64504979696E+02  0.89423838791E+02  0.00000000000E+00 0.  1.
</event>
<event>
 6    1  0.3701283E-005  0.6122155E+02  0.7818608E-02  0.1394959E+00
          2   -1    0    0  502    0  0.00000000000E+00  0.00000000000E+00  0.67367849802E+02  0.67367849802E+02  0.00000000000E+00 0.  1.
          1   -1    0    0  501    0 -0.00000000000E+00 -0.00000000000E+00 -0.62996232399E+03  0.62996232399E+03  0.00000000000E+00 0. -1.
          2    1    1    2  501    0  0.50012251068E+01 -0.41560580574E+02 -0.88409584015E+02  0.97818958571E+02  0.00000000000E+00 0.  1.
          1    1    1    2  502    0 -0.15187055538E+02  0.17978140421E+02 -0.46750175251E+03  0.46809373932E+03  0.00000000000E+00 0. -1.
         22    1    1    2    0    0 -0.19591812815E+00  0.57483935406E+02  0.41999104896E+02  0.71192457646E+02  0.00000000000E+00 0.  1.
         22    1    1    2    0    0  0.10381748560E+02 -0.33901495253E+02 -0.48682242559E+02  0.60225018258E+02  0.00000000000E+00 0.  1.
</event>
<event>
 6    1  0.3701283E-005  0.1880857E+03  0.7818608E-02  0.1160199E+00
          2   -1    0    0  502    0  0.00000000000E+00  0.00000000000E+00  0.61604950154E+03  0.61604950154E+03  0.00000000000E+00 0. -1.
          1   -1    0    0  501    0 -0.00000000000E+00 -0.00000000000E+00 -0.22545361756E+02  0.22545361756E+02  0.00000000000E+00 0. -1.
          2    1    1    2  501    0 -0.53847560603E+02  0.60986009017E+01  0.70045130984E+02  0.88561126294E+02  0.00000000000E+00 0. -1.
          1    1    1    2  502    0  0.37716418373E+02  0.12526768386E+02  0.17983309341E+03  0.18417217386E+03  0.00000000000E+00 0. -1.
         22    1    1    2    0    0  0.59728730348E+02 -0.43726351544E+02  0.17843250885E+03  0.19317783326E+03  0.00000000000E+00 0. -1.
         22    1    1    2    0    0 -0.43597588118E+02  0.25100982257E+02  0.16519340654E+03  0.17268372988E+03  0.00000000000E+00 0.  1.
</event>
<event>
 6    1  0.3701283E-005  0.1225424E+03  0.7818608E-02  0.1259040E+00
          2   -1    0    0  502    0  0.00000000000E+00  0.00000000000E+00  0.53201672176E+02  0.53201672176E+02  0.00000000000E+00 0.  1.
          1   -1    0    0  501    0 -0.00000000000E+00 -0.00000000000E+00 -0.10959413735E+04  0.10959413735E+04  0.00000000000E+00 0.  1.
          2    1    1    2  501    0  0.80436124650E+02  0.20071153135E+01 -0.96246679585E+02  0.12544888199E+03  0.00000000000E+00 0.  1.
          1    1    1    2  502    0 -0.82675859923E+02 -0.69892475944E+02 -0.83335410894E+03  0.84035666647E+03  0.00000000000E+00 0.  1.
         22    1    1    2    0    0  0.46900531522E+02 -0.87709064871E+00 -0.43497747825E+01  0.47109974376E+02  0.00000000000E+00 0.  1.
         22    1    1    2    0    0 -0.44660796248E+02  0.68762451279E+02 -0.10878913802E+03  0.13622752283E+03  0.00000000000E+00 0.  1.
</event>
<event>
 6    1  0.3701283E-005  0.1303062E+03  0.7818608E-02  0.1228154E+00
          2   -1    0    0  502    0  0.00000000000E+00  0.00000000000E+00  0.28948960851E+03  0.28948960851E+03  0.00000000000E+00 0.  1.
          1   -1    0    0  501    0 -0.00000000000E+00 -0.00000000000E+00 -0.17593603402E+03  0.17593603402E+03  0.00000000000E+00 0.  1.
          2    1    1    2  501    0  0.63613014311E+02  0.81023012866E+02  0.44001981290E+02  0.11201570676E+03  0.00000000000E+00 0.  1.
          1    1    1    2  502    0 -0.75194468293E+02  0.34018532977E+02 -0.88750861985E+02  0.12119481899E+03  0.00000000000E+00 0.  1.
         22    1    1    2    0    0  0.44940265699E+01  0.23060002923E+02  0.20854488373E+01  0.23586205852E+02  0.00000000000E+00 0. -1.
         22    1    1    2    0    0  0.70874274120E+01 -0.13810154877E+03  0.15621700635E+03  0.20862891092E+03  0.00000000000E+00 0.  1.
</event>
<event>
 6    1  0.6083902E-005  0.8793781E+02  0.7818608E-02  0.1316928E+00
          2   -1    0    0  502    0  0.00000000000E+00  0.00000000000E+00  0.46828373336E+03  0.46828373336E+03  0.00000000000E+00 0.  1.
          1   -1    0    0  501    0 -0.00000000000E+00 -0.00000000000E+00 -0.35622402110E+03  0.35622402110E+03  0.00000000000E+00 0.  1.
          2    1    1    2  501    0  0.85305489097E+02 -0.47839404347E+01 -0.43796568197E+02  0.96010686603E+02  0.00000000000E+00 0.  1.
          1    1    1    2  502    0 -0.60702383881E+02 -0.59999176537E+02 -0.26731287896E+03  0.28060801103E+03  0.00000000000E+00 0.  1.
         22    1    1    2    0    0 -0.43444523582E+02  0.60799150093E+02  0.42203306431E+03  0.42859756258E+03  0.00000000000E+00 0.  1.
         22    1    1    2    0    0  0.18841418366E+02  0.39839668787E+01  0.11360951215E+01  0.19291494246E+02  0.00000000000E+00 0. -1.
</event>
<event>
 6    1  0.3701283E-005  0.1841745E+03  0.7818608E-02  0.1163823E+00
          2   -1    0    0  502    0  0.00000000000E+00  0.00000000000E+00  0.92322543761E+02  0.92322543761E+02  0.00000000000E+00 0.  1.
          1   -1    0    0  501    0 -0.00000000000E+00 -0.00000000000E+00 -0.20145949190E+03  0.20145949190E+03  0.00000000000E+00 0.  1.
          2    1    1    2  501    0 -0.47550117824E+02 -0.12169769209E+02  0.98294277728E+00  0.49092597855E+02  0.00000000000E+00 0.  1.
          1    1    1    2  502    0  0.75454368614E+02  0.38682192146E+02 -0.57692044738E+02  0.10255752414E+03  0.00000000000E+00 0.  1.
         22    1    1    2    0    0 -0.34952425243E+02  0.41135074885E+00  0.35550435361E+02  0.49856541137E+02  0.00000000000E+00 0.  1.
         22    1    1    2    0    0  0.70481744530E+01 -0.26923773686E+02 -0.87978281537E+02  0.92275372526E+02  0.00000000000E+00 0.  1.
</event>
<event>
 6    1  0.3701283E-005  0.8517881E+02  0.7818608E-02  0.1316746E+00
          2   -1    0    0  502    0  0.00000000000E+00  0.00000000000E+00  0.18110862309E+03  0.18110862309E+03  0.00000000000E+00 0. -1.
          1   -1    0    0  501    0 -0.00000000000E+00 -0.00000000000E+00 -0.14671555921E+04  0.14671555921E+04  0.00000000000E+00 0. -1.
          2    1    1    2  501    0 -0.81728823075E+01 -0.40221976508E+02  0.29094569965E+02  0.50310012928E+02  0.00000000000E+00 0. -1.
          1    1    1    2  502    0  0.57601777384E+02  0.95854344081E+01 -0.14208409354E+04  0.14220403683E+04  0.00000000000E+00 0. -1.
         22    1    1    2    0    0 -0.51511717292E+02  0.74994186973E+02  0.47279889489E+02  0.10253279011E+03  0.00000000000E+00 0. -1.
         22    1    1    2    0    0  0.20828222152E+01 -0.44357644874E+02  0.58419506946E+02  0.73381043866E+02  0.00000000000E+00 0. -1.
</event>
<event>
 6    1  0.3701283E-005  0.1940507E+03  0.7818608E-02  0.1190334E+00
          2   -1    0    0  502    0  0.00000000000E+00  0.00000000000E+00  0.64955614688E+03  0.64955614688E+03  0.00000000000E+00 0. -1.
          1   -1    0    0  501    0 -0.00000000000E+00 -0.00000000000E+00 -0.13516905987E+03  0.13516905987E+03  0.00000000000E+00 0.  1.
          2    1    1    2  501    0  0.15840398537E+03  0.54566832828E+02  0.25013159820E+03  0.30105676914E+03  0.00000000000E+00 0. -1.
          1    1    1    2  502    0 -0.14709518970E+03 -0.11164563779E+03 -0.27566711356E+01  0.18468714765E+03  0.00000000000E+00 0.  1.
         22    1    1    2    0    0  0.47171291229E+02 -0.66562454580E+01  0.10576024182E+03  0.11599424585E+03  0.00000000000E+00 0. -1.
         22    1    1    2    0    0 -0.58480086897E+02  0.63735050424E+02  0.16125191812E+03  0.18298704411E+03  0.00000000000E+00 0. -1.
</event>
<event>
 6    1  0.3701283E-005  0.1558515E+03  0.7818608E-02  0.1193462E+00
          2   -1    0    0  502    0  0.00000000000E+00  0.00000000000E+00  0.38833858758E+02  0.38833858758E+02  0.00000000000E+00 0. -1.
          1   -1    0    0  501    0 -0.00000000000E+00 -0.00000000000E+00 -0.60330702384E+03  0.60330702384E+03  0.00000000000E+00 0. -1.
          2    1    1    2  501    0 -0.17429012025E+02  0.13370591921E+02 -0.40580391021E+02  0.46144461465E+02  0.00000000000E+00 0. -1.
          1    1    1    2  502    0 -0.19926047035E+02  0.59803449001E+01 -0.44571201858E+03  0.44619728303E+03  0.00000000000E+00 0. -1.
         22    1    1    2    0    0  0.37746640407E+02  0.23240262630E+01  0.24364742782E+02  0.44987227642E+02  0.00000000000E+00 0. -1.
         22    1    1    2    0    0 -0.39158134680E+00 -0.21674963084E+02 -0.10254549827E+03  0.10481191046E+03  0.00000000000E+00 0. -1.
</event>
<event>
 6    1  0.3701283E-005  0.2083428E+03  0.7818608E-02  0.1142885E+00
          2   -1    0    0  502    0  0.00000000000E+00  0.00000000000E+00  0.21976611417E+03  0.21976611417E+03  0.00000000000E+00 0. -1.
          1   -1    0    0  501    0 -0.00000000000E+00 -0.00000000000E+00 -0.33092078069E+03  0.33092078069E+03  0.00000000000E+00 0.  1.
          2    1    1    2  501    0  0.21241340412E+02  0.48974343137E+02  0.51244590646E+01  0.53627799777E+02  0.00000000000E+00 0. -1.
          1    1    1    2  502    0  0.44235870684E+01 -0.10141438836E+03 -0.27015911576E+03  0.28860075211E+03  0.00000000000E+00 0.  1.
         22    1    1    2    0    0 -0.64297521810E+02  0.51800972157E+02  0.47448820186E+02  0.95230785801E+02  0.00000000000E+00 0. -1.
         22    1    1    2    0    0  0.38632594329E+02  0.63907306559E+00  0.10643116999E+03  0.11322755718E+03  0.00000000000E+00 0. -1.
</event>
<event>
 6    1  0.3701283E-005  0.3053863E+03  0.7818608E-02  0.1082579E+00
          2   -1    0    0  502    0  0.00000000000E+00  0.00000000000E+00  0.65388157237E+02  0.65388157237E+02  0.00000000000E+00 0. -1.
          1   -1    0    0  501    0 -0.00000000000E+00 -0.00000000000E+00 -0.10513691063E+04  0.10513691063E+04  0.00000000000E+00 0. -1.
          2    1    1    2  501    0 -0.42276357149E+02 -0.38467236556E+02 -0.28688656601E+03  0.29252507656E+03  0.00000000000E+00 0. -1.
          1    1    1    2  502    0  0.59189213174E+01  0.11717874566E+03 -0.65893070931E+03  0.66929483169E+03  0.00000000000E+00 0. -1.
         22    1    1    2    0    0  0.55062612057E+02 -0.64642257202E+02  0.22667569075E+02  0.87888175260E+02  0.00000000000E+00 0. -1.
         22    1    1    2    0    0 -0.18705176225E+02 -0.14069251904E+02 -0.62831242840E+02  0.67049180037E+02  0.00000000000E+00 0.  1.
</event>
<event>
 6    1  0.3701283E-005  0.3172928E+03  0.7818608E-02  0.1076902E+00
          2   -1    0    0  502    0  0.00000000000E+00  0.00000000000E+00  0.30352061675E+03  0.30352061675E+03  0.00000000000E+00 0.  1.
          1   -1    0    0  501    0 -0.00000000000E+00 -0.00000000000E+00 -0.11785711992E+03  0.11785711992E+03  0.00000000000E+00 0.  1.
          2    1    1    2  501    0  0.12572387084E+03 -0.40254348020E+02  0.11877502431E+03  0.17757930801E+03  0.00000000000E+00 0.  1.
          1    1    1    2  502    0 -0.36239896646E+02 -0.41373353855E+02  0.25996751816E+01  0.55062172397E+02  0.00000000000E+00 0.  1.
         22    1    1    2    0    0 -0.28483181566E+02 -0.32005690099E+02  0.37662592515E+02  0.57044953377E+02  0.00000000000E+00 0.  1.
         22    1    1    2    0    0 -0.61000792630E+02  0.11363339197E+03  0.26626204823E+02  0.13169130289E+03  0.00000000000E+00 0. -1.
</event>
<event>
 6    1  0.3701283E-005  0.7257958E+02  0.7818608E-02  0.1355745E+00
          2   -1    0    0  502    0  0.00000000000E+00  0.00000000000E+00  0.27156734825E+03  0.27156734825E+03  0.00000000000E+00 0. -1.
          1   -1    0    0  501    0 -0.00000000000E+00 -0.00000000000E+00 -0.79159875483E+03  0.79159875483E+03  0.00000000000E+00 0. -1.
          2    1    1    2  501    0 -0.39395145766E+02 -0.10890586339E+02  0.86149816727E+02  0.95353937008E+02  0.00000000000E+00 0. -1.
          1    1    1    2  502    0  0.77707879787E-01 -0.25588061104E+02 -0.75952199337E+03  0.75995290204E+03  0.00000000000E+00 0. -1.
         22    1    1    2    0    0 -0.22074733669E+02 -0.12448933931E+02  0.11986635111E+03  0.12251617016E+03  0.00000000000E+00 0. -1.
         22    1    1    2    0    0  0.61392171555E+02  0.48927581375E+02  0.33474418949E+02  0.85343093871E+02  0.00000000000E+00 0. -1.
</event>
<event>
 6    1  0.3701283E-005  0.7740596E+02  0.7818608E-02  0.1338487E+00
          2   -1    0    0  502    0  0.00000000000E+00  0.00000000000E+00  0.57499403521E+03  0.57499403521E+03  0.00000000000E+00 0.  1.
          1   -1    0    0  501    0 -0.00000000000E+00 -0.00000000000E+00 -0.11807395857E+03  0.11807395857E+03  0.00000000000E+00 0. -1.
          2    1    1    2  501    0  0.20253525007E+02 -0.17020936776E+02  0.53906911654E+02  0.60048919124E+02  0.00000000000E+00 0.  1.
          1    1    1    2  502    0 -0.21430143244E+02 -0.22556554839E+02 -0.10487803766E+03  0.10939584996E+03  0.00000000000E+00 0. -1.
         22    1    1    2    0    0 -0.16550690927E+02  0.79494946901E+02  0.37671308134E+03  0.38536491486E+03  0.00000000000E+00 0. -1.
         22    1    1    2    0    0  0.17727309165E+02 -0.39917455286E+02  0.13117812131E+03  0.13825830983E+03  0.00000000000E+00 0.  1.
</event>
<event>
 6    1  0.3701283E-005  0.6883183E+02  0.7818608E-02  0.1368146E+00
          2   -1    0    0  502    0  0.00000000000E+00  0.00000000000E+00  0.60896476500E+03  0.60896476500E+03  0.00000000000E+00 0. -1.
          1   -1    0    0  501    0 -0.00000000000E+00 -0.00000000000E+00 -0.17752661885E+02  0.17752661885E+02  0.00000000000E+00 0. -1.
          2    1    1    2  501    0  0.22919191572E+02 -0.40268869798E+01  0.66736314299E+02  0.70677017532E+02  0.00000000000E+00 0. -1.
          1    1    1    2  502    0 -0.96811543992E+01  0.49069794770E+02  0.17050412118E+03  0.17768856139E+03  0.00000000000E+00 0. -1.
         22    1    1    2    0    0  0.37939532414E+02  0.17559720068E+02  0.20123753287E+03  0.20553417362E+03  0.00000000000E+00 0. -1.
         22    1    1    2    0    0 -0.51177569587E+02 -0.62602627859E+02  0.15273413477E+03  0.17281767435E+03  0.00000000000E+00 0. -1.
</event>
<event>
 6    1  0.3701283E-005  0.8205266E+02  0.7818608E-02  0.1328185E+00
          2   -1    0    0  502    0  0.00000000000E+00  0.00000000000E+00  0.21121365299E+02  0.21121365299E+02  0.00000000000E+00 0.  1.
          1   -1    0    0  501    0 -0.00000000000E+00 -0.00000000000E+00 -0.45559357143E+03  0.45559357143E+03  0.00000000000E+00 0.  1.
          2    1    1    2  501    0  0.14397814122E+02  0.23741775442E+02 -0.86941568455E+02  0.91267766917E+02  0.00000000000E+00 0.  1.
          1    1    1    2  502    0  0.86714526586E-01  0.25479584622E+02 -0.11949703506E+03  0.12218329730E+03  0.00000000000E+00 0.  1.
         22    1    1    2    0    0 -0.20171906232E+02 -0.87362704812E+02 -0.18432574558E+03  0.20497592170E+03  0.00000000000E+00 0.  1.
         22    1    1    2    0    0  0.56873775834E+01  0.38141344748E+02 -0.43707857043E+02  0.58287950815E+02  0.00000000000E+00 0.  1.
</event>
<event>
 6    1  0.3701283E-005  0.7552364E+03  0.7818608E-02  0.9627171E-01
          2   -1    0    0  502    0  0.00000000000E+00  0.00000000000E+00  0.12660314912E+04  0.12660314912E+04  0.00000000000E+00 0.  1.
          1   -1    0    0  501    0 -0.00000000000E+00 -0.00000000000E+00 -0.13347723253E+03  0.13347723253E+03  0.00000000000E+00 0.  1.
          2    1    1    2  501    0 -0.16330565267E+03 -0.32116906924E+03  0.34667413351E+03  0.50000126208E+03  0.00000000000E+00 0.  1.
          1    1    1    2  502    0 -0.16903937902E+02  0.42708479586E+02  0.10759670017E+02  0.47175500464E+02  0.00000000000E+00 0.  1.
         22    1    1    2    0    0 -0.11391093181E+02  0.40217014203E+01  0.58932951006E+01  0.13441057002E+02  0.00000000000E+00 0. -1.
         22    1    1    2    0    0  0.19160068376E+03  0.27443888824E+03  0.76922716005E+03  0.83889090420E+03  0.00000000000E+00 0.  1.
</event>
<event>
 6    1  0.3701283E-005  0.4754481E+02  0.7818608E-02  0.1463548E+00
          2   -1    0    0  502    0  0.00000000000E+00  0.00000000000E+00  0.85468178308E+02  0.85468178308E+02  0.00000000000E+00 0.  1.
          1   -1    0    0  501    0 -0.00000000000E+00 -0.00000000000E+00 -0.10331917143E+04  0.10331917143E+04  0.00000000000E+00 0.  1.
          2    1    1    2  501    0  0.12575976442E+02  0.18294158098E+02 -0.33406290680E+02  0.40109994527E+02  0.00000000000E+00 0.  1.
          1    1    1    2  502    0  0.69651179162E+01 -0.39469519378E+02 -0.94800835278E+03  0.94885520116E+03  0.00000000000E+00 0.  1.
         22    1    1    2    0    0  0.23875620425E+02  0.58751415439E+01 -0.37544609360E+02  0.44879396507E+02  0.00000000000E+00 0. -1.
         22    1    1    2    0    0 -0.43416714783E+02  0.15300219736E+02  0.71235716783E+02  0.84815300460E+02  0.00000000000E+00 0.  1.
</event>
<event>
 6    1  0.3701283E-005  0.9534349E+02  0.7818608E-02  0.1291615E+00
          2   -1    0    0  502    0  0.00000000000E+00  0.00000000000E+00  0.17499312327E+02  0.17499312327E+02  0.00000000000E+00 0. -1.
          1   -1    0    0  501    0 -0.00000000000E+00 -0.00000000000E+00 -0.11287390732E+04  0.11287390732E+04  0.00000000000E+00 0. -1.
          2    1    1    2  501    0 -0.95490142332E+01 -0.47610369672E+02 -0.28755462120E+03  0.29162577243E+03  0.00000000000E+00 0. -1.
          1    1    1    2  502    0  0.64077985485E+02 -0.10620008685E+02 -0.43944739963E+03  0.44422155491E+03  0.00000000000E+00 0. -1.
         22    1    1    2    0    0 -0.31108834364E+01 -0.35185017584E+02 -0.12962411522E+03  0.13435056496E+03  0.00000000000E+00 0. -1.
         22    1    1    2    0    0 -0.51418087816E+02  0.93415395942E+02 -0.25461362485E+03  0.27604049324E+03  0.00000000000E+00 0. -1.
</event>
<event>
 6    1  0.3701283E-005  0.2094318E+03  0.7818608E-02  0.1142017E+00
          2   -1    0    0  502    0  0.00000000000E+00  0.00000000000E+00  0.35466058550E+02  0.35466058550E+02  0.00000000000E+00 0.  1.
          1   -1    0    0  501    0 -0.00000000000E+00 -0.00000000000E+00 -0.48414984009E+03  0.48414984009E+03  0.00000000000E+00 0.  1.
          2    1    1    2  501    0 -0.41287538778E+02 -0.88949019427E+01 -0.16239781686E+03  0.16779997336E+03  0.00000000000E+00 0.  1.
          1    1    1    2  502    0 -0.24442497641E+02 -0.39748647372E+02 -0.13144242358E+03  0.13947939409E+03  0.00000000000E+00 0.  1.
         22    1    1    2    0    0 -0.45406159317E+01  0.71183508693E+02 -0.70997132717E+02  0.10063946521E+03  0.00000000000E+00 0.  1.
         22    1    1    2    0    0  0.70270652351E+02 -0.22539959378E+02 -0.83846408381E+02  0.11169706598E+03  0.00000000000E+00 0.  1.
</event>
<event>
 6    1  0.3701283E-005  0.1072347E+03  0.7818608E-02  0.1267203E+00
          2   -1    0    0  502    0  0.00000000000E+00  0.00000000000E+00  0.82248258715E+02  0.82248258715E+02  0.00000000000E+00 0. -1.
          1   -1    0    0  501    0 -0.00000000000E+00 -0.00000000000E+00 -0.80682715673E+03  0.80682715673E+03  0.00000000000E+00 0.  1.
          2    1    1    2  501    0  0.62650952961E+02  0.16239366874E+02 -0.19140354721E+02  0.67492311578E+02  0.00000000000E+00 0. -1.
          1    1    1    2  502    0  0.14335473560E+02  0.55422450086E+02 -0.65016552500E+03  0.65268090494E+03  0.00000000000E+00 0.  1.
         22    1    1    2    0    0  0.17870405479E+02  0.20572783572E+02 -0.79403828447E+01  0.28383806926E+02  0.00000000000E+00 0. -1.
         22    1    1    2    0    0 -0.94856832000E+02 -0.92234600532E+02 -0.47332635453E+02  0.14051839200E+03  0.00000000000E+00 0. -1.
</event>
<event>
 6    1  0.3701283E-005  0.4405164E+02  0.7818608E-02  0.1484657E+00
          2   -1    0    0  502    0  0.00000000000E+00  0.00000000000E+00  0.57977239581E+02  0.57977239581E+02  0.00000000000E+00 0.  1.
          1   -1    0    0  501    0 -0.00000000000E+00 -0.00000000000E+00 -0.91110451433E+03  0.91110451433E+03  0.00000000000E+00 0.  1.
          2    1    1    2  501    0  0.10163782924E+02 -0.34420873875E+02 -0.60695743847E+02  0.70512923375E+02  0.00000000000E+00 0.  1.
          1    1    1    2  502    0 -0.18034612492E+02  0.24474335256E+02 -0.77201053140E+03  0.77260889260E+03  0.00000000000E+00 0.  1.
         22    1    1    2    0    0  0.11604959649E+02  0.38649976907E+02  0.41328582537E+02  0.57762856040E+02  0.00000000000E+00 0.  1.
         22    1    1    2    0    0 -0.37341300814E+01 -0.28703438288E+02 -0.61749582038E+02  0.68197081894E+02  0.00000000000E+00 0.  1.
</event>
<event>
 6    1  0.3701283E-005  0.2476922E+03  0.7818608E-02  0.1114772E+00
          2   -1    0    0  502    0  0.00000000000E+00  0.00000000000E+00  0.89343180251E+03  0.89343180251E+03  0.00000000000E+00 0. -1.
          1   -1    0    0  501    0 -0.00000000000E+00 -0.00000000000E+00 -0.13219876862E+03  0.13219876862E+03  0.00000000000E+00 0. -1.
          2    1    1    2  501    0 -0.45676404819E+02 -0.15982204250E+02  0.71364652292E+02  0.86224581221E+02  0.00000000000E+00 0. -1.
          1    1    1    2  502    0  0.15886726395E+03  0.89301605535E+02 -0.40342851864E+02  0.18665778848E+03  0.00000000000E+00 0. -1.
         22    1    1    2    0    0 -0.95345416792E+00 -0.33073947389E+02  0.38189322909E+02  0.50529391991E+02  0.00000000000E+00 0. -1.
         22    1    1    2    0    0 -0.11223740496E+03 -0.40245453896E+02  0.69202191056E+03  0.70221880943E+03  0.00000000000E+00 0. -1.
</event>
<event>
 6    1  0.3701283E-005  0.1571801E+03  0.7818608E-02  0.1191918E+00
          2   -1    0    0  502    0  0.00000000000E+00  0.00000000000E+00  0.65333328850E+03  0.65333328850E+03  0.00000000000E+00 0. -1.
          1   -1    0    0  501    0 -0.00000000000E+00 -0.00000000000E+00 -0.47573387223E+03  0.47573387223E+03  0.00000000000E+00 0. -1.
          2    1    1    2  501    0  0.18959755107E+02  0.16317842332E+02  0.77707237619E+02  0.81634300821E+02  0.00000000000E+00 0. -1.
          1    1    1    2  502    0  0.20445368233E+02 -0.19825237435E+02 -0.46583904649E+03  0.46670876396E+03  0.00000000000E+00 0. -1.
         22    1    1    2    0    0 -0.78900868960E+02  0.28019904145E+02  0.39511024590E+03  0.40388435048E+03  0.00000000000E+00 0.  1.
         22    1    1    2    0    0  0.39495745619E+02 -0.24512509042E+02  0.17062097924E+03  0.17683974547E+03  0.00000000000E+00 0. -1.
</event>
<event>
 6    1  0.3701283E-005  0.1211414E+03  0.7818608E-02  0.1249220E+00
          2   -1    0    0  502    0  0.00000000000E+00  0.00000000000E+00  0.17005603194E+03  0.17005603194E+03  0.00000000000E+00 0.  1.
          1   -1    0    0  501    0 -0.00000000000E+00 -0.00000000000E+00 -0.45770595195E+03  0.45770595195E+03  0.00000000000E+00 0.  1.
          2    1    1    2  501    0 -0.78804787226E+02 -0.16210447938E+02  0.32225814629E+02  0.86668773157E+02  0.00000000000E+00 0.  1.
          1    1    1    2  502    0  0.63905466724E+02  0.10121720473E+03 -0.36263376978E+03  0.38187966979E+03  0.00000000000E+00 0.  1.
         22    1    1    2    0    0  0.52979306539E+02 -0.88481840046E+02  0.17518354246E+01  0.10314510103E+03  0.00000000000E+00 0.  1.
         22    1    1    2    0    0 -0.38079986037E+02  0.34750832525E+01  0.41006199718E+02  0.56068439924E+02  0.00000000000E+00 0.  1.
</event>
<event>
 6    1  0.3701283E-005  0.2048786E+03  0.7818608E-02  0.1146034E+00
          2   -1    0    0  502    0  0.00000000000E+00  0.00000000000E+00  0.98039026259E+02  0.98039026259E+02  0.00000000000E+00 0. -1.
          1   -1    0    0  501    0 -0.00000000000E+00 -0.00000000000E+00 -0.53074979839E+03  0.53074979839E+03  0.00000000000E+00 0. -1.
          2    1    1    2  501    0 -0.13679947185E+03  0.14469130372E+03 -0.21039312408E+03  0.28968074760E+03  0.00000000000E+00 0. -1.
          1    1    1    2  502    0  0.86434874224E+01 -0.26980313442E+02 -0.76826172113E+02  0.81883502061E+02  0.00000000000E+00 0. -1.
         22    1    1    2    0    0  0.14144442979E+03 -0.13123460437E+03 -0.13567376997E+03  0.23587373733E+03  0.00000000000E+00 0. -1.
         22    1    1    2    0    0 -0.13288445362E+02  0.13523614092E+02 -0.98177059665E+01  0.21350837658E+02  0.00000000000E+00 0. -1.
</event>
<event>
 6    1  0.3701283E-005  0.2033433E+03  0.7818608E-02  0.1146949E+00
          2   -1    0    0  502    0  0.00000000000E+00  0.00000000000E+00  0.23223587828E+02  0.23223587828E+02  0.00000000000E+00 0.  1.
          1   -1    0    0  501    0 -0.00000000000E+00 -0.00000000000E+00 -0.10580869904E+04  0.10580869904E+04  0.00000000000E+00 0. -1.
          2    1    1    2  501    0 -0.24327975028E+02  0.15801159871E+02 -0.17240466733E+03  0.17482819092E+03  0.00000000000E+00 0.  1.
          1    1    1    2  502    0 -0.28811978088E+02  0.67616686342E+02 -0.55914858393E+03  0.56395858471E+03  0.00000000000E+00 0. -1.
         22    1    1    2    0    0 -0.35558282564E+02 -0.22988645978E+02 -0.14653817078E+03  0.15253296299E+03  0.00000000000E+00 0.  1.
         22    1    1    2    0    0  0.88698235681E+02 -0.60429200235E+02 -0.15677198048E+03  0.18999083956E+03  0.00000000000E+00 0. -1.
</event>
<event>
 6    1  0.3701283E-005  0.1960188E+03  0.7818608E-02  0.1153142E+00
          2   -1    0    0  502    0  0.00000000000E+00  0.00000000000E+00  0.65472328190E+03  0.65472328190E+03  0.00000000000E+00 0. -1.
          1   -1    0    0  501    0 -0.00000000000E+00 -0.00000000000E+00 -0.34026068678E+02  0.34026068678E+02  0.00000000000E+00 0. -1.
          2    1    1    2  501    0  0.28126803319E+02  0.51829543254E+02  0.51224495078E+02  0.78111250885E+02  0.00000000000E+00 0. -1.
          1    1    1    2  502    0 -0.31211453739E+01 -0.34414550262E+02  0.36465435071E+03  0.36628799913E+03  0.00000000000E+00 0. -1.
         22    1    1    2    0    0 -0.66434953394E+02  0.18704485499E+02  0.15698537596E+03  0.17148722715E+03  0.00000000000E+00 0. -1.
         22    1    1    2    0    0  0.41429295449E+02 -0.36119478491E+02  0.47832991471E+02  0.72862873405E+02  0.00000000000E+00 0.  1.
</event>
<event>
 6    1  0.3701283E-005  0.2393983E+03  0.7818608E-02  0.1194328E+00
          2   -1    0    0  502    0  0.00000000000E+00  0.00000000000E+00  0.41969772087E+03  0.41969772087E+03  0.00000000000E+00 0. -1.
          1   -1    0    0  501    0 -0.00000000000E+00 -0.00000000000E+00 -0.19659574820E+03  0.19659574820E+03  0.00000000000E+00 0.  1.
          2    1    1    2  501    0 -0.10193833647E+03  0.46160352431E+02  0.16043050583E+03  0.19560201886E+03  0.00000000000E+00 0. -1.
          1    1    1    2  502    0  0.19208436508E+03 -0.11375815162E+03 -0.34959311867E+02  0.22596343478E+03  0.00000000000E+00 0.  1.
         22    1    1    2    0    0 -0.12017425215E+03  0.37959576741E+02  0.68316138367E+02  0.14335227625E+03  0.00000000000E+00 0. -1.
         22    1    1    2    0    0  0.30028223540E+02  0.29638222452E+02  0.29314640338E+02  0.51375739189E+02  0.00000000000E+00 0.  1.
</event>
<event>
 6    1  0.3701283E-005  0.4284881E+03  0.7818608E-02  0.1034339E+00
          2   -1    0    0  502    0  0.00000000000E+00  0.00000000000E+00  0.15400902973E+03  0.15400902973E+03  0.00000000000E+00 0. -1.
          1   -1    0    0  501    0 -0.00000000000E+00 -0.00000000000E+00 -0.21621903814E+04  0.21621903814E+04  0.00000000000E+00 0. -1.
          2    1    1    2  501    0  0.28881263328E+02 -0.26549805167E+02 -0.25992913902E+03  0.26287292907E+03  0.00000000000E+00 0. -1.
          1    1    1    2  502    0  0.83292739266E+01 -0.43329390165E+02 -0.18633851198E+04  0.18639074327E+04  0.00000000000E+00 0. -1.
         22    1    1    2    0    0 -0.57644131689E+02  0.66734190817E+02  0.13467065581E+03  0.16097354962E+03  0.00000000000E+00 0. -1.
         22    1    1    2    0    0  0.20433594435E+02  0.31450045149E+01 -0.19537748661E+02  0.28445499779E+02  0.00000000000E+00 0.  1.
</event>
<event>
 6    1  0.3701283E-005  0.8169002E+02  0.7818608E-02  0.1327273E+00
          2   -1    0    0  502    0  0.00000000000E+00  0.00000000000E+00  0.51155449154E+03  0.51155449154E+03  0.00000000000E+00 0. -1.
          1   -1    0    0  501    0 -0.00000000000E+00 -0.00000000000E+00 -0.31074011365E+03  0.31074011365E+03  0.00000000000E+00 0. -1.
          2    1    1    2  501    0  0.13597854985E+02 -0.38831822482E+02  0.67941851653E+02  0.79428630251E+02  0.00000000000E+00 0. -1.
          1    1    1    2  502    0  0.38531833836E+02  0.27291996186E+02 -0.29205901381E+03  0.29585135258E+03  0.00000000000E+00 0. -1.
         22    1    1    2    0    0  0.25666570174E+02 -0.19095337565E+02  0.31861435860E+02  0.45150369171E+02  0.00000000000E+00 0. -1.
         22    1    1    2    0    0 -0.77796258995E+02  0.30635163862E+02  0.39307010419E+03  0.40186425319E+03  0.00000000000E+00 0. -1.
</event>
<event>
 6    1  0.3701283E-005  0.1657753E+03  0.7818608E-02  0.1182326E+00
          2   -1    0    0  502    0  0.00000000000E+00  0.00000000000E+00  0.11333709123E+03  0.11333709123E+03  0.00000000000E+00 0.  1.
          1   -1    0    0  501    0 -0.00000000000E+00 -0.00000000000E+00 -0.75497359665E+03  0.75497359665E+03  0.00000000000E+00 0. -1.
          2    1    1    2  501    0 -0.15171462070E+02  0.17737405599E+02 -0.32474188647E+01  0.23565537295E+02  0.00000000000E+00 0.  1.
          1    1    1    2  502    0 -0.25162229502E+02  0.31653767960E+02 -0.69344908127E+03  0.69462704175E+03  0.00000000000E+00 0. -1.
         22    1    1    2    0    0  0.49253763780E+02 -0.33539171838E+02 -0.27464131391E+02  0.65613167940E+02  0.00000000000E+00 0.  1.
         22    1    1    2    0    0 -0.89200722091E+01 -0.15852001722E+02  0.82524126105E+02  0.84504940898E+02  0.00000000000E+00 0.  1.
</event>
<event>
 6    1  0.3701283E-005  0.7148263E+02  0.7818608E-02  0.1363842E+00
          2   -1    0    0  502    0  0.00000000000E+00  0.00000000000E+00  0.12456811291E+03  0.12456811291E+03  0.00000000000E+00 0. -1.
          1   -1    0    0  501    0 -0.00000000000E+00 -0.00000000000E+00 -0.77499872023E+03  0.77499872023E+03  0.00000000000E+00 0.  1.
          2    1    1    2  501    0  0.16633738486E+01  0.67741869152E+02 -0.13986355686E+03  0.15541409906E+03  0.00000000000E+00 0. -1.
          1    1    1    2  502    0 -0.53560995754E+01 -0.33545803807E+02 -0.58863020681E+03  0.58960964131E+03  0.00000000000E+00 0.  1.
         22    1    1    2    0    0  0.11541663811E+02  0.25513055890E+02 -0.23440738946E+02  0.36518409969E+02  0.00000000000E+00 0.  1.
         22    1    1    2    0    0 -0.78489380842E+01 -0.59709121235E+02  0.10150389531E+03  0.11802468280E+03  0.00000000000E+00 0. -1.
</event>
<event>
 6    1  0.3701283E-005  0.1827377E+03  0.7818608E-02  0.1165179E+00
          2   -1    0    0  502    0  0.00000000000E+00  0.00000000000E+00  0.11208857033E+03  0.11208857033E+03  0.00000000000E+00 0. -1.
          1   -1    0    0  501    0 -0.00000000000E+00 -0.00000000000E+00 -0.13877674899E+03  0.13877674899E+03  0.00000000000E+00 0. -1.
          2    1    1    2  501    0  0.31600380773E+02  0.38663735220E+02 -0.12153840191E+02  0.51392453897E+02  0.00000000000E+00 0. -1.
          1    1    1    2  502    0 -0.45446519931E+02 -0.49510741752E+01  0.35452128606E+02  0.57851125590E+02  0.00000000000E+00 0. -1.
         22    1    1    2    0    0  0.18124794979E+02  0.26881741452E+02  0.27951767061E+02  0.42806979552E+02  0.00000000000E+00 0. -1.
         22    1    1    2    0    0 -0.42786558214E+01 -0.60594402497E+02 -0.77938234133E+02  0.98814760281E+02  0.00000000000E+00 0. -1.
</event>
<event>
 6    1  0.3701283E-005  0.2811693E+03  0.7818608E-02  0.1095052E+00
          2   -1    0    0  502    0  0.00000000000E+00  0.00000000000E+00  0.67633129952E+03  0.67633129952E+03  0.00000000000E+00 0. -1.
          1   -1    0    0  501    0 -0.00000000000E+00 -0.00000000000E+00 -0.16476911937E+04  0.16476911937E+04  0.00000000000E+00 0.  1.
          2    1    1    2  501    0  0.12062824509E+03  0.27289786273E+02  0.47800797991E+03  0.49374845297E+03  0.00000000000E+00 0. -1.
          1    1    1    2  502    0 -0.11916006285E+03 -0.48260988199E+02 -0.16158047755E+04  0.16209112610E+04  0.00000000000E+00 0.  1.
         22    1    1    2    0    0 -0.62512969627E+02  0.12799153356E+02  0.10127141755E+03  0.11969791022E+03  0.00000000000E+00 0. -1.
         22    1    1    2    0    0  0.61044787390E+02  0.81720485700E+01  0.65165483880E+02  0.89664869010E+02  0.00000000000E+00 0.  1.
</event>
<event>
 6    1  0.3701283E-005  0.1268034E+03  0.7818608E-02  0.1235761E+00
          2   -1    0    0  502    0  0.00000000000E+00  0.00000000000E+00  0.39063574582E+03  0.39063574582E+03  0.00000000000E+00 0. -1.
          1   -1    0    0  501    0 -0.00000000000E+00 -0.00000000000E+00 -0.10298965844E+03  0.10298965844E+03  0.00000000000E+00 0. -1.
          2    1    1    2  501    0  0.81409235702E+02  0.53598095395E+02  0.12785180553E+03  0.16076785644E+03  0.00000000000E+00 0. -1.
          1    1    1    2  502    0  0.54340458470E+01 -0.38359469082E+02 -0.56843988794E+02  0.68791109778E+02  0.00000000000E+00 0. -1.
         22    1    1    2    0    0 -0.10243034087E+03 -0.43421565054E+02  0.12710783212E+03  0.16891953122E+03  0.00000000000E+00 0. -1.
         22    1    1    2    0    0  0.15587059321E+02  0.28182938741E+02  0.89530438524E+02  0.95146906816E+02  0.00000000000E+00 0. -1.
</event>
<event>
 6    1  0.3701283E-005  0.1560811E+03  0.7818608E-02  0.1194986E+00
          2   -1    0    0  502    0  0.00000000000E+00  0.00000000000E+00  0.13252000929E+03  0.13252000929E+03  0.00000000000E+00 0. -1.
          1   -1    0    0  501    0 -0.00000000000E+00 -0.00000000000E+00 -0.40729509492E+03  0.40729509492E+03  0.00000000000E+00 0. -1.
          2    1    1    2  501    0  0.11782692450E+02 -0.70753492927E+02 -0.17732798027E+03  0.19128539199E+03  0.00000000000E+00 0. -1.
          1    1    1    2  502    0 -0.13644124347E+03  0.48738319133E+01 -0.77585569766E+02  0.15703339706E+03  0.00000000000E+00 0. -1.
         22    1    1    2    0    0  0.14026188651E+03  0.71246011092E+02  0.97250139435E+01  0.15761969039E+03  0.00000000000E+00 0. -1.
         22    1    1    2    0    0 -0.15603335491E+02 -0.53663500782E+01 -0.29586549541E+02  0.33876624763E+02  0.00000000000E+00 0. -1.
</event>
<event>
 6    1  0.3701283E-005  0.3021290E+03  0.7818608E-02  0.1084181E+00
          2   -1    0    0  502    0  0.00000000000E+00  0.00000000000E+00  0.13586312250E+04  0.13586312250E+04  0.00000000000E+00 0. -1.
          1   -1    0    0  501    0 -0.00000000000E+00 -0.00000000000E+00 -0.33284185573E+02  0.33284185573E+02  0.00000000000E+00 0. -1.
          2    1    1    2  501    0 -0.11432942921E+03 -0.92180426770E+02  0.44883195675E+03  0.47224842495E+03  0.00000000000E+00 0. -1.
          1    1    1    2  502    0  0.12097968412E+03  0.66128909837E+01  0.32080436540E+03  0.34292164580E+03  0.00000000000E+00 0. -1.
         22    1    1    2    0    0  0.51809075834E+02  0.74134677002E+02  0.26543551667E+03  0.28042136898E+03  0.00000000000E+00 0. -1.
         22    1    1    2    0    0 -0.58459330743E+02  0.11432858784E+02  0.29027520056E+03  0.29632397080E+03  0.00000000000E+00 0. -1.
</event>
<event>
 6    1  0.3701283E-005  0.2851577E+03  0.7818608E-02  0.1164859E+00
          2   -1    0    0  502    0  0.00000000000E+00  0.00000000000E+00  0.35009607462E+03  0.35009607462E+03  0.00000000000E+00 0.  1.
          1   -1    0    0  501    0 -0.00000000000E+00 -0.00000000000E+00 -0.60178019124E+03  0.60178019124E+03  0.00000000000E+00 0.  1.
          2    1    1    2  501    0  0.13690859739E+03 -0.36862565168E+02  0.10884900400E+02  0.14220159566E+03  0.00000000000E+00 0.  1.
          1    1    1    2  502    0 -0.22520794715E+03  0.16866280656E+03 -0.45162903536E+03  0.53210388775E+03  0.00000000000E+00 0.  1.
         22    1    1    2    0    0  0.73407598738E+02 -0.85698205462E+02  0.38213060466E+02  0.11913478066E+03  0.00000000000E+00 0. -1.
         22    1    1    2    0    0  0.14891751022E+02 -0.46102035931E+02  0.15084695787E+03  0.15843600179E+03  0.00000000000E+00 0.  1.
</event>
<event>
 6    1  0.3701283E-005  0.4070669E+03  0.7818608E-02  0.1041360E+00
          2   -1    0    0  502    0  0.00000000000E+00  0.00000000000E+00  0.26913241908E+03  0.26913241908E+03  0.00000000000E+00 0. -1.
          1   -1    0    0  501    0 -0.00000000000E+00 -0.00000000000E+00 -0.10972029972E+04  0.10972029972E+04  0.00000000000E+00 0. -1.
          2    1    1    2  501    0  0.33934999695E+02 -0.70880504498E+02  0.57330815819E+02  0.97275138471E+02  0.00000000000E+00 0. -1.
          1    1    1    2  502    0 -0.20748036746E+03 -0.16422475090E+03 -0.91294103079E+03  0.95051522733E+03  0.00000000000E+00 0. -1.
         22    1    1    2    0    0  0.13529329135E+02 -0.10598252107E+02  0.18413193220E+02  0.25187524275E+02  0.00000000000E+00 0.  1.
         22    1    1    2    0    0  0.16001603863E+03  0.24570350750E+03  0.91264436108E+01  0.29335752622E+03  0.00000000000E+00 0. -1.
</event>
<event>
 6    1  0.3701283E-005  0.7525798E+02  0.7818608E-02  0.1358183E+00
          2   -1    0    0  502    0  0.00000000000E+00  0.00000000000E+00  0.11880178073E+03  0.11880178073E+03  0.00000000000E+00 0. -1.
          1   -1    0    0  501    0 -0.00000000000E+00 -0.00000000000E+00 -0.32949751885E+03  0.32949751885E+03  0.00000000000E+00 0. -1.
          2    1    1    2  501    0 -0.15778816383E+02  0.71075394290E+02 -0.31841162979E+02  0.79464094910E+02  0.00000000000E+00 0. -1.
          1    1    1    2  502    0  0.24830524612E+02 -0.58360826876E+02 -0.22821620450E+03  0.23686531418E+03  0.00000000000E+00 0. -1.
         22    1    1    2    0    0  0.16059468334E+02  0.39755898276E+02 -0.14805063800E+02  0.45361083375E+02  0.00000000000E+00 0. -1.
         22    1    1    2    0    0 -0.25111176563E+02 -0.52470465690E+02  0.64166693161E+02  0.86608807112E+02  0.00000000000E+00 0. -1.
</event>
<event>
 6    1  0.3701283E-005  0.1802216E+03  0.7818608E-02  0.1167589E+00
          2   -1    0    0  502    0  0.00000000000E+00  0.00000000000E+00  0.14819493586E+03  0.14819493586E+03  0.00000000000E+00 0.  1.
          1   -1    0    0  501    0 -0.00000000000E+00 -0.00000000000E+00 -0.22893490867E+03  0.22893490867E+03  0.00000000000E+00 0.  1.
          2    1    1    2  501    0 -0.16261178133E+01  0.32692653668E+02  0.24059161475E+01  0.32821369494E+02  0.00000000000E+00 0.  1.
          1    1    1    2  502    0 -0.53144257769E+02  0.35116153336E+01 -0.16847069213E+03  0.17668904234E+03  0.00000000000E+00 0.  1.
         22    1    1    2    0    0  0.22122793752E+02 -0.59955156694E+02 -0.94521929596E+01  0.64601724197E+02  0.00000000000E+00 0.  1.
         22    1    1    2    0    0  0.32647581830E+02  0.23750887692E+02  0.94776996135E+02  0.10301770849E+03  0.00000000000E+00 0.  1.
</event>
<event>
 6    1  0.3701283E-005  0.6172026E+02  0.7818608E-02  0.1482176E+00
          2   -1    0    0  502    0  0.00000000000E+00  0.00000000000E+00  0.36965589556E+02  0.36965589556E+02  0.00000000000E+00 0.  1.
          1   -1    0    0  501    0 -0.00000000000E+00 -0.00000000000E+00 -0.36916928112E+04  0.36916928112E+04  0.00000000000E+00 0.  1.
          2    1    1    2  501    0  0.34722528207E+02  0.19457225484E+01 -0.81170943612E+02  0.88307201791E+02  0.00000000000E+00 0.  1.
          1    1    1    2  502    0 -0.51568898615E+02 -0.27573453098E+02 -0.34908638797E+04  0.34913536448E+04  0.00000000000E+00 0.  1.
         22    1    1    2    0    0 -0.11579814363E+02  0.10467157898E+02  0.28900972582E+02  0.32846913269E+02  0.00000000000E+00 0.  1.
         22    1    1    2    0    0  0.28426184771E+02  0.15160572652E+02 -0.11159337097E+03  0.11615064093E+03  0.00000000000E+00 0.  1.
</event>
<event>
 6    1  0.3701283E-005  0.2937742E+03  0.7818608E-02  0.1123136E+00
          2   -1    0    0  502    0  0.00000000000E+00  0.00000000000E+00  0.78148502523E+03  0.78148502523E+03  0.00000000000E+00 0.  1.
          1   -1    0    0  501    0 -0.00000000000E+00 -0.00000000000E+00 -0.26540750253E+03  0.26540750253E+03  0.00000000000E+00 0. -1.
          2    1    1    2  501    0 -0.43078519887E+02 -0.14669485720E+03  0.20163719016E+03  0.25304682662E+03  0.00000000000E+00 0.  1.
          1    1    1    2  502    0  0.17790580055E+03  0.23160362679E+03 -0.11931297871E+03  0.31547789258E+03  0.00000000000E+00 0. -1.
         22    1    1    2    0    0 -0.11891405926E+03 -0.18795325904E+02  0.18689091634E+03  0.22231066636E+03  0.00000000000E+00 0.  1.
         22    1    1    2    0    0 -0.15913221402E+02 -0.66113443690E+02  0.24686239491E+03  0.25605714220E+03  0.00000000000E+00 0. -1.
</event>
<event>
 6    1  0.3701283E-005  0.5046367E+03  0.7818608E-02  0.1012576E+00
          2   -1    0    0  502    0  0.00000000000E+00  0.00000000000E+00  0.64644513492E+03  0.64644513492E+03  0.00000000000E+00 0. -1.
          1   -1    0    0  501    0 -0.00000000000E+00 -0.00000000000E+00 -0.48962605511E+03  0.48962605511E+03  0.00000000000E+00 0. -1.
          2    1    1    2  501    0 -0.48667384383E+02  0.16161182398E+03 -0.18828752459E+03  0.25286179599E+03  0.00000000000E+00 0. -1.
          1    1    1    2  502    0  0.10335118801E+03 -0.42700605145E+03  0.38320911167E+03  0.58297929578E+03  0.00000000000E+00 0. -1.
         22    1    1    2    0    0 -0.70395187857E+02  0.64222487589E+02 -0.22058509394E+02  0.97808937333E+02  0.00000000000E+00 0.  1.
         22    1    1    2    0    0  0.15711384232E+02  0.20117173988E+03 -0.16043997874E+02  0.20242116092E+03  0.00000000000E+00 0. -1.
</event>
<event>
 6    1  0.3701283E-005  0.9203162E+02  0.7818608E-02  0.1315105E+00
          2   -1    0    0  502    0  0.00000000000E+00  0.00000000000E+00  0.24706859881E+03  0.24706859881E+03  0.00000000000E+00 0.  1.
          1   -1    0    0  501    0 -0.00000000000E+00 -0.00000000000E+00 -0.82509196423E+03  0.82509196423E+03  0.00000000000E+00 0. -1.
          2    1    1    2  501    0 -0.39262942082E+02 -0.40155638156E+01  0.58281088981E+02  0.70387418666E+02  0.00000000000E+00 0.  1.
          1    1    1    2  502    0  0.84453824611E+02 -0.26424460584E+02 -0.79220030444E+03  0.79712735681E+03  0.00000000000E+00 0. -1.
         22    1    1    2    0    0  0.89291095788E+01  0.66769528589E+02  0.77084637539E+02  0.10237157950E+03  0.00000000000E+00 0.  1.
         22    1    1    2    0    0 -0.54119992108E+02 -0.36329504189E+02  0.78811212499E+02  0.10227420807E+03  0.00000000000E+00 0.  1.
</event>
<event>
 6    1  0.3701283E-005  0.9646871E+02  0.7818608E-02  0.1290312E+00
          2   -1    0    0  502    0  0.00000000000E+00  0.00000000000E+00  0.46364586114E+03  0.46364586114E+03  0.00000000000E+00 0.  1.
          1   -1    0    0  501    0 -0.00000000000E+00 -0.00000000000E+00 -0.39275939399E+03  0.39275939399E+03  0.00000000000E+00 0. -1.
          2    1    1    2  501    0 -0.34245712720E+02  0.49755113012E+02 -0.60744575461E+02  0.85663548599E+02  0.00000000000E+00 0.  1.
          1    1    1    2  502    0  0.49355129234E+01  0.23452916619E+02 -0.30663279247E+03  0.30756798924E+03  0.00000000000E+00 0. -1.
         22    1    1    2    0    0 -0.10211037410E+02  0.11308589034E+02  0.15183014367E+00  0.15237208515E+02  0.00000000000E+00 0. -1.
         22    1    1    2    0    0  0.39521237207E+02 -0.84516618665E+02  0.43811200494E+03  0.44793650877E+03  0.00000000000E+00 0.  1.
</event>
<event>
 6    1  0.3701283E-005  0.8818015E+02  0.7818608E-02  0.1339679E+00
          2   -1    0    0  502    0  0.00000000000E+00  0.00000000000E+00  0.44099581799E+03  0.44099581799E+03  0.00000000000E+00 0.  1.
          1   -1    0    0  501    0 -0.00000000000E+00 -0.00000000000E+00 -0.44971758395E+03  0.44971758395E+03  0.00000000000E+00 0. -1.
          2    1    1    2  501    0  0.35589986562E+02  0.75472541740E+00  0.64955248586E+02  0.74070244180E+02  0.00000000000E+00 0.  1.
          1    1    1    2  502    0 -0.36250977248E+02 -0.65203236181E+02 -0.42793331616E+03  0.43438752104E+03  0.00000000000E+00 0. -1.
         22    1    1    2    0    0 -0.49612611761E+02 -0.12613424819E-01  0.21613360484E+03  0.22175469904E+03  0.00000000000E+00 0.  1.
         22    1    1    2    0    0  0.50273602447E+02  0.64461124188E+02  0.13812269677E+03  0.16050093768E+03  0.00000000000E+00 0.  1.
</event>
<event>
 6    1  0.3701283E-005  0.2646329E+03  0.7818608E-02  0.1104391E+00
          2   -1    0    0  502    0  0.00000000000E+00  0.00000000000E+00  0.22409293816E+03  0.22409293816E+03  0.00000000000E+00 0. -1.
          1   -1    0    0  501    0 -0.00000000000E+00 -0.00000000000E+00 -0.11495473853E+03  0.11495473853E+03  0.00000000000E+00 0. -1.
          2    1    1    2  501    0 -0.96711132694E+01 -0.57044217687E+02 -0.40250182916E+02  0.70481560909E+02  0.00000000000E+00 0. -1.
          1    1    1    2  502    0  0.20002598671E+02 -0.73306626756E+00 -0.33046884892E+02  0.38635966932E+02  0.00000000000E+00 0. -1.
         22    1    1    2    0    0 -0.36258880284E+02  0.80856300588E+02  0.17232909604E+03  0.19377761761E+03  0.00000000000E+00 0. -1.
         22    1    1    2    0    0  0.25927394883E+02 -0.23079016634E+02  0.10106171399E+02  0.36152531233E+02  0.00000000000E+00 0.  1.
</event>
<event>
 6    1  0.3701283E-005  0.8486907E+02  0.7818608E-02  0.1321879E+00
          2   -1    0    0  502    0  0.00000000000E+00  0.00000000000E+00  0.11723699133E+03  0.11723699133E+03  0.00000000000E+00 0.  1.
          1   -1    0    0  501    0 -0.00000000000E+00 -0.00000000000E+00 -0.42231592187E+03  0.42231592187E+03  0.00000000000E+00 0. -1.
          2    1    1    2  501    0  0.35848119095E+02 -0.39158102031E+02 -0.36586979360E+02  0.64475201869E+02  0.00000000000E+00 0.  1.
          1    1    1    2  502    0 -0.84731075577E+02  0.35050023782E+01 -0.31939934311E+03  0.33046570259E+03  0.00000000000E+00 0. -1.
         22    1    1    2    0    0  0.23476554733E+02  0.72373006371E+02  0.62516757863E+02  0.98475101863E+02  0.00000000000E+00 0.  1.
         22    1    1    2    0    0  0.25406401749E+02 -0.36719906718E+02 -0.11609365928E+02  0.46136906880E+02  0.00000000000E+00 0.  1.
</event>
<event>
 6    1  0.3701283E-005  0.1113892E+03  0.7818608E-02  0.1262839E+00
          2   -1    0    0  502    0  0.00000000000E+00  0.00000000000E+00  0.22373413945E+03  0.22373413945E+03  0.00000000000E+00 0. -1.
          1   -1    0    0  501    0 -0.00000000000E+00 -0.00000000000E+00 -0.10435525397E+03  0.10435525397E+03  0.00000000000E+00 0. -1.
          2    1    1    2  501    0 -0.88683655528E+02 -0.16618163631E+01  0.18188978377E+02  0.90544968529E+02  0.00000000000E+00 0. -1.
          1    1    1    2  502    0  0.23913424488E+02  0.56986574053E+02  0.18097154474E+02  0.64395873261E+02  0.00000000000E+00 0. -1.
         22    1    1    2    0    0  0.93859704030E+02 -0.30056568673E+02  0.90624945469E+02  0.13388772200E+03  0.00000000000E+00 0.  1.
         22    1    1    2    0    0 -0.29089472989E+02 -0.25268189017E+02 -0.75321928388E+01  0.39260829639E+02  0.00000000000E+00 0. -1.
</event>
<event>
 6    1  0.3701283E-005  0.1441422E+03  0.7818608E-02  0.1251977E+00
          2   -1    0    0  502    0  0.00000000000E+00  0.00000000000E+00  0.76309967037E+03  0.76309967037E+03  0.00000000000E+00 0.  1.
          1   -1    0    0  501    0 -0.00000000000E+00 -0.00000000000E+00 -0.83586198048E+02  0.83586198048E+02  0.00000000000E+00 0.  1.
          2    1    1    2  501    0  0.98948761576E+02 -0.83770436411E+02  0.22650941894E+03  0.26098823787E+03  0.00000000000E+00 0.  1.
          1    1    1    2  502    0 -0.62008188660E+02  0.10383218826E+03  0.61582194114E+01  0.12109526186E+03  0.00000000000E+00 0.  1.
         22    1    1    2    0    0  0.75867722863E+01 -0.57136937957E+02  0.12587832040E+03  0.13844688635E+03  0.00000000000E+00 0.  1.
         22    1    1    2    0    0 -0.44527345203E+02  0.37075186110E+02  0.32096751357E+03  0.32615548235E+03  0.00000000000E+00 0.  1.
</event>
<event>
 6    1  0.3701283E-005  0.1945485E+03  0.7818608E-02  0.1154422E+00
          2   -1    0    0  502    0  0.00000000000E+00  0.00000000000E+00  0.28911827544E+03  0.28911827544E+03  0.00000000000E+00 0. -1.
          1   -1    0    0  501    0 -0.00000000000E+00 -0.00000000000E+00 -0.15888651193E+03  0.15888651193E+03  0.00000000000E+00 0.  1.
          2    1    1    2  501    0  0.15116530714E+02  0.15836759141E+02  0.53816159029E+01  0.22544938027E+02  0.00000000000E+00 0. -1.
          1    1    1    2  502    0  0.20541301643E+02 -0.11596171134E+03 -0.94331505040E+02  0.15088902019E+03  0.00000000000E+00 0.  1.
         22    1    1    2    0    0 -0.70645399563E+02  0.98685476902E+02  0.20178250394E+03  0.23546926493E+03  0.00000000000E+00 0. -1.
         22    1    1    2    0    0  0.34987567206E+02  0.14394752989E+01  0.17399148707E+02  0.39101564212E+02  0.00000000000E+00 0. -1.
</event>
<event>
 6    1  0.3701283E-005  0.1823073E+03  0.7818608E-02  0.1165589E+00
          2   -1    0    0  502    0  0.00000000000E+00  0.00000000000E+00  0.17096099992E+03  0.17096099992E+03  0.00000000000E+00 0.  1.
          1   -1    0    0  501    0 -0.00000000000E+00 -0.00000000000E+00 -0.16111566679E+04  0.16111566679E+04  0.00000000000E+00 0. -1.
          2    1    1    2  501    0  0.23395928127E+02 -0.65400393479E+01  0.58280260325E+02  0.63140559953E+02  0.00000000000E+00 0.  1.
          1    1    1    2  502    0 -0.24192786286E+02  0.68483378598E+02 -0.15614697217E+04  0.15631580073E+04  0.00000000000E+00 0. -1.
         22    1    1    2    0    0 -0.21784896877E+02 -0.49167768542E+02 -0.28398428081E+02  0.60815474288E+02  0.00000000000E+00 0.  1.
         22    1    1    2    0    0  0.22581755037E+02 -0.12775570708E+02  0.91392221448E+02  0.95003626292E+02  0.00000000000E+00 0.  1.
</event>
<event>
 6    1  0.3701283E-005  0.1440749E+03  0.7818608E-02  0.1223863E+00
          2   -1    0    0  502    0  0.00000000000E+00  0.00000000000E+00  0.43028555472E+03  0.43028555472E+03  0.00000000000E+00 0. -1.
          1   -1    0    0  501    0 -0.00000000000E+00 -0.00000000000E+00 -0.85375443051E+03  0.85375443051E+03  0.00000000000E+00 0. -1.
          2    1    1    2  501    0  0.56010436563E+02  0.51763970077E+02  0.94336449905E+01  0.76848365369E+02  0.00000000000E+00 0. -1.
          1    1    1    2  502    0 -0.14834033083E+03  0.59669284097E+00 -0.79571742978E+03  0.80942661054E+03  0.00000000000E+00 0. -1.
         22    1    1    2    0    0  0.23664072912E+02  0.24292905325E+02  0.18988715866E+02  0.38867787770E+02  0.00000000000E+00 0.  1.
         22    1    1    2    0    0  0.68665821353E+02 -0.76653568244E+02  0.34382619314E+03  0.35889722155E+03  0.00000000000E+00 0. -1.
</event>
<event>
 6    1  0.3701283E-005  0.8518780E+02  0.7818608E-02  0.1317094E+00
          2   -1    0    0  502    0  0.00000000000E+00  0.00000000000E+00  0.15462029672E+03  0.15462029672E+03  0.00000000000E+00 0.  1.
          1   -1    0    0  501    0 -0.00000000000E+00 -0.00000000000E+00 -0.56200434723E+03  0.56200434723E+03  0.00000000000E+00 0.  1.
          2    1    1    2  501    0 -0.10883266556E+02  0.62532624103E+02  0.98724130292E+02  0.11736791925E+03  0.00000000000E+00 0.  1.
          1    1    1    2  502    0  0.45597357268E+02 -0.30972012257E+02 -0.44691310214E+03  0.45029957295E+03  0.00000000000E+00 0.  1.
         22    1    1    2    0    0  0.87330234968E+01  0.23179214816E+02  0.27887354527E+02  0.37299413419E+02  0.00000000000E+00 0.  1.
         22    1    1    2    0    0 -0.43447114210E+02 -0.54739826663E+02 -0.87082433193E+02  0.11165773832E+03  0.00000000000E+00 0. -1.
</event>
<event>
 6    1  0.3701283E-005  0.6177779E+03  0.7818608E-02  0.9869194E-01
          2   -1    0    0  502    0  0.00000000000E+00  0.00000000000E+00  0.11159955378E+04  0.11159955378E+04  0.00000000000E+00 0.  1.
          1   -1    0    0  501    0 -0.00000000000E+00 -0.00000000000E+00 -0.50389616187E+03  0.50389616187E+03  0.00000000000E+00 0. -1.
          2    1    1    2  501    0  0.26947308017E+03 -0.11984509939E+02  0.52435179009E+03  0.58966445474E+03  0.00000000000E+00 0.  1.
          1    1    1    2  502    0  0.48238320066E+02 -0.15102372770E+02 -0.41675662909E+03  0.41981079676E+03  0.00000000000E+00 0. -1.
         22    1    1    2    0    0 -0.32486412976E+03  0.38449837379E+02  0.46384627766E+03  0.56759885667E+03  0.00000000000E+00 0. -1.
         22    1    1    2    0    0  0.71527295226E+01 -0.11362954671E+02  0.40657937230E+02  0.42817591458E+02  0.00000000000E+00 0. -1.
</event>
<event>
 6    1  0.3701283E-005  0.3545314E+03  0.7818608E-02  0.1060770E+00
          2   -1    0    0  502    0  0.00000000000E+00  0.00000000000E+00  0.16472863564E+04  0.16472863564E+04  0.00000000000E+00 0.  1.
          1   -1    0    0  501    0 -0.00000000000E+00 -0.00000000000E+00 -0.43578683569E+02  0.43578683569E+02  0.00000000000E+00 0. -1.
          2    1    1    2  501    0 -0.41684447439E+02  0.85166139067E+02  0.94652484134E+03  0.95126239266E+03  0.00000000000E+00 0.  1.
          1    1    1    2  502    0  0.15670065918E+03 -0.41355676470E+02  0.31455253704E+03  0.35384839567E+03  0.00000000000E+00 0. -1.
         22    1    1    2    0    0 -0.57441268997E+02 -0.74521538283E+02  0.11306030135E+03  0.14709041707E+03  0.00000000000E+00 0.  1.
         22    1    1    2    0    0 -0.57574942740E+02  0.30711075686E+02  0.22956999310E+03  0.23866383457E+03  0.00000000000E+00 0. -1.
</event>
<event>
 6    1  0.3701283E-005  0.7341360E+02  0.7818608E-02  0.1350066E+00
          2   -1    0    0  502    0  0.00000000000E+00  0.00000000000E+00  0.55419395742E+02  0.55419395742E+02  0.00000000000E+00 0. -1.
          1   -1    0    0  501    0 -0.00000000000E+00 -0.00000000000E+00 -0.57801608666E+03  0.57801608666E+03  0.00000000000E+00 0. -1.
          2    1    1    2  501    0  0.39411944334E+02 -0.12623525565E+02 -0.30919844588E+03  0.31195565982E+03  0.00000000000E+00 0. -1.
          1    1    1    2  502    0 -0.21033872449E+02 -0.46165293109E+02 -0.16380310300E+03  0.17147919591E+03  0.00000000000E+00 0. -1.
         22    1    1    2    0    0 -0.32969948208E+02  0.66280179466E+02  0.21461192097E+02  0.77075692933E+02  0.00000000000E+00 0. -1.
         22    1    1    2    0    0  0.14591876322E+02 -0.74913607916E+01 -0.71056334140E+02  0.72924933750E+02  0.00000000000E+00 0.  1.
</event>
<event>
 6    1  0.3701283E-005  0.2362241E+03  0.7818608E-02  0.1122334E+00
          2   -1    0    0  502    0  0.00000000000E+00  0.00000000000E+00  0.12421413503E+03  0.12421413503E+03  0.00000000000E+00 0. -1.
          1   -1    0    0  501    0 -0.00000000000E+00 -0.00000000000E+00 -0.15752536424E+03  0.15752536424E+03  0.00000000000E+00 0. -1.
          2    1    1    2  501    0 -0.49303094074E+02 -0.52540030368E+02 -0.23918064717E+02  0.75916557457E+02  0.00000000000E+00 0. -1.
          1    1    1    2  502    0 -0.21997300911E+02 -0.58372600439E+01 -0.39328473517E+02  0.45438790492E+02  0.00000000000E+00 0. -1.
         22    1    1    2    0    0  0.61664709007E+02  0.50419978670E+02 -0.40145071191E+02  0.89198303386E+02  0.00000000000E+00 0. -1.
         22    1    1    2    0    0  0.96356859777E+01  0.79573117415E+01  0.70080380215E+02  0.71185847930E+02  0.00000000000E+00 0. -1.
</event>
<event>
 6    1  0.3701283E-005  0.1906379E+03  0.7818608E-02  0.1157887E+00
          2   -1    0    0  502    0  0.00000000000E+00  0.00000000000E+00  0.18888829039E+03  0.18888829039E+03  0.00000000000E+00 0.  1.
          1   -1    0    0  501    0 -0.00000000000E+00 -0.00000000000E+00 -0.56159852444E+03  0.56159852444E+03  0.00000000000E+00 0.  1.
          2    1    1    2  501    0  0.25773753758E+02  0.26692015890E+02  0.96488851268E+01  0.38338636898E+02  0.00000000000E+00 0.  1.
          1    1    1    2  502    0  0.30630415692E+02  0.28348409067E+02 -0.51243216812E+03  0.51412895424E+03  0.00000000000E+00 0.  1.
         22    1    1    2    0    0  0.38903817935E+02 -0.15187877209E+02  0.60333921483E+02  0.73378203477E+02  0.00000000000E+00 0. -1.
         22    1    1    2    0    0 -0.95307987384E+02 -0.39852547748E+02  0.69739127458E+02  0.12464102021E+03  0.00000000000E+00 0.  1.
</event>
<event>
 6    1  0.3701283E-005  0.1712258E+03  0.7818608E-02  0.1176576E+00
          2   -1    0    0  502    0  0.00000000000E+00  0.00000000000E+00  0.12490588712E+03  0.12490588712E+03  0.00000000000E+00 0.  1.
          1   -1    0    0  501    0 -0.00000000000E+00 -0.00000000000E+00 -0.14097670431E+03  0.14097670431E+03  0.00000000000E+00 0.  1.
          2    1    1    2  501    0  0.34770358957E+02 -0.40783195574E+01  0.37409097960E+01  0.35208024064E+02  0.00000000000E+00 0.  1.
          1    1    1    2  502    0 -0.27802115574E+02 -0.57446309562E+02 -0.61607918105E+02  0.88704969905E+02  0.00000000000E+00 0.  1.
         22    1    1    2    0    0  0.13048243888E+02 -0.16741681569E+02 -0.28050422221E+02  0.35176224315E+02  0.00000000000E+00 0.  1.
         22    1    1    2    0    0 -0.20016487271E+02  0.78266310689E+02  0.69846613338E+02  0.10679337314E+03  0.00000000000E+00 0.  1.
</event>
<event>
 6    1  0.3701283E-005  0.1991601E+03  0.7818608E-02  0.1150450E+00
          2   -1    0    0  502    0  0.00000000000E+00  0.00000000000E+00  0.46314633249E+02  0.46314633249E+02  0.00000000000E+00 0. -1.
          1   -1    0    0  501    0 -0.00000000000E+00 -0.00000000000E+00 -0.67601834901E+03  0.67601834901E+03  0.00000000000E+00 0. -1.
          2    1    1    2  501    0  0.24339672556E+02 -0.35254807693E+01 -0.96435106127E+02  0.99521748218E+02  0.00000000000E+00 0. -1.
          1    1    1    2  502    0 -0.22924116656E+02 -0.11816783033E+03 -0.10021626977E+03  0.15662838815E+03  0.00000000000E+00 0. -1.
         22    1    1    2    0    0  0.32739162613E+02  0.12952524349E+03 -0.29654984774E+03  0.32525444450E+03  0.00000000000E+00 0. -1.
         22    1    1    2    0    0 -0.34154718512E+02 -0.78319323922E+01 -0.13650249212E+03  0.14092840139E+03  0.00000000000E+00 0. -1.
</event>
<event>
 6    1  0.3701283E-005  0.9333514E+02  0.7818608E-02  0.1296038E+00
          2   -1    0    0  502    0  0.00000000000E+00  0.00000000000E+00  0.32561595109E+03  0.32561595109E+03  0.00000000000E+00 0.  1.
          1   -1    0    0  501    0 -0.00000000000E+00 -0.00000000000E+00 -0.11967449340E+03  0.11967449340E+03  0.00000000000E+00 0. -1.
          2    1    1    2  501    0  0.15875379633E+02 -0.50937103335E+02  0.28390661545E+02  0.60437123009E+02  0.00000000000E+00 0.  1.
          1    1    1    2  502    0 -0.18881245755E+02 -0.10656420765E+02 -0.86023007456E+02  0.88713125052E+02  0.00000000000E+00 0. -1.
         22    1    1    2    0    0  0.89272870480E+00 -0.32904029754E+02  0.31517990687E+02  0.45572534224E+02  0.00000000000E+00 0.  1.
         22    1    1    2    0    0  0.21131374175E+01  0.94497553854E+02  0.23205581291E+03  0.25056766220E+03  0.00000000000E+00 0.  1.
</event>
<event>
 6    1  0.3701283E-005  0.1708159E+03  0.7818608E-02  0.1216427E+00
          2   -1    0    0  502    0  0.00000000000E+00  0.00000000000E+00  0.21031367027E+03  0.21031367027E+03  0.00000000000E+00 0.  1.
          1   -1    0    0  501    0 -0.00000000000E+00 -0.00000000000E+00 -0.25197496736E+03  0.25197496736E+03  0.00000000000E+00 0.  1.
          2    1    1    2  501    0  0.34852788983E+02  0.28672070802E+02  0.45023997810E+01  0.45355001353E+02  0.00000000000E+00 0.  1.
          1    1    1    2  502    0 -0.10596769998E+03 -0.14064754550E+03 -0.12541799905E+03  0.21619565209E+03  0.00000000000E+00 0.  1.
         22    1    1    2    0    0  0.10121587835E+03  0.46369482397E+02  0.57763197528E+02  0.12542475799E+03  0.00000000000E+00 0.  1.
         22    1    1    2    0    0 -0.30100967354E+02  0.65605992305E+02  0.21491104647E+02  0.75313226202E+02  0.00000000000E+00 0. -1.
</event>
<event>
 6    1  0.3701283E-005  0.1507095E+03  0.7818608E-02  0.1199604E+00
          2   -1    0    0  502    0  0.00000000000E+00  0.00000000000E+00  0.30895689930E+03  0.30895689930E+03  0.00000000000E+00 0.  1.
          1   -1    0    0  501    0 -0.00000000000E+00 -0.00000000000E+00 -0.36467259851E+03  0.36467259851E+03  0.00000000000E+00 0.  1.
          2    1    1    2  501    0 -0.22620639020E+02  0.90629989919E+01  0.29214411748E+02  0.38043568631E+02  0.00000000000E+00 0.  1.
          1    1    1    2  502    0  0.23366502290E+02  0.16678697099E+01 -0.34587372518E+03  0.34666613476E+03  0.00000000000E+00 0.  1.
         22    1    1    2    0    0  0.48820205146E+02  0.24313823911E+02  0.71111933906E+02  0.89618533839E+02  0.00000000000E+00 0.  1.
         22    1    1    2    0    0 -0.49566068416E+02 -0.35044692613E+02  0.18983168032E+03  0.19930126058E+03  0.00000000000E+00 0.  1.
</event>
<event>
 6    1  0.3701283E-005  0.9088954E+02  0.7818608E-02  0.1304539E+00
          2   -1    0    0  502    0  0.00000000000E+00  0.00000000000E+00  0.48854304362E+02  0.48854304362E+02  0.00000000000E+00 0. -1.
          1   -1    0    0  501    0 -0.00000000000E+00 -0.00000000000E+00 -0.22626669558E+03  0.22626669558E+03  0.00000000000E+00 0. -1.
          2    1    1    2  501    0  0.32464926411E+02 -0.12658185521E+02 -0.48050377514E+02  0.59355201009E+02  0.00000000000E+00 0. -1.
          1    1    1    2  502    0  0.12764677250E+02  0.17022258408E+02 -0.57770032724E+02  0.61563552103E+02  0.00000000000E+00 0. -1.
         22    1    1    2    0    0  0.42735431832E+02 -0.18227414103E+02 -0.15591002664E+02  0.49006480417E+02  0.00000000000E+00 0. -1.
         22    1    1    2    0    0 -0.87965035493E+02  0.13863341216E+02 -0.56000978317E+02  0.10519576641E+03  0.00000000000E+00 0.  1.
</event>
<event>
 6    1  0.3701283E-005  0.1037162E+03  0.7818608E-02  0.1277617E+00
          2   -1    0    0  502    0  0.00000000000E+00  0.00000000000E+00  0.44390015225E+03  0.44390015225E+03  0.00000000000E+00 0. -1.
          1   -1    0    0  501    0 -0.00000000000E+00 -0.00000000000E+00 -0.15309013260E+04  0.15309013260E+04  0.00000000000E+00 0. -1.
          2    1    1    2  501    0 -0.78881596216E+02  0.25610921730E+02  0.11908820849E+03  0.14512142135E+03  0.00000000000E+00 0. -1.
          1    1    1    2  502    0  0.10569560215E+02 -0.21147838224E+02 -0.15018357404E+04  0.15020218167E+04  0.00000000000E+00 0. -1.
         22    1    1    2    0    0  0.91264957960E+02 -0.45516974995E+01  0.28991658468E+03  0.30397637503E+03  0.00000000000E+00 0. -1.
         22    1    1    2    0    0 -0.22952921959E+02  0.88613993029E-01  0.58297734980E+01  0.23681865170E+02  0.00000000000E+00 0. -1.
</event>
<event>
 6    1  0.3701283E-005  0.1142364E+03  0.7818608E-02  0.1260301E+00
          2   -1    0    0  502    0  0.00000000000E+00  0.00000000000E+00  0.43845432753E+03  0.43845432753E+03  0.00000000000E+00 0. -1.
          1   -1    0    0  501    0 -0.00000000000E+00 -0.00000000000E+00 -0.14916928318E+03  0.14916928318E+03  0.00000000000E+00 0.  1.
          2    1    1    2  501    0 -0.90674095683E+02  0.45822236631E+02  0.12984139982E+03  0.16486436275E+03  0.00000000000E+00 0. -1.
          1    1    1    2  502    0  0.68104836678E+02 -0.30588863558E+02 -0.10423624456E+03  0.12821521764E+03  0.00000000000E+00 0.  1.
         22    1    1    2    0    0 -0.53265367762E+02 -0.47213682977E+01  0.12863532452E+03  0.13930734882E+03  0.00000000000E+00 0.  1.
         22    1    1    2    0    0  0.75834626767E+02 -0.10512004776E+02  0.13504456458E+03  0.15523668150E+03  0.00000000000E+00 0. -1.
</event>
<event>
 6    1  0.3701283E-005  0.3935599E+02  0.7818608E-02  0.1515877E+00
          2   -1    0    0  502    0  0.00000000000E+00  0.00000000000E+00  0.24286647669E+03  0.24286647669E+03  0.00000000000E+00 0.  1.
          1   -1    0    0  501    0 -0.00000000000E+00 -0.00000000000E+00 -0.80453876789E+02  0.80453876789E+02  0.00000000000E+00 0.  1.
          2    1    1    2  501    0 -0.29790354599E+02  0.23942488128E+02 -0.29096604256E+02  0.48034574466E+02  0.00000000000E+00 0.  1.
          1    1    1    2  502    0  0.12534256604E+01 -0.26733733570E+02 -0.16109607060E+02  0.31237525928E+02  0.00000000000E+00 0.  1.
         22    1    1    2    0    0  0.37761293415E+02 -0.14743150719E+01  0.22268833300E+03  0.22587204904E+03  0.00000000000E+00 0.  1.
         22    1    1    2    0    0 -0.92243644766E+01  0.42655605139E+01 -0.15069521783E+02  0.18176204039E+02  0.00000000000E+00 0. -1.
</event>
<event>
 6    1  0.3701283E-005  0.1058643E+03  0.7818608E-02  0.1269288E+00
          2   -1    0    0  502    0  0.00000000000E+00  0.00000000000E+00  0.76200889123E+02  0.76200889123E+02  0.00000000000E+00 0.  1.
          1   -1    0    0  501    0 -0.00000000000E+00 -0.00000000000E+00 -0.27978405649E+03  0.27978405649E+03  0.00000000000E+00 0.  1.
          2    1    1    2  501    0  0.17518271687E+02  0.56103424546E+02 -0.50455808502E+02  0.77461427177E+02  0.00000000000E+00 0.  1.
          1    1    1    2  502    0  0.59402295749E+02 -0.13688613298E+02 -0.92338542808E+02  0.11064545794E+03  0.00000000000E+00 0.  1.
         22    1    1    2    0    0  0.13425742011E+02  0.35013809540E+02 -0.14456189400E+02  0.40189536188E+02  0.00000000000E+00 0.  1.
         22    1    1    2    0    0 -0.90346309448E+02 -0.77428620788E+02 -0.46332626659E+02  0.12768852431E+03  0.00000000000E+00 0.  1.
</event>
<event>
 6    1  0.3701283E-005  0.1483267E+03  0.7818608E-02  0.1204463E+00
          2   -1    0    0  502    0  0.00000000000E+00  0.00000000000E+00  0.36678021688E+03  0.36678021688E+03  0.00000000000E+00 0. -1.
          1   -1    0    0  501    0 -0.00000000000E+00 -0.00000000000E+00 -0.54077511112E+03  0.54077511112E+03  0.00000000000E+00 0. -1.
          2    1    1    2  501    0 -0.50476103496E+02  0.11109948669E+03  0.13747642079E+03  0.18382246663E+03  0.00000000000E+00 0. -1.
          1    1    1    2  502    0 -0.51456265773E+02 -0.21208982545E+02 -0.47577497279E+03  0.47901919895E+03  0.00000000000E+00 0. -1.
         22    1    1    2    0    0 -0.14077369518E+02  0.11561086780E+02  0.48895824611E+02  0.52178853231E+02  0.00000000000E+00 0. -1.
         22    1    1    2    0    0  0.11600973879E+03 -0.10145159092E+03  0.11540783316E+03  0.19253480919E+03  0.00000000000E+00 0.  1.
</event>
<event>
 6    1  0.3701283E-005  0.8370660E+02  0.7818608E-02  0.1324215E+00
          2   -1    0    0  502    0  0.00000000000E+00  0.00000000000E+00  0.87078592720E+02  0.87078592720E+02  0.00000000000E+00 0. -1.
          1   -1    0    0  501    0 -0.00000000000E+00 -0.00000000000E+00 -0.25583128380E+03  0.25583128380E+03  0.00000000000E+00 0. -1.
          2    1    1    2  501    0 -0.36530315336E+02  0.20748379866E+02 -0.33488705916E+01  0.42144681039E+02  0.00000000000E+00 0. -1.
          1    1    1    2  502    0 -0.34769596644E+02 -0.58006859975E+02 -0.13192834079E+03  0.14825251350E+03  0.00000000000E+00 0. -1.
         22    1    1    2    0    0 -0.28827992139E+02 -0.11970827592E+02  0.99832030542E+01  0.32772216697E+02  0.00000000000E+00 0. -1.
         22    1    1    2    0    0  0.10012790412E+03  0.49229307701E+02 -0.43458682752E+02  0.11974046528E+03  0.00000000000E+00 0. -1.
</event>
<event>
 6    1  0.3701283E-005  0.4100539E+03  0.7818608E-02  0.1040353E+00
          2   -1    0    0  502    0  0.00000000000E+00  0.00000000000E+00  0.14790946047E+03  0.14790946047E+03  0.00000000000E+00 0.  1.
          1   -1    0    0  501    0 -0.00000000000E+00 -0.00000000000E+00 -0.13925729832E+04  0.13925729832E+04  0.00000000000E+00 0.  1.
          2    1    1    2  501    0 -0.20416674217E+03  0.83679121477E+02 -0.17974456105E+03  0.28459508289E+03  0.00000000000E+00 0.  1.
          1    1    1    2  502    0  0.33680793945E+03 -0.10440898852E+03 -0.10060475288E+04  0.10660546211E+04  0.00000000000E+00 0.  1.
         22    1    1    2    0    0 -0.28828571536E+01 -0.15742625499E+02 -0.52511242257E+02  0.54896007927E+02  0.00000000000E+00 0.  1.
         22    1    1    2    0    0 -0.12975834013E+03  0.36472492547E+02 -0.63601905990E+01  0.13493673173E+03  0.00000000000E+00 0.  1.
</event>
<event>
 6    1  0.3733340E-005  0.6247259E+02  0.7818608E-02  0.1388507E+00
          2   -1    0    0  502    0  0.00000000000E+00  0.00000000000E+00  0.28792586552E+03  0.28792586552E+03  0.00000000000E+00 0.  1.
          1   -1    0    0  501    0 -0.00000000000E+00 -0.00000000000E+00 -0.90144727931E+03  0.90144727931E+03  0.00000000000E+00 0.  1.
          2    1    1    2  501    0 -0.47910285012E+02 -0.18539626971E+02  0.20522993182E+03  0.21156190133E+03  0.00000000000E+00 0.  1.
          1    1    1    2  502    0  0.20346354801E+02 -0.28834295284E+02 -0.83629440868E+03  0.83703866621E+03  0.00000000000E+00 0.  1.
         22    1    1    2    0    0 -0.89699033716E+01 -0.63149293107E+01  0.61424648497E+02  0.62396513859E+02  0.00000000000E+00 0. -1.
         22    1    1    2    0    0  0.36533833583E+02  0.53688851566E+02 -0.43881585426E+02  0.78376063426E+02  0.00000000000E+00 0. -1.
</event>
<event>
 6    1  0.3701283E-005  0.7594016E+02  0.7818608E-02  0.1341987E+00
          2   -1    0    0  502    0  0.00000000000E+00  0.00000000000E+00  0.47794011116E+02  0.47794011116E+02  0.00000000000E+00 0.  1.
          1   -1    0    0  501    0 -0.00000000000E+00 -0.00000000000E+00 -0.41639383452E+03  0.41639383452E+03  0.00000000000E+00 0. -1.
          2    1    1    2  501    0  0.22741770313E+02 -0.18625973051E+02 -0.53412848355E+02  0.60967592691E+02  0.00000000000E+00 0.  1.
          1    1    1    2  502    0  0.35884435059E+02  0.36244839324E+02 -0.23810527058E+03  0.24350667534E+03  0.00000000000E+00 0. -1.
         22    1    1    2    0    0  0.19792791011E+02 -0.36533437752E+02 -0.66417810865E+02  0.78343935631E+02  0.00000000000E+00 0.  1.
         22    1    1    2    0    0 -0.78418996384E+02  0.18914571479E+02 -0.10663893603E+02  0.81369641973E+02  0.00000000000E+00 0.  1.
</event>
<event>
 6    1  0.3701283E-005  0.1703791E+03  0.7818608E-02  0.1177453E+00
          2   -1    0    0  502    0  0.00000000000E+00  0.00000000000E+00  0.12981065655E+03  0.12981065655E+03  0.00000000000E+00 0.  1.
          1   -1    0    0  501    0 -0.00000000000E+00 -0.00000000000E+00 -0.10113865526E+03  0.10113865526E+03  0.00000000000E+00 0.  1.
          2    1    1    2  501    0  0.35142868921E+02 -0.55036106363E+01  0.75159649534E+00  0.35579149277E+02  0.00000000000E+00 0.  1.
          1    1    1    2  502    0 -0.43442600277E+02 -0.31234771855E+02 -0.14001509937E+02  0.55307438670E+02  0.00000000000E+00 0.  1.
         22    1    1    2    0    0  0.41908251701E+02  0.16469381890E+02  0.75833224342E+02  0.88194217580E+02  0.00000000000E+00 0.  1.
         22    1    1    2    0    0 -0.33608520344E+02  0.20269000601E+02 -0.33911309603E+02  0.51868506284E+02  0.00000000000E+00 0.  1.
</event>
<event>
 6    1  0.3701283E-005  0.7296066E+02  0.7818608E-02  0.1355046E+00
          2   -1    0    0  502    0  0.00000000000E+00  0.00000000000E+00  0.16928421359E+03  0.16928421359E+03  0.00000000000E+00 0. -1.
          1   -1    0    0  501    0 -0.00000000000E+00 -0.00000000000E+00 -0.32061409440E+03  0.32061409440E+03  0.00000000000E+00 0. -1.
          2    1    1    2  501    0  0.21681043115E+02 -0.10001545032E+02 -0.21768828355E+02  0.32310685872E+02  0.00000000000E+00 0. -1.
          1    1    1    2  502    0  0.17041846283E+02  0.17035306872E+02 -0.26504975814E+03  0.26614281973E+03  0.00000000000E+00 0. -1.
         22    1    1    2    0    0  0.26586755681E+02 -0.28821260116E+02 -0.28573433314E+00  0.39212271759E+02  0.00000000000E+00 0. -1.
         22    1    1    2    0    0 -0.65309645079E+02  0.21787498276E+02  0.13577444002E+03  0.15223253063E+03  0.00000000000E+00 0. -1.
</event>
<event>
 6    1  0.3701283E-005  0.7120297E+02  0.7818608E-02  0.1374949E+00
          2   -1    0    0  502    0  0.00000000000E+00  0.00000000000E+00  0.31129499829E+03  0.31129499829E+03  0.00000000000E+00 0.  1.
          1   -1    0    0  501    0 -0.00000000000E+00 -0.00000000000E+00 -0.23500729405E+03  0.23500729405E+03  0.00000000000E+00 0.  1.
          2    1    1    2  501    0 -0.24408412093E+02  0.58445967745E+02  0.78369582810E+01  0.63820996871E+02  0.00000000000E+00 0.  1.
          1    1    1    2  502    0  0.67623927366E+00 -0.64478842263E+02 -0.18751332743E+03  0.19829076218E+03  0.00000000000E+00 0.  1.
         22    1    1    2    0    0  0.41853627679E+02 -0.30794724118E+02  0.22960382573E+03  0.23541019089E+03  0.00000000000E+00 0.  1.
         22    1    1    2    0    0 -0.18121454860E+02  0.36827598636E+02  0.26360247665E+02  0.48780342399E+02  0.00000000000E+00 0.  1.
</event>
<event>
 6    1  0.3701283E-005  0.1356613E+03  0.7818608E-02  0.1221280E+00
          2   -1    0    0  502    0  0.00000000000E+00  0.00000000000E+00  0.16650497412E+03  0.16650497412E+03  0.00000000000E+00 0.  1.
          1   -1    0    0  501    0 -0.00000000000E+00 -0.00000000000E+00 -0.64352476814E+03  0.64352476814E+03  0.00000000000E+00 0.  1.
          2    1    1    2  501    0 -0.37315027928E+02  0.70462805203E+02 -0.10307615664E+03  0.13031543383E+03  0.00000000000E+00 0.  1.
          1    1    1    2  502    0 -0.43932277544E+01  0.36189829547E+02 -0.47854308364E+03  0.47992966892E+03  0.00000000000E+00 0.  1.
         22    1    1    2    0    0 -0.14601776671E+02  0.18296913538E+02 -0.54292122434E+01  0.24030507123E+02  0.00000000000E+00 0. -1.
         22    1    1    2    0    0  0.56310032354E+02 -0.12494954829E+03  0.11002865850E+03  0.17575413239E+03  0.00000000000E+00 0.  1.
</event>
<event>
 6    1  0.3701283E-005  0.1394470E+03  0.7818608E-02  0.1215146E+00
          2   -1    0    0  502    0  0.00000000000E+00  0.00000000000E+00  0.56103300870E+03  0.56103300870E+03  0.00000000000E+00 0.  1.
          1   -1    0    0  501    0 -0.00000000000E+00 -0.00000000000E+00 -0.16476143302E+04  0.16476143302E+04  0.00000000000E+00 0.  1.
          2    1    1    2  501    0  0.38407627336E+02  0.69556466059E+02  0.39500610549E+02  0.88733004243E+02  0.00000000000E+00 0.  1.
          1    1    1    2  502    0  0.60443782741E+02  0.30149240905E+02 -0.16044191672E+04  0.16058403693E+04  0.00000000000E+00 0.  1.
         22    1    1    2    0    0 -0.95068978609E+02 -0.12118680120E+03  0.46148425515E+03  0.48651009160E+03  0.00000000000E+00 0.  1.
         22    1    1    2    0    0 -0.37824314680E+01  0.21481094231E+02  0.16852980048E+02  0.27563873706E+02  0.00000000000E+00 0. -1.
</event>
<event>
 6    1  0.3701283E-005  0.1841797E+03  0.7818608E-02  0.1163818E+00
          2   -1    0    0  502    0  0.00000000000E+00  0.00000000000E+00  0.82658606388E+02  0.82658606388E+02  0.00000000000E+00 0.  1.
          1   -1    0    0  501    0 -0.00000000000E+00 -0.00000000000E+00 -0.30475041755E+03  0.30475041755E+03  0.00000000000E+00 0. -1.
          2    1    1    2  501    0  0.40822730481E+02  0.19588981339E+02  0.21737339958E+02  0.50226840058E+02  0.00000000000E+00 0.  1.
          1    1    1    2  502    0 -0.21337556937E+02 -0.22460912018E+02 -0.19945121832E+03  0.20184293992E+03  0.00000000000E+00 0. -1.
         22    1    1    2    0    0 -0.12601027975E+02 -0.38555775121E+02  0.29639636965E+02  0.50237852070E+02  0.00000000000E+00 0.  1.
         22    1    1    2    0    0 -0.68841455692E+01  0.41427705801E+02 -0.74017569764E+02  0.85101391892E+02  0.00000000000E+00 0.  1.
</event>
<event>
 6    1  0.3701283E-005  0.1992366E+03  0.7818608E-02  0.1150385E+00
          2   -1    0    0  502    0  0.00000000000E+00  0.00000000000E+00  0.46711232168E+03  0.46711232168E+03  0.00000000000E+00 0. -1.
          1   -1    0    0  501    0 -0.00000000000E+00 -0.00000000000E+00 -0.62804523174E+03  0.62804523174E+03  0.00000000000E+00 0.  1.
          2    1    1    2  501    0  0.15120928620E+01  0.29879976455E+02  0.12356546925E+03  0.12713585100E+03  0.00000000000E+00 0. -1.
          1    1    1    2  502    0  0.12378591167E+02  0.78739544756E+02 -0.60406248784E+03  0.60929847747E+03  0.00000000000E+00 0.  1.
         22    1    1    2    0    0 -0.70783161344E+00  0.26728608745E+02  0.60194580574E+02  0.65865826355E+02  0.00000000000E+00 0. -1.
         22    1    1    2    0    0 -0.13182852416E+02 -0.13534812996E+03  0.25936952795E+03  0.29285739859E+03  0.00000000000E+00 0. -1.
</event>
<event>
 6    1  0.3701283E-005  0.1103668E+03  0.7818608E-02  0.1263965E+00
          2   -1    0    0  502    0  0.00000000000E+00  0.00000000000E+00  0.51398473873E+03  0.51398473873E+03  0.00000000000E+00 0. -1.
          1   -1    0    0  501    0 -0.00000000000E+00 -0.00000000000E+00 -0.54115297995E+03  0.54115297995E+03  0.00000000000E+00 0.  1.
          2    1    1    2  501    0 -0.71383178467E+02 -0.29095675984E+02  0.19375082896E+03  0.20852218168E+03  0.00000000000E+00 0. -1.
          1    1    1    2  502    0  0.10837720513E+02  0.20317256085E+02 -0.51796136528E+03  0.51847297230E+03  0.00000000000E+00 0.  1.
         22    1    1    2    0    0 -0.34815947101E+02  0.12003326058E+02  0.13655050172E+03  0.14142938001E+03  0.00000000000E+00 0.  1.
         22    1    1    2    0    0  0.95361405055E+02 -0.32249061592E+01  0.16049179338E+03  0.18671318468E+03  0.00000000000E+00 0.  1.
</event>
<event>
 6    1  0.3701283E-005  0.1450678E+03  0.7818608E-02  0.1207452E+00
          2   -1    0    0  502    0  0.00000000000E+00  0.00000000000E+00  0.52238294272E+03  0.52238294272E+03  0.00000000000E+00 0.  1.
          1   -1    0    0  501    0 -0.00000000000E+00 -0.00000000000E+00 -0.28371375696E+03  0.28371375696E+03  0.00000000000E+00 0.  1.
          2    1    1    2  501    0 -0.72891013819E+02  0.10076399100E+03  0.12984216600E+03  0.17979285261E+03  0.00000000000E+00 0.  1.
          1    1    1    2  502    0  0.53646164214E+02  0.13270436331E+02 -0.23560571254E+03  0.24200013884E+03  0.00000000000E+00 0.  1.
         22    1    1    2    0    0 -0.22093979455E+02  0.19942682608E+02  0.49930125353E+02  0.58128064956E+02  0.00000000000E+00 0.  1.
         22    1    1    2    0    0  0.41338829060E+02 -0.13397710994E+03  0.29450260694E+03  0.32617564328E+03  0.00000000000E+00 0.  1.
</event>
<event>
 6    1  0.3701283E-005  0.2443057E+03  0.7818608E-02  0.1116957E+00
          2   -1    0    0  502    0  0.00000000000E+00  0.00000000000E+00  0.18082261193E+03  0.18082261193E+03  0.00000000000E+00 0. -1.
          1   -1    0    0  501    0 -0.00000000000E+00 -0.00000000000E+00 -0.28752058314E+03  0.28752058314E+03  0.00000000000E+00 0. -1.
          2    1    1    2  501    0  0.39729286516E+02 -0.48441759916E+02  0.45325698708E+02  0.77326834115E+02  0.00000000000E+00 0. -1.
          1    1    1    2  502    0  0.40677358284E+02 -0.52407029207E+02 -0.19700930903E+03  0.20787932084E+03  0.00000000000E+00 0. -1.
         22    1    1    2    0    0 -0.26590622291E+02  0.52113076339E+01  0.66052204385E+02  0.71394065756E+02  0.00000000000E+00 0.  1.
         22    1    1    2    0    0 -0.53816022510E+02  0.95637481489E+02 -0.21066565271E+02  0.11174297435E+03  0.00000000000E+00 0. -1.
</event>
<event>
 6    1  0.4003688E-005  0.2369882E+03  0.7818608E-02  0.1121816E+00
          2   -1    0    0  502    0  0.00000000000E+00  0.00000000000E+00  0.25572150433E+03  0.25572150433E+03  0.00000000000E+00 0. -1.
          1   -1    0    0  501    0 -0.00000000000E+00 -0.00000000000E+00 -0.12723767949E+04  0.12723767949E+04  0.00000000000E+00 0.  1.
          2    1    1    2  501    0  0.45108776270E+02 -0.26677012080E+02 -0.14489101800E+02  0.54372775735E+02  0.00000000000E+00 0. -1.
          1    1    1    2  502    0 -0.10006909586E+03  0.22484594664E+01 -0.12149664227E+04  0.12190825599E+04  0.00000000000E+00 0.  1.
         22    1    1    2    0    0 -0.19237307777E+02  0.42919206447E+02  0.28218454771E+02  0.54849006210E+02  0.00000000000E+00 0.  1.
         22    1    1    2    0    0  0.74197627372E+02 -0.18490653834E+02  0.18458177920E+03  0.19979395736E+03  0.00000000000E+00 0. -1.
</event>
<event>
 6    1  0.3701283E-005  0.3291440E+03  0.7818608E-02  0.1071516E+00
          2   -1    0    0  502    0  0.00000000000E+00  0.00000000000E+00  0.52842611069E+02  0.52842611069E+02  0.00000000000E+00 0. -1.
          1   -1    0    0  501    0 -0.00000000000E+00 -0.00000000000E+00 -0.19173717636E+04  0.19173717636E+04  0.00000000000E+00 0. -1.
          2    1    1    2  501    0 -0.79401318738E+02 -0.88860502905E+01 -0.17908741587E+03  0.19610159058E+03  0.00000000000E+00 0. -1.
          1    1    1    2  502    0  0.13771283621E+03 -0.19474232851E+03 -0.12552916799E+04  0.12777506022E+04  0.00000000000E+00 0. -1.
         22    1    1    2    0    0 -0.52687003060E+02  0.50220224834E+02 -0.55660885407E+02  0.91630373993E+02  0.00000000000E+00 0. -1.
         22    1    1    2    0    0 -0.56245144149E+01  0.15340815397E+03 -0.37448917138E+03  0.40473180793E+03  0.00000000000E+00 0. -1.
</event>
<event>
 6    1  0.3701283E-005  0.1533705E+03  0.7818608E-02  0.1198719E+00
          2   -1    0    0  502    0  0.00000000000E+00  0.00000000000E+00  0.50303576572E+03  0.50303576572E+03  0.00000000000E+00 0.  1.
          1   -1    0    0  501    0 -0.00000000000E+00 -0.00000000000E+00 -0.12262298855E+03  0.12262298855E+03  0.00000000000E+00 0.  1.
          2    1    1    2  501    0  0.70259055638E+02  0.95471840733E+02  0.77723903822E+02  0.14174700172E+03  0.00000000000E+00 0.  1.
          1    1    1    2  502    0  0.36976683788E+02 -0.12314973860E+02 -0.63748685298E+02  0.74718328423E+02  0.00000000000E+00 0.  1.
         22    1    1    2    0    0 -0.12879782884E+03 -0.82255398037E+02  0.35049281794E+03  0.38236114688E+03  0.00000000000E+00 0.  1.
         22    1    1    2    0    0  0.21562089414E+02 -0.90146883634E+00  0.15944740712E+02  0.26832277249E+02  0.00000000000E+00 0.  1.
</event>
<event>
 6    1  0.3701283E-005  0.7724307E+02  0.7818608E-02  0.1341741E+00
          2   -1    0    0  502    0  0.00000000000E+00  0.00000000000E+00  0.11767307959E+03  0.11767307959E+03  0.00000000000E+00 0.  1.
          1   -1    0    0  501    0 -0.00000000000E+00 -0.00000000000E+00 -0.10680291128E+03  0.10680291128E+03  0.00000000000E+00 0.  1.
          2    1    1    2  501    0 -0.21269151107E+02  0.20386255926E+02 -0.10504074402E+02  0.31277976254E+02  0.00000000000E+00 0.  1.
          1    1    1    2  502    0  0.39044197528E+02 -0.89996342228E+01 -0.33925501987E+02  0.52501261526E+02  0.00000000000E+00 0.  1.
         22    1    1    2    0    0  0.35195173673E+02  0.18259176390E+02 -0.19647667216E+02  0.44250746879E+02  0.00000000000E+00 0.  1.
         22    1    1    2    0    0 -0.52970220094E+02 -0.29645798094E+02  0.74947411912E+02  0.96446006209E+02  0.00000000000E+00 0.  1.
</event>
<event>
 6    1  0.3701283E-005  0.1686470E+03  0.7818608E-02  0.1179266E+00
          2   -1    0    0  502    0  0.00000000000E+00  0.00000000000E+00  0.10321995217E+03  0.10321995217E+03  0.00000000000E+00 0.  1.
          1   -1    0    0  501    0 -0.00000000000E+00 -0.00000000000E+00 -0.73091646753E+03  0.73091646753E+03  0.00000000000E+00 0. -1.
          2    1    1    2  501    0  0.36354208280E+02 -0.10190907354E+02 -0.20778480047E+00  0.37756141579E+02  0.00000000000E+00 0.  1.
          1    1    1    2  502    0 -0.27204619485E+02  0.71553821066E+01 -0.66153108056E+03  0.66212888576E+03  0.00000000000E+00 0. -1.
         22    1    1    2    0    0 -0.26664563879E+02  0.34501464097E+01 -0.45473962310E+02  0.52827868831E+02  0.00000000000E+00 0.  1.
         22    1    1    2    0    0  0.17514975083E+02 -0.41462116186E+00  0.79516312301E+02  0.81423523535E+02  0.00000000000E+00 0.  1.
</event>
<event>
 6    1  0.3701283E-005  0.8232744E+02  0.7818608E-02  0.1328957E+00
          2   -1    0    0  502    0  0.00000000000E+00  0.00000000000E+00  0.61106604082E+03  0.61106604082E+03  0.00000000000E+00 0. -1.
          1   -1    0    0  501    0 -0.00000000000E+00 -0.00000000000E+00 -0.63499277205E+02  0.63499277205E+02  0.00000000000E+00 0.  1.
          2    1    1    2  501    0  0.34122336763E+02 -0.30870384342E+02  0.21763490311E+03  0.22244609583E+03  0.00000000000E+00 0. -1.
          1    1    1    2  502    0 -0.57804501690E+02  0.65777597781E+01 -0.32354649970E+02  0.66569142356E+02  0.00000000000E+00 0.  1.
         22    1    1    2    0    0 -0.21208380787E+00 -0.42848781901E+02  0.24177905936E+03  0.24554668932E+03  0.00000000000E+00 0. -1.
         22    1    1    2    0    0  0.23894248735E+02  0.67141406465E+02  0.12050745111E+03  0.14000339053E+03  0.00000000000E+00 0.  1.
</event>
<event>
 6    1  0.3701283E-005  0.1294479E+03  0.7818608E-02  0.1235988E+00
          2   -1    0    0  502    0  0.00000000000E+00  0.00000000000E+00  0.88398578122E+02  0.88398578122E+02  0.00000000000E+00 0.  1.
          1   -1    0    0  501    0 -0.00000000000E+00 -0.00000000000E+00 -0.13179591976E+04  0.13179591976E+04  0.00000000000E+00 0.  1.
          2    1    1    2  501    0  0.13336733733E+03 -0.28609886459E+02 -0.18442357916E+03  0.22938489231E+03  0.00000000000E+00 0.  1.
          1    1    1    2  502    0 -0.77999373000E+02 -0.13442767910E+02 -0.10260561243E+04  0.10291043583E+04  0.00000000000E+00 0.  1.
         22    1    1    2    0    0  0.15677144063E+02 -0.32104839906E+02 -0.27122695524E+02  0.44856818923E+02  0.00000000000E+00 0.  1.
         22    1    1    2    0    0 -0.71045108391E+02  0.74157494275E+02  0.80417794953E+01  0.10301170613E+03  0.00000000000E+00 0. -1.
</event>
<event>
 6    1  0.3701283E-005  0.2179199E+03  0.7818608E-02  0.1207055E+00
          2   -1    0    0  502    0  0.00000000000E+00  0.00000000000E+00  0.51014341471E+03  0.51014341471E+03  0.00000000000E+00 0.  1.
          1   -1    0    0  501    0 -0.00000000000E+00 -0.00000000000E+00 -0.76395660103E+03  0.76395660103E+03  0.00000000000E+00 0.  1.
          2    1    1    2  501    0 -0.85076801131E+00 -0.26563177686E+02  0.47511565876E+02  0.54439646463E+02  0.00000000000E+00 0.  1.
          1    1    1    2  502    0 -0.74394339928E+02  0.20029011053E+03 -0.71632446011E+03  0.74751011922E+03  0.00000000000E+00 0.  1.
         22    1    1    2    0    0 -0.32487610029E+02 -0.27308691413E+02  0.96618423871E+02  0.10552880774E+03  0.00000000000E+00 0. -1.
         22    1    1    2    0    0  0.10773271797E+03 -0.14641824143E+03  0.31838128403E+03  0.36662144232E+03  0.00000000000E+00 0.  1.
</event>
<event>
 6    1  0.3701283E-005  0.8008394E+02  0.7818608E-02  0.1329820E+00
          2   -1    0    0  502    0  0.00000000000E+00  0.00000000000E+00  0.43054792138E+02  0.43054792138E+02  0.00000000000E+00 0. -1.
          1   -1    0    0  501    0 -0.00000000000E+00 -0.00000000000E+00 -0.35524221093E+03  0.35524221093E+03  0.00000000000E+00 0. -1.
          2    1    1    2  501    0  0.27019878001E+02 -0.11394573001E+02 -0.28878379440E+02  0.41156662889E+02  0.00000000000E+00 0. -1.
          1    1    1    2  502    0  0.30868563469E+02  0.41448902812E+02 -0.17410252669E+03  0.18161103919E+03  0.00000000000E+00 0. -1.
         22    1    1    2    0    0  0.35796057169E+02  0.52578320525E+00 -0.46644286668E+02  0.58799010499E+02  0.00000000000E+00 0. -1.
         22    1    1    2    0    0 -0.93684498639E+02 -0.30580113016E+02 -0.62562225992E+02  0.11673029049E+03  0.00000000000E+00 0. -1.
</event>
<event>
 6    1  0.3701283E-005  0.2562425E+03  0.7818608E-02  0.1109422E+00
          2   -1    0    0  502    0  0.00000000000E+00  0.00000000000E+00  0.10111910209E+03  0.10111910209E+03  0.00000000000E+00 0. -1.
          1   -1    0    0  501    0 -0.00000000000E+00 -0.00000000000E+00 -0.83684796197E+03  0.83684796197E+03  0.00000000000E+00 0.  1.
          2    1    1    2  501    0  0.38030629047E+01 -0.43037320303E+02 -0.95524240577E+02  0.10484061600E+03  0.00000000000E+00 0. -1.
          1    1    1    2  502    0 -0.45252993704E+02  0.13891825066E+03 -0.65233458375E+03  0.66849571649E+03  0.00000000000E+00 0.  1.
         22    1    1    2    0    0 -0.26952074933E+02 -0.46884834058E+02 -0.38544361540E+02  0.66409862327E+02  0.00000000000E+00 0. -1.
         22    1    1    2    0    0  0.68402005732E+02 -0.48996096297E+02  0.50674325990E+02  0.98220869244E+02  0.00000000000E+00 0. -1.
</event>
<event>
 6    1  0.3701283E-005  0.1427026E+03  0.7818608E-02  0.1210364E+00
          2   -1    0    0  502    0  0.00000000000E+00  0.00000000000E+00  0.23748021322E+03  0.23748021322E+03  0.00000000000E+00 0. -1.
          1   -1    0    0  501    0 -0.00000000000E+00 -0.00000000000E+00 -0.45029315532E+03  0.45029315532E+03  0.00000000000E+00 0. -1.
          2    1    1    2  501    0  0.72950289172E+02  0.53818919697E+02  0.39952638234E+02  0.99067825804E+02  0.00000000000E+00 0. -1.
          1    1    1    2  502    0  0.63834467739E+02  0.70837656652E+02 -0.33622541197E+03  0.34948582306E+03  0.00000000000E+00 0. -1.
         22    1    1    2    0    0  0.77777911693E+01  0.18900513783E+02  0.84808323819E+01  0.22127990750E+02  0.00000000000E+00 0.  1.
         22    1    1    2    0    0 -0.14456254808E+03 -0.14355709013E+03  0.74978999249E+02  0.21709172891E+03  0.00000000000E+00 0.  1.
</event>
<event>
 6    1  0.3701283E-005  0.3053512E+03  0.7818608E-02  0.1082596E+00
          2   -1    0    0  502    0  0.00000000000E+00  0.00000000000E+00  0.24276161344E+03  0.24276161344E+03  0.00000000000E+00 0. -1.
          1   -1    0    0  501    0 -0.00000000000E+00 -0.00000000000E+00 -0.15866958275E+04  0.15866958275E+04  0.00000000000E+00 0. -1.
          2    1    1    2  501    0  0.98241185855E+02 -0.37727418159E+02 -0.36027358038E+02  0.11123245572E+03  0.00000000000E+00 0. -1.
          1    1    1    2  502    0 -0.57997841027E+02  0.73829025842E+02 -0.14886090176E+04  0.14915667205E+04  0.00000000000E+00 0. -1.
         22    1    1    2    0    0  0.63664356795E+01 -0.46971452786E+02  0.87910619299E+01  0.48209248593E+02  0.00000000000E+00 0. -1.
         22    1    1    2    0    0 -0.46609780507E+02  0.10869845102E+02  0.17191109961E+03  0.17844901609E+03  0.00000000000E+00 0. -1.
</event>
<event>
 6    1  0.3701283E-005  0.1304496E+03  0.7818608E-02  0.1231637E+00
          2   -1    0    0  502    0  0.00000000000E+00  0.00000000000E+00  0.86822751854E+03  0.86822751854E+03  0.00000000000E+00 0. -1.
          1   -1    0    0  501    0 -0.00000000000E+00 -0.00000000000E+00 -0.10006263066E+04  0.10006263066E+04  0.00000000000E+00 0. -1.
          2    1    1    2  501    0  0.16515668668E+02  0.10570194915E+03  0.23518264669E+03  0.25837288301E+03  0.00000000000E+00 0. -1.
          1    1    1    2  502    0 -0.24581189043E+02 -0.13892950068E+02 -0.97953049045E+03  0.97993736057E+03  0.00000000000E+00 0. -1.
         22    1    1    2    0    0 -0.23063883649E+02  0.19690618975E+02  0.68675956059E+02  0.75073631491E+02  0.00000000000E+00 0. -1.
         22    1    1    2    0    0  0.31129404023E+02 -0.11149961806E+03  0.54327309965E+03  0.55546995007E+03  0.00000000000E+00 0. -1.
</event>
<event>
 6    1  0.3701283E-005  0.2031650E+03  0.7818608E-02  0.1147096E+00
          2   -1    0    0  502    0  0.00000000000E+00  0.00000000000E+00  0.23785034092E+03  0.23785034092E+03  0.00000000000E+00 0.  1.
          1   -1    0    0  501    0 -0.00000000000E+00 -0.00000000000E+00 -0.20373652405E+03  0.20373652405E+03  0.00000000000E+00 0.  1.
          2    1    1    2  501    0 -0.29665862550E+02 -0.56824076287E+02  0.22065590540E+02  0.67793283831E+02  0.00000000000E+00 0.  1.
          1    1    1    2  502    0  0.32037086141E+02  0.23447714968E+02 -0.15743352362E+03  0.16236220183E+03  0.00000000000E+00 0.  1.
         22    1    1    2    0    0  0.23095176525E+02 -0.41246651003E+02  0.70522216985E+02  0.84900273770E+02  0.00000000000E+00 0.  1.
         22    1    1    2    0    0 -0.25466400117E+02  0.74623012322E+02  0.98959532962E+02  0.12653110553E+03  0.00000000000E+00 0.  1.
</event>
<event>
 6    1  0.3701283E-005  0.9957085E+02  0.7818608E-02  0.1285487E+00
          2   -1    0    0  502    0  0.00000000000E+00  0.00000000000E+00  0.49407066891E+03  0.49407066891E+03  0.00000000000E+00 0. -1.
          1   -1    0    0  501    0 -0.00000000000E+00 -0.00000000000E+00 -0.67874337052E+02  0.67874337052E+02  0.00000000000E+00 0. -1.
          2    1    1    2  501    0  0.27663374602E+02  0.60106953524E+02  0.11537047540E+03  0.13299795018E+03  0.00000000000E+00 0. -1.
          1    1    1    2  502    0  0.45748441768E+02 -0.85107935091E+02  0.14709572859E+02  0.97737669674E+02  0.00000000000E+00 0. -1.
         22    1    1    2    0    0 -0.10877504451E+03  0.96019070744E+01  0.20510623076E+03  0.23236344985E+03  0.00000000000E+00 0. -1.
         22    1    1    2    0    0  0.35363228137E+02  0.15399074493E+02  0.91010052832E+02  0.98845936265E+02  0.00000000000E+00 0. -1.
</event>
<event>
 6    1  0.3701283E-005  0.2248292E+03  0.7818608E-02  0.1130333E+00
          2   -1    0    0  502    0  0.00000000000E+00  0.00000000000E+00  0.30670366007E+02  0.30670366007E+02  0.00000000000E+00 0. -1.
          1   -1    0    0  501    0 -0.00000000000E+00 -0.00000000000E+00 -0.10231545689E+04  0.10231545689E+04  0.00000000000E+00 0. -1.
          2    1    1    2  501    0 -0.65403367454E+01 -0.38962148083E+02 -0.23610720854E+03  0.23938972182E+03  0.00000000000E+00 0. -1.
          1    1    1    2  502    0 -0.79170318302E+02  0.19739214615E+02 -0.56463394994E+03  0.57049896873E+03  0.00000000000E+00 0. -1.
         22    1    1    2    0    0  0.87270476092E+02  0.50068522004E+02 -0.81596115801E+02  0.12954118653E+03  0.00000000000E+00 0. -1.
         22    1    1    2    0    0 -0.15598210446E+01 -0.30845588536E+02 -0.11014692858E+03  0.11439505780E+03  0.00000000000E+00 0. -1.
</event>
<event>
 6    1  0.3701283E-005  0.1010457E+03  0.7818608E-02  0.1301836E+00
          2   -1    0    0  502    0  0.00000000000E+00  0.00000000000E+00  0.36719988739E+02  0.36719988739E+02  0.00000000000E+00 0.  1.
          1   -1    0    0  501    0 -0.00000000000E+00 -0.00000000000E+00 -0.31262486328E+04  0.31262486328E+04  0.00000000000E+00 0.  1.
          2    1    1    2  501    0  0.85597881075E+02 -0.99734064639E+02 -0.68453952345E+03  0.69704249516E+03  0.00000000000E+00 0.  1.
          1    1    1    2  502    0 -0.49622835652E+02  0.66700134898E+02 -0.22737540412E+04  0.22752733404E+04  0.00000000000E+00 0.  1.
         22    1    1    2    0    0 -0.40497281723E+01 -0.23345836919E+02 -0.12309206802E+03  0.12535184725E+03  0.00000000000E+00 0. -1.
         22    1    1    2    0    0 -0.31925317250E+02  0.56379766660E+02 -0.81430114813E+01  0.65300938784E+02  0.00000000000E+00 0.  1.
</event>
<event>
 6    1  0.3701283E-005  0.8889385E+02  0.7818608E-02  0.1307470E+00
          2   -1    0    0  502    0  0.00000000000E+00  0.00000000000E+00  0.89122149812E+02  0.89122149812E+02  0.00000000000E+00 0.  1.
          1   -1    0    0  501    0 -0.00000000000E+00 -0.00000000000E+00 -0.32014676993E+03  0.32014676993E+03  0.00000000000E+00 0.  1.
          2    1    1    2  501    0 -0.32269219980E+01 -0.49300676332E+02  0.35226545608E+01  0.49531594034E+02  0.00000000000E+00 0.  1.
          1    1    1    2  502    0  0.39453973599E+01  0.23481848269E+02 -0.22648826129E+03  0.22773646142E+03  0.00000000000E+00 0.  1.
         22    1    1    2    0    0  0.36724453346E+00 -0.45665475860E+02  0.26280353504E+02  0.52688969759E+02  0.00000000000E+00 0.  1.
         22    1    1    2    0    0 -0.10857198954E+01  0.71484303923E+02 -0.34339366896E+02  0.79311894530E+02  0.00000000000E+00 0. -1.
</event>
<event>
 6    1  0.3701283E-005  0.4865410E+03  0.7818608E-02  0.1017353E+00
          2   -1    0    0  502    0  0.00000000000E+00  0.00000000000E+00  0.23969017022E+04  0.23969017022E+04  0.00000000000E+00 0. -1.
          1   -1    0    0  501    0 -0.00000000000E+00 -0.00000000000E+00 -0.17156645079E+03  0.17156645079E+03  0.00000000000E+00 0. -1.
          2    1    1    2  501    0  0.52678113630E+02 -0.16264068517E+02  0.15398053089E+02  0.57241624884E+02  0.00000000000E+00 0. -1.
          1    1    1    2  502    0 -0.35027730455E+03  0.30106802002E+03  0.19611957446E+04  0.20148510842E+04  0.00000000000E+00 0. -1.
         22    1    1    2    0    0  0.53032306453E+02  0.10808558817E+01  0.36849265081E+02  0.64586857132E+02  0.00000000000E+00 0. -1.
         22    1    1    2    0    0  0.24456688446E+03 -0.28588480739E+03  0.21189218859E+03  0.43178858676E+03  0.00000000000E+00 0. -1.
</event>
<event>
 6    1  0.3701283E-005  0.9206351E+02  0.7818608E-02  0.1298956E+00
          2   -1    0    0  502    0  0.00000000000E+00  0.00000000000E+00  0.85175696535E+03  0.85175696535E+03  0.00000000000E+00 0. -1.
          1   -1    0    0  501    0 -0.00000000000E+00 -0.00000000000E+00 -0.29640279169E+02  0.29640279169E+02  0.00000000000E+00 0. -1.
          2    1    1    2  501    0 -0.29065055319E+02 -0.23951968387E+02  0.97348121774E+02  0.10437974441E+03  0.00000000000E+00 0. -1.
          1    1    1    2  502    0  0.92442389362E+01 -0.42704495678E+02  0.62540830311E+01  0.44138910942E+02  0.00000000000E+00 0. -1.
         22    1    1    2    0    0  0.46397168877E+02  0.94351128151E+02  0.55983479584E+03  0.56962253404E+03  0.00000000000E+00 0. -1.
         22    1    1    2    0    0 -0.26576352493E+02 -0.27694664087E+02  0.15867968554E+03  0.16325605512E+03  0.00000000000E+00 0. -1.
</event>
<event>
 6    1  0.3701283E-005  0.2429171E+03  0.7818608E-02  0.1117865E+00
          2   -1    0    0  502    0  0.00000000000E+00  0.00000000000E+00  0.15610026934E+03  0.15610026934E+03  0.00000000000E+00 0. -1.
          1   -1    0    0  501    0 -0.00000000000E+00 -0.00000000000E+00 -0.29153016641E+03  0.29153016641E+03  0.00000000000E+00 0. -1.
          2    1    1    2  501    0  0.26562285608E+02  0.91525575119E+02  0.30402865143E+02  0.10003409482E+03  0.00000000000E+00 0. -1.
          1    1    1    2  502    0  0.37656820214E+02 -0.46131385564E+02 -0.18961279200E+03  0.19874393508E+03  0.00000000000E+00 0. -1.
         22    1    1    2    0    0 -0.61477117592E+02 -0.65605190656E+02 -0.27209180102E+02  0.93935171849E+02  0.00000000000E+00 0. -1.
         22    1    1    2    0    0 -0.27419882305E+01  0.20211001102E+02  0.50989209887E+02  0.54917233997E+02  0.00000000000E+00 0. -1.
</event>
<event>
 6    1  0.3701283E-005  0.2151473E+03  0.7818608E-02  0.1192630E+00
          2   -1    0    0  502    0  0.00000000000E+00  0.00000000000E+00  0.88671006676E+02  0.88671006676E+02  0.00000000000E+00 0.  1.
          1   -1    0    0  501    0 -0.00000000000E+00 -0.00000000000E+00 -0.27477728184E+04  0.27477728184E+04  0.00000000000E+00 0.  1.
          2    1    1    2  501    0 -0.53244995190E+02  0.49079210453E+02 -0.43082512318E+02  0.84260911929E+02  0.00000000000E+00 0.  1.
          1    1    1    2  502    0  0.14458228634E+03 -0.15389262799E+03 -0.25404878798E+04  0.25492480550E+04  0.00000000000E+00 0.  1.
         22    1    1    2    0    0 -0.32287424158E+02  0.11720044835E+03 -0.74524282317E+02  0.14259134444E+03  0.00000000000E+00 0.  1.
         22    1    1    2    0    0 -0.59049866994E+02 -0.12387030816E+02 -0.10071373073E+01  0.60343513736E+02  0.00000000000E+00 0. -1.
</event>
<event>
 6    1  0.3701283E-005  0.2070752E+03  0.7818608E-02  0.1143903E+00
          2   -1    0    0  502    0  0.00000000000E+00  0.00000000000E+00  0.22420224317E+03  0.22420224317E+03  0.00000000000E+00 0. -1.
          1   -1    0    0  501    0 -0.00000000000E+00 -0.00000000000E+00 -0.97823588024E+02  0.97823588024E+02  0.00000000000E+00 0. -1.
          2    1    1    2  501    0  0.76923197401E+01  0.26583132437E+02 -0.19312544417E+02  0.33746245495E+02  0.00000000000E+00 0. -1.
          1    1    1    2  502    0  0.73554508075E+02 -0.10389590887E+02 -0.86938757837E+01  0.74791662190E+02  0.00000000000E+00 0. -1.
         22    1    1    2    0    0  0.90663836993E+01 -0.53628559108E+01 -0.16688937377E+02  0.19735251903E+02  0.00000000000E+00 0. -1.
         22    1    1    2    0    0 -0.90313211515E+02 -0.10830685639E+02  0.17107401273E+03  0.19375267161E+03  0.00000000000E+00 0. -1.
</event>
<event>
 6    1  0.3701283E-005  0.7475245E+02  0.7818608E-02  0.1345487E+00
          2   -1    0    0  502    0  0.00000000000E+00  0.00000000000E+00  0.56497735605E+03  0.56497735605E+03  0.00000000000E+00 0. -1.
          1   -1    0    0  501    0 -0.00000000000E+00 -0.00000000000E+00 -0.37288678366E+02  0.37288678366E+02  0.00000000000E+00 0.  1.
          2    1    1    2  501    0  0.19403892034E+02  0.11575531220E+02  0.86156091283E+02  0.89069501033E+02  0.00000000000E+00 0. -1.
          1    1    1    2  502    0  0.31728586116E+02  0.45034463395E+02  0.88367822892E+01  0.55793322104E+02  0.00000000000E+00 0.  1.
         22    1    1    2    0    0 -0.71732780526E+02 -0.86081696959E+02  0.31492876663E+03  0.33426902101E+03  0.00000000000E+00 0. -1.
         22    1    1    2    0    0  0.20600302376E+02  0.29471702345E+02  0.11776703748E+03  0.12313419027E+03  0.00000000000E+00 0.  1.
</event>
<event>
 6    1  0.3701283E-005  0.8414499E+02  0.7818608E-02  0.1318911E+00
          2   -1    0    0  502    0  0.00000000000E+00  0.00000000000E+00  0.52779997307E+02  0.52779997307E+02  0.00000000000E+00 0.  1.
          1   -1    0    0  501    0 -0.00000000000E+00 -0.00000000000E+00 -0.24630603617E+03  0.24630603617E+03  0.00000000000E+00 0.  1.
          2    1    1    2  501    0  0.48091184527E+02 -0.19213661045E+02 -0.57937270323E+02  0.77708777448E+02  0.00000000000E+00 0.  1.
          1    1    1    2  502    0  0.20476798567E+02  0.20093516350E+01  0.33491744889E+01  0.20845952684E+02  0.00000000000E+00 0.  1.
         22    1    1    2    0    0 -0.10231946258E+03  0.24695997539E+02 -0.12458649344E+03  0.16309800448E+03  0.00000000000E+00 0.  1.
         22    1    1    2    0    0  0.33751479489E+02 -0.74916881296E+01 -0.14351449592E+02  0.37433298868E+02  0.00000000000E+00 0.  1.
</event>
<event>
 6    1  0.3701283E-005  0.1444257E+03  0.7818608E-02  0.1207838E+00
          2   -1    0    0  502    0  0.00000000000E+00  0.00000000000E+00  0.73718348489E+03  0.73718348489E+03  0.00000000000E+00 0.  1.
          1   -1    0    0  501    0 -0.00000000000E+00 -0.00000000000E+00 -0.24414040358E+03  0.24414040358E+03  0.00000000000E+00 0.  1.
          2    1    1    2  501    0 -0.76106990763E+02  0.67553473951E+02  0.46286520025E+02  0.11179529427E+03  0.00000000000E+00 0.  1.
          1    1    1    2  502    0  0.14130666651E+01  0.44390801876E+02 -0.19639824734E+03  0.20135742253E+03  0.00000000000E+00 0.  1.
         22    1    1    2    0    0 -0.14129813036E+02  0.90547835265E+01  0.15592622856E+02  0.22907872199E+02  0.00000000000E+00 0. -1.
         22    1    1    2    0    0  0.88823737134E+02 -0.12099905935E+03  0.62756218577E+03  0.64526329947E+03  0.00000000000E+00 0.  1.
</event>
<event>
 6    1  0.3701283E-005  0.9592443E+02  0.7818608E-02  0.1292581E+00
          2   -1    0    0  502    0  0.00000000000E+00  0.00000000000E+00  0.56039955306E+03  0.56039955306E+03  0.00000000000E+00 0.  1.
          1   -1    0    0  501    0 -0.00000000000E+00 -0.00000000000E+00 -0.27163600323E+02  0.27163600323E+02  0.00000000000E+00 0.  1.
          2    1    1    2  501    0  0.57671075377E+02  0.11968396330E+02  0.89376452847E+02  0.10703899182E+03  0.00000000000E+00 0.  1.
          1    1    1    2  502    0 -0.17996565784E+02 -0.29191092332E+02  0.19296427490E+03  0.19598777420E+03  0.00000000000E+00 0.  1.
         22    1    1    2    0    0 -0.79388122514E+02  0.36738991481E+02  0.19089683237E+03  0.20998530449E+03  0.00000000000E+00 0.  1.
         22    1    1    2    0    0  0.39713612920E+02 -0.19516295479E+02  0.59998392625E+02  0.74551082876E+02  0.00000000000E+00 0.  1.
</event>
<event>
 6    1  0.3701283E-005  0.2341790E+03  0.7818608E-02  0.1123733E+00
          2   -1    0    0  502    0  0.00000000000E+00  0.00000000000E+00  0.27491390861E+02  0.27491390861E+02  0.00000000000E+00 0. -1.
          1   -1    0    0  501    0 -0.00000000000E+00 -0.00000000000E+00 -0.10084942754E+04  0.10084942754E+04  0.00000000000E+00 0. -1.
          2    1    1    2  501    0  0.93747611531E+02 -0.13114469185E+02 -0.41229401564E+03  0.42302122795E+03  0.00000000000E+00 0. -1.
          1    1    1    2  502    0 -0.73796599586E+02  0.61424517422E+02 -0.22749801023E+03  0.24692965417E+03  0.00000000000E+00 0. -1.
         22    1    1    2    0    0 -0.42503861718E+02 -0.45898136416E+02 -0.33725923233E+03  0.34301167178E+03  0.00000000000E+00 0. -1.
         22    1    1    2    0    0  0.22552849774E+02 -0.24119118209E+01 -0.39516263401E+01  0.23023112350E+02  0.00000000000E+00 0. -1.
</event>
<event>
 6    1  0.3701283E-005  0.3788050E+03  0.7818608E-02  0.1051376E+00
          2   -1    0    0  502    0  0.00000000000E+00  0.00000000000E+00  0.13001612328E+03  0.13001612328E+03  0.00000000000E+00 0. -1.
          1   -1    0    0  501    0 -0.00000000000E+00 -0.00000000000E+00 -0.88258802286E+03  0.88258802286E+03  0.00000000000E+00 0. -1.
          2    1    1    2  501    0 -0.98182463918E+02 -0.85694359955E+02 -0.63785538556E+02  0.14509277886E+03  0.00000000000E+00 0. -1.
          1    1    1    2  502    0  0.12800281865E+03  0.26981829784E+03 -0.32559343781E+03  0.44181186287E+03  0.00000000000E+00 0. -1.
         22    1    1    2    0    0 -0.57120077385E+02 -0.79508338531E+02 -0.94494358174E+02  0.13606418656E+03  0.00000000000E+00 0.  1.
         22    1    1    2    0    0  0.27299722654E+02 -0.10461559935E+03 -0.26869856505E+03  0.28963531784E+03  0.00000000000E+00 0. -1.
</event>
<event>
 6    1  0.3701283E-005  0.1595137E+03  0.7818608E-02  0.1189887E+00
          2   -1    0    0  502    0  0.00000000000E+00  0.00000000000E+00  0.34754954061E+03  0.34754954061E+03  0.00000000000E+00 0. -1.
          1   -1    0    0  501    0 -0.00000000000E+00 -0.00000000000E+00 -0.11461795676E+04  0.11461795676E+04  0.00000000000E+00 0.  1.
          2    1    1    2  501    0 -0.14995981835E+03 -0.17036827063E+02  0.70465550817E+02  0.16656408511E+03  0.00000000000E+00 0. -1.
          1    1    1    2  502    0  0.30866861541E+02 -0.11469889082E+02 -0.10650750884E+04  0.10655840020E+04  0.00000000000E+00 0.  1.
         22    1    1    2    0    0  0.14428911946E+03  0.31691323392E+02  0.17068901349E+03  0.22573973797E+03  0.00000000000E+00 0. -1.
         22    1    1    2    0    0 -0.25196162648E+02 -0.31846072471E+01  0.25290497053E+02  0.35841283134E+02  0.00000000000E+00 0.  1.
</event>
<event>
 6    1  0.3701283E-005  0.5183212E+02  0.7818608E-02  0.1438742E+00
          2   -1    0    0  502    0  0.00000000000E+00  0.00000000000E+00  0.73096692864E+02  0.73096692864E+02  0.00000000000E+00 0. -1.
          1   -1    0    0  501    0 -0.00000000000E+00 -0.00000000000E+00 -0.63507337798E+03  0.63507337798E+03  0.00000000000E+00 0.  1.
          2    1    1    2  501    0 -0.83975237887E+00 -0.65771462056E+02 -0.27448419562E+03  0.28225549428E+03  0.00000000000E+00 0. -1.
          1    1    1    2  502    0 -0.44525916403E+01  0.36570771845E+02 -0.29188467491E+03  0.29420045951E+03  0.00000000000E+00 0.  1.
         22    1    1    2    0    0  0.30422624092E+01  0.48484028543E+02  0.57438218032E+02  0.75227024898E+02  0.00000000000E+00 0. -1.
         22    1    1    2    0    0  0.22500816099E+01 -0.19283338332E+02 -0.53046032616E+02  0.56487092161E+02  0.00000000000E+00 0. -1.
</event>
<event>
 6    1  0.3701283E-005  0.7277206E+02  0.7818608E-02  0.1357937E+00
          2   -1    0    0  502    0  0.00000000000E+00  0.00000000000E+00  0.35401246685E+03  0.35401246685E+03  0.00000000000E+00 0.  1.
          1   -1    0    0  501    0 -0.00000000000E+00 -0.00000000000E+00 -0.30535174383E+02  0.30535174383E+02  0.00000000000E+00 0. -1.
          2    1    1    2  501    0  0.30502200822E+02  0.57635884375E+01  0.10068976506E+03  0.10536618051E+03  0.00000000000E+00 0.  1.
          1    1    1    2  502    0 -0.62091091545E+01  0.22185918837E+02  0.41544331138E+01  0.23409983888E+02  0.00000000000E+00 0. -1.
         22    1    1    2    0    0 -0.48619467702E+02  0.20279214375E+02  0.32360105699E+02  0.61824555123E+02  0.00000000000E+00 0. -1.
         22    1    1    2    0    0  0.24326376034E+02 -0.48228721650E+02  0.18627298859E+03  0.19394692172E+03  0.00000000000E+00 0.  1.
</event>
<event>
 6    1  0.3701283E-005  0.1632824E+03  0.7818608E-02  0.1185040E+00
          2   -1    0    0  502    0  0.00000000000E+00  0.00000000000E+00  0.73405130440E+02  0.73405130440E+02  0.00000000000E+00 0. -1.
          1   -1    0    0  501    0 -0.00000000000E+00 -0.00000000000E+00 -0.32499956012E+03  0.32499956012E+03  0.00000000000E+00 0. -1.
          2    1    1    2  501    0  0.27109361704E+02  0.98376654733E+01 -0.22200959989E+02  0.36394776801E+02  0.00000000000E+00 0. -1.
          1    1    1    2  502    0 -0.39831311583E+02 -0.26461310307E+02 -0.22855603778E+03  0.23350502507E+03  0.00000000000E+00 0. -1.
         22    1    1    2    0    0 -0.36361805855E+02  0.30803651207E+02 -0.41511800232E+02  0.63200280152E+02  0.00000000000E+00 0.  1.
         22    1    1    2    0    0  0.49083755734E+02 -0.14180006374E+02  0.40674368324E+02  0.65304608538E+02  0.00000000000E+00 0. -1.
</event>
<event>
 6    1  0.3701283E-005  0.2974839E+03  0.7818608E-02  0.1086505E+00
          2   -1    0    0  502    0  0.00000000000E+00  0.00000000000E+00  0.67780712375E+03  0.67780712375E+03  0.00000000000E+00 0. -1.
          1   -1    0    0  501    0 -0.00000000000E+00 -0.00000000000E+00 -0.12282846136E+04  0.12282846136E+04  0.00000000000E+00 0. -1.
          2    1    1    2  501    0 -0.39669238235E+02 -0.57653840137E+02  0.88394619364E+02  0.11274405739E+03  0.00000000000E+00 0. -1.
          1    1    1    2  502    0 -0.13544188532E+03  0.40600234263E+02 -0.11912601435E+04  0.11996222792E+04  0.00000000000E+00 0. -1.
         22    1    1    2    0    0  0.18279888274E+03  0.43974020235E+02  0.50245276227E+03  0.53647732878E+03  0.00000000000E+00 0. -1.
         22    1    1    2    0    0 -0.76877591885E+01 -0.26920414361E+02  0.49935272014E+02  0.57248071948E+02  0.00000000000E+00 0.  1.
</event>
<event>
 6    1  0.3701283E-005  0.3862637E+02  0.7818608E-02  0.1522079E+00
          2   -1    0    0  502    0  0.00000000000E+00  0.00000000000E+00  0.22026637760E+03  0.22026637760E+03  0.00000000000E+00 0.  1.
          1   -1    0    0  501    0 -0.00000000000E+00 -0.00000000000E+00 -0.85017765821E+02  0.85017765821E+02  0.00000000000E+00 0. -1.
          2    1    1    2  501    0 -0.69648105809E+00 -0.22957659923E+02 -0.28899940500E+01  0.23149326137E+02  0.00000000000E+00 0.  1.
          1    1    1    2  502    0 -0.18914261872E+02  0.24290348240E+02 -0.47623572750E+02  0.56707803706E+02  0.00000000000E+00 0. -1.
         22    1    1    2    0    0  0.30315691179E+02  0.21054052458E+02  0.19536363908E+03  0.19881968145E+03  0.00000000000E+00 0.  1.
         22    1    1    2    0    0 -0.10704948249E+02 -0.22386740775E+02 -0.96014604974E+01  0.26607332133E+02  0.00000000000E+00 0.  1.
</event>
<event>
 6    1  0.3701283E-005  0.8879058E+02  0.7818608E-02  0.1308585E+00
          2   -1    0    0  502    0  0.00000000000E+00  0.00000000000E+00  0.43461740288E+03  0.43461740288E+03  0.00000000000E+00 0. -1.
          1   -1    0    0  501    0 -0.00000000000E+00 -0.00000000000E+00 -0.86292528574E+03  0.86292528574E+03  0.00000000000E+00 0.  1.
          2    1    1    2  501    0 -0.21102333528E+02  0.34981598358E+02  0.10806699673E+03  0.11553136582E+03  0.00000000000E+00 0. -1.
          1    1    1    2  502    0  0.18550016357E+02  0.14809517694E+02 -0.84461367403E+03  0.84494714822E+03  0.00000000000E+00 0.  1.
         22    1    1    2    0    0  0.22411799595E+02 -0.84875994625E+02  0.25873068261E+03  0.27321747629E+03  0.00000000000E+00 0.  1.
         22    1    1    2    0    0 -0.19859482425E+02  0.35084878573E+02  0.49508111829E+02  0.63846698297E+02  0.00000000000E+00 0.  1.
</event>
<event>
 6    1  0.3701283E-005  0.3914731E+03  0.7818608E-02  0.1046773E+00
          2   -1    0    0  502    0  0.00000000000E+00  0.00000000000E+00  0.63142819288E+03  0.63142819288E+03  0.00000000000E+00 0.  1.
          1   -1    0    0  501    0 -0.00000000000E+00 -0.00000000000E+00 -0.12861703700E+03  0.12861703700E+03  0.00000000000E+00 0.  1.
          2    1    1    2  501    0  0.10870492427E+02 -0.19174073692E+02 -0.50873182420E+02  0.55442703732E+02  0.00000000000E+00 0.  1.
          1    1    1    2  502    0 -0.11666089728E+03 -0.79110255439E+02  0.26364646260E+02  0.14339906569E+03  0.00000000000E+00 0.  1.
         22    1    1    2    0    0  0.10099369154E+03  0.88620665392E+02  0.53253250367E+03  0.54922146310E+03  0.00000000000E+00 0.  1.
         22    1    1    2    0    0  0.47967133115E+01  0.96636637387E+01 -0.52128116336E+01  0.11981997353E+02  0.00000000000E+00 0.  1.
</event>
<event>
 6    1  0.3701283E-005  0.7224550E+02  0.7818608E-02  0.1353830E+00
          2   -1    0    0  502    0  0.00000000000E+00  0.00000000000E+00  0.47134300900E+03  0.47134300900E+03  0.00000000000E+00 0. -1.
          1   -1    0    0  501    0 -0.00000000000E+00 -0.00000000000E+00 -0.72775086012E+03  0.72775086012E+03  0.00000000000E+00 0. -1.
          2    1    1    2  501    0 -0.18447924914E+02 -0.29439503384E+02  0.26099414486E+02  0.43453305164E+02  0.00000000000E+00 0. -1.
          1    1    1    2  502    0 -0.23861138110E+02  0.51562498039E+01 -0.70832307414E+03  0.70874361950E+03  0.00000000000E+00 0. -1.
         22    1    1    2    0    0  0.63791915520E+02  0.37107813284E+02  0.41151192453E+03  0.41807710093E+03  0.00000000000E+00 0. -1.
         22    1    1    2    0    0 -0.21482852496E+02 -0.12824559704E+02  0.14303884002E+02  0.28819843520E+02  0.00000000000E+00 0. -1.
</event>
<event>
 6    1  0.3701283E-005  0.8681168E+02  0.7818608E-02  0.1320319E+00
          2   -1    0    0  502    0  0.00000000000E+00  0.00000000000E+00  0.71578827705E+03  0.71578827705E+03  0.00000000000E+00 0. -1.
          1   -1    0    0  501    0 -0.00000000000E+00 -0.00000000000E+00 -0.37819911626E+02  0.37819911626E+02  0.00000000000E+00 0. -1.
          2    1    1    2  501    0  0.26691120101E+02  0.30681061896E+02  0.26553046067E+03  0.26862644880E+03  0.00000000000E+00 0. -1.
          1    1    1    2  502    0 -0.31860821519E+02 -0.42901495508E+02 -0.15741467733E+01  0.53461464652E+02  0.00000000000E+00 0. -1.
         22    1    1    2    0    0 -0.57443754810E+02  0.78465282887E+01  0.17235066467E+03  0.18184087710E+03  0.00000000000E+00 0. -1.
         22    1    1    2    0    0  0.62613456227E+02  0.43739053237E+01  0.24166138686E+03  0.24967939813E+03  0.00000000000E+00 0. -1.
</event>
<event>
 6    1  0.3701283E-005  0.1713811E+03  0.7818608E-02  0.1176415E+00
          2   -1    0    0  502    0  0.00000000000E+00  0.00000000000E+00  0.16504202467E+02  0.16504202467E+02  0.00000000000E+00 0. -1.
          1   -1    0    0  501    0 -0.00000000000E+00 -0.00000000000E+00 -0.79401055432E+03  0.79401055432E+03  0.00000000000E+00 0. -1.
          2    1    1    2  501    0 -0.36120929504E+02 -0.14925451670E+02 -0.11148546274E+03  0.11813762762E+03  0.00000000000E+00 0. -1.
          1    1    1    2  502    0 -0.14647888288E+01  0.49104688246E+02 -0.28100981919E+03  0.28527168540E+03  0.00000000000E+00 0. -1.
         22    1    1    2    0    0 -0.17664244762E+02  0.21280613738E+02 -0.20877611927E+02  0.34652052520E+02  0.00000000000E+00 0. -1.
         22    1    1    2    0    0  0.55249963095E+02 -0.55459850314E+02 -0.36413345799E+03  0.37245339124E+03  0.00000000000E+00 0. -1.
</event>
<event>
 6    1  0.3701283E-005  0.2926949E+03  0.7818608E-02  0.1088950E+00
          2   -1    0    0  502    0  0.00000000000E+00  0.00000000000E+00  0.15178473534E+03  0.15178473534E+03  0.00000000000E+00 0. -1.
          1   -1    0    0  501    0 -0.00000000000E+00 -0.00000000000E+00 -0.28556461828E+03  0.28556461828E+03  0.00000000000E+00 0. -1.
          2    1    1    2  501    0  0.83620141229E+02  0.22547000545E+02  0.90834465513E+02  0.12550535996E+03  0.00000000000E+00 0. -1.
          1    1    1    2  502    0 -0.41008227546E+02 -0.59877219148E+02 -0.12497880731E+03  0.14452217261E+03  0.00000000000E+00 0. -1.
         22    1    1    2    0    0 -0.55883741925E+02  0.37564089079E+02 -0.12312876991E+03  0.14033797554E+03  0.00000000000E+00 0. -1.
         22    1    1    2    0    0  0.13271828241E+02 -0.23387047530E+00  0.23493228775E+02  0.26983845510E+02  0.00000000000E+00 0. -1.
</event>
<event>
 6    1  0.3701283E-005  0.6970394E+02  0.7818608E-02  0.1364618E+00
          2   -1    0    0  502    0  0.00000000000E+00  0.00000000000E+00  0.32956391571E+03  0.32956391571E+03  0.00000000000E+00 0.  1.
          1   -1    0    0  501    0 -0.00000000000E+00 -0.00000000000E+00 -0.54980454379E+03  0.54980454379E+03  0.00000000000E+00 0. -1.
          2    1    1    2  501    0  0.26840307484E+02  0.83734128430E+01  0.50728738831E+02  0.57999319754E+02  0.00000000000E+00 0.  1.
          1    1    1    2  502    0 -0.16032602538E+02  0.15302377449E+02 -0.53185808746E+03  0.53231967116E+03  0.00000000000E+00 0. -1.
         22    1    1    2    0    0 -0.60808050067E+02 -0.13260000717E+02  0.20061218085E+03  0.21004450404E+03  0.00000000000E+00 0.  1.
         22    1    1    2    0    0  0.50000345120E+02 -0.10415789575E+02  0.60276539705E+02  0.79004964549E+02  0.00000000000E+00 0.  1.
</event>
<event>
 6    1  0.3701283E-005  0.1567167E+03  0.7818608E-02  0.1274707E+00
          2   -1    0    0  502    0  0.00000000000E+00  0.00000000000E+00  0.18207261298E+03  0.18207261298E+03  0.00000000000E+00 0.  1.
          1   -1    0    0  501    0 -0.00000000000E+00 -0.00000000000E+00 -0.61938755133E+03  0.61938755133E+03  0.00000000000E+00 0.  1.
          2    1    1    2  501    0 -0.33688331081E+02 -0.10199554562E+02  0.32589183534E+01  0.35349046849E+02  0.00000000000E+00 0.  1.
          1    1    1    2  502    0  0.15575184481E+03  0.16998351020E+02 -0.54207907991E+03  0.56426705555E+03  0.00000000000E+00 0.  1.
         22    1    1    2    0    0 -0.10516830117E+03  0.16659395617E+02  0.11250289268E+02  0.10707229353E+03  0.00000000000E+00 0.  1.
         22    1    1    2    0    0 -0.16895212559E+02 -0.23458192075E+02  0.90254933944E+02  0.94771768392E+02  0.00000000000E+00 0.  1.
</event>
<event>
 6    1  0.3701283E-005  0.3010621E+03  0.7818608E-02  0.1084711E+00
          2   -1    0    0  502    0  0.00000000000E+00  0.00000000000E+00  0.32505970951E+03  0.32505970951E+03  0.00000000000E+00 0.  1.
          1   -1    0    0  501    0 -0.00000000000E+00 -0.00000000000E+00 -0.20567816136E+04  0.20567816136E+04  0.00000000000E+00 0. -1.
          2    1    1    2  501    0  0.10199871995E+03  0.93093464968E+02  0.20298628080E+03  0.24550674590E+03  0.00000000000E+00 0.  1.
          1    1    1    2  502    0 -0.16221929738E+03 -0.11999664845E+03 -0.19808305701E+04  0.19910811243E+04  0.00000000000E+00 0. -1.
         22    1    1    2    0    0  0.69206139518E+01  0.15408527279E+02 -0.39944208361E+02  0.43368852786E+02  0.00000000000E+00 0.  1.
         22    1    1    2    0    0  0.53299963483E+02  0.11494656205E+02  0.86066593540E+02  0.10188460017E+03  0.00000000000E+00 0. -1.
</event>
<event>
 6    1  0.3701283E-005  0.2661015E+03  0.7818608E-02  0.1103532E+00
          2   -1    0    0  502    0  0.00000000000E+00  0.00000000000E+00  0.77774673561E+03  0.77774673561E+03  0.00000000000E+00 0. -1.
          1   -1    0    0  501    0 -0.00000000000E+00 -0.00000000000E+00 -0.33471301698E+02  0.33471301698E+02  0.00000000000E+00 0. -1.
          2    1    1    2  501    0  0.59418548113E+02  0.54113082927E+02  0.88339311812E+02  0.11942622666E+03  0.00000000000E+00 0. -1.
          1    1    1    2  502    0 -0.21535906089E+02  0.79229914761E+01  0.24116550697E+01  0.23073472326E+02  0.00000000000E+00 0. -1.
         22    1    1    2    0    0 -0.74444176029E+01  0.37177603000E+02  0.18249200958E+03  0.18638918177E+03  0.00000000000E+00 0.  1.
         22    1    1    2    0    0 -0.30438224421E+02 -0.99213677403E+02  0.47103245745E+03  0.48232915655E+03  0.00000000000E+00 0. -1.
</event>
<event>
 6    1  0.3701283E-005  0.2594285E+03  0.7818608E-02  0.1107487E+00
          2   -1    0    0  502    0  0.00000000000E+00  0.00000000000E+00  0.41757775597E+03  0.41757775597E+03  0.00000000000E+00 0.  1.
          1   -1    0    0  501    0 -0.00000000000E+00 -0.00000000000E+00 -0.92379377945E+03  0.92379377945E+03  0.00000000000E+00 0.  1.
          2    1    1    2  501    0  0.10250092808E+02 -0.18236123472E+02  0.10949825622E+03  0.11147864691E+03  0.00000000000E+00 0.  1.
          1    1    1    2  502    0 -0.77666526334E+01  0.19501022405E+03 -0.87164008138E+03  0.89322211115E+03  0.00000000000E+00 0.  1.
         22    1    1    2    0    0 -0.39400576824E+01 -0.15152287705E+03  0.10681415219E+03  0.18542914936E+03  0.00000000000E+00 0.  1.
         22    1    1    2    0    0  0.14566175078E+01 -0.25251223525E+02  0.14911164949E+03  0.15124162800E+03  0.00000000000E+00 0.  1.
</event>
<event>
 6    1  0.3701283E-005  0.8437514E+02  0.7818608E-02  0.1318522E+00
          2   -1    0    0  502    0  0.00000000000E+00  0.00000000000E+00  0.39057606499E+03  0.39057606499E+03  0.00000000000E+00 0.  1.
          1   -1    0    0  501    0 -0.00000000000E+00 -0.00000000000E+00 -0.12451277523E+03  0.12451277523E+03  0.00000000000E+00 0. -1.
          2    1    1    2  501    0 -0.23346267392E+02  0.28401037653E+02  0.11220899610E+03  0.11807847368E+03  0.00000000000E+00 0.  1.
          1    1    1    2  502    0 -0.47696793140E+02 -0.41957902227E+01 -0.96481271442E+02  0.10770898045E+03  0.00000000000E+00 0. -1.
         22    1    1    2    0    0 -0.29923333378E+02  0.18405321106E+02  0.68844162236E+02  0.77289587911E+02  0.00000000000E+00 0.  1.
         22    1    1    2    0    0  0.10096639391E+03 -0.42610568537E+02  0.18149140287E+03  0.21201179817E+03  0.00000000000E+00 0.  1.
</event>
<event>
 6    1  0.3701283E-005  0.8309138E+02  0.7818608E-02  0.1345617E+00
          2   -1    0    0  502    0  0.00000000000E+00  0.00000000000E+00  0.18932748156E+03  0.18932748156E+03  0.00000000000E+00 0.  1.
          1   -1    0    0  501    0 -0.00000000000E+00 -0.00000000000E+00 -0.29421349554E+03  0.29421349554E+03  0.00000000000E+00 0.  1.
          2    1    1    2  501    0  0.62383266156E+02  0.26146513775E+02 -0.40694859440E+02  0.78939113649E+02  0.00000000000E+00 0.  1.
          1    1    1    2  502    0 -0.53973774275E+02 -0.32166238016E+02 -0.20442409959E+03  0.21386221656E+03  0.00000000000E+00 0.  1.
         22    1    1    2    0    0  0.42388056545E+02 -0.10840432016E+02  0.34853591500E+01  0.43890887806E+02  0.00000000000E+00 0. -1.
         22    1    1    2    0    0 -0.50797548426E+02  0.16860156258E+02  0.13674758591E+03  0.14684875909E+03  0.00000000000E+00 0.  1.
</event>
<event>
 6    1  0.3701283E-005  0.1475382E+03  0.7818608E-02  0.1204096E+00
          2   -1    0    0  502    0  0.00000000000E+00  0.00000000000E+00  0.34883995699E+03  0.34883995699E+03  0.00000000000E+00 0. -1.
          1   -1    0    0  501    0 -0.00000000000E+00 -0.00000000000E+00 -0.13928198903E+03  0.13928198903E+03  0.00000000000E+00 0. -1.
          2    1    1    2  501    0  0.18382220092E+01 -0.10778820021E+03  0.44251009664E+02  0.11653251486E+03  0.00000000000E+00 0. -1.
          1    1    1    2  502    0  0.61372692251E+01 -0.26472728992E+02 -0.69423404695E+02  0.74552535659E+02  0.00000000000E+00 0. -1.
         22    1    1    2    0    0 -0.18066615557E+02  0.15455218747E+03  0.22181968841E+03  0.27095526461E+03  0.00000000000E+00 0. -1.
         22    1    1    2    0    0  0.10091124323E+02 -0.20291258270E+02  0.12910674578E+02  0.26081630899E+02  0.00000000000E+00 0. -1.
</event>
<event>
 6    1  0.3701283E-005  0.1871200E+03  0.7818608E-02  0.1161085E+00
          2   -1    0    0  502    0  0.00000000000E+00  0.00000000000E+00  0.12911474242E+03  0.12911474242E+03  0.00000000000E+00 0. -1.
          1   -1    0    0  501    0 -0.00000000000E+00 -0.00000000000E+00 -0.11926145130E+03  0.11926145130E+03  0.00000000000E+00 0. -1.
          2    1    1    2  501    0  0.19052414593E+02  0.30044102917E+02 -0.23760103822E+02  0.42780663337E+02  0.00000000000E+00 0. -1.
          1    1    1    2  502    0 -0.23784022894E+02  0.19418104076E+02 -0.44006331434E+02  0.53659106563E+02  0.00000000000E+00 0. -1.
         22    1    1    2    0    0  0.12897551659E+02 -0.31811430221E+02 -0.28150360202E+02  0.44393205685E+02  0.00000000000E+00 0. -1.
         22    1    1    2    0    0 -0.81659433583E+01 -0.17650776771E+02  0.10577008658E+03  0.10754321813E+03  0.00000000000E+00 0. -1.
</event>
<event>
 6    1  0.3701283E-005  0.7122145E+02  0.7818608E-02  0.1364162E+00
          2   -1    0    0  502    0  0.00000000000E+00  0.00000000000E+00  0.24258951823E+03  0.24258951823E+03  0.00000000000E+00 0. -1.
          1   -1    0    0  501    0 -0.00000000000E+00 -0.00000000000E+00 -0.84021581491E+03  0.84021581491E+03  0.00000000000E+00 0.  1.
          2    1    1    2  501    0  0.32219120241E+01 -0.24748152231E+02  0.46021499976E+02  0.52352938943E+02  0.00000000000E+00 0. -1.
          1    1    1    2  502    0  0.10910340953E+02  0.24127988524E+02 -0.81752281164E+03  0.81795155292E+03  0.00000000000E+00 0.  1.
         22    1    1    2    0    0  0.20372831406E+02  0.50932375619E+02  0.11642485371E+03  0.12870083802E+03  0.00000000000E+00 0. -1.
         22    1    1    2    0    0 -0.34505084384E+02 -0.50312211912E+02  0.57450161274E+02  0.83800003259E+02  0.00000000000E+00 0.  1.
</event>
<event>
 6    1  0.3701283E-005  0.6615886E+03  0.7818608E-02  0.9785274E-01
          2   -1    0    0  502    0  0.00000000000E+00  0.00000000000E+00  0.72958113297E+03  0.72958113297E+03  0.00000000000E+00 0.  1.
          1   -1    0    0  501    0 -0.00000000000E+00 -0.00000000000E+00 -0.75194603127E+03  0.75194603127E+03  0.00000000000E+00 0. -1.
          2    1    1    2  501    0  0.12951972994E+03  0.26506693195E+03  0.72641037581E+02  0.30382981947E+03  0.00000000000E+00 0.  1.
          1    1    1    2  502    0 -0.24077211712E+03 -0.56751368056E+03 -0.38524820069E+03  0.72695196962E+03  0.00000000000E+00 0. -1.
         22    1    1    2    0    0  0.29717007608E+02  0.28074439666E+01  0.75044350664E+01  0.30778220034E+02  0.00000000000E+00 0.  1.
         22    1    1    2    0    0  0.81535379576E+02  0.29963930464E+03  0.28273782975E+03  0.41996715512E+03  0.00000000000E+00 0.  1.
</event>
<event>
 6    1  0.3701283E-005  0.2673500E+03  0.7818608E-02  0.1102806E+00
          2   -1    0    0  502    0  0.00000000000E+00  0.00000000000E+00  0.92053543063E+01  0.92053543063E+01  0.00000000000E+00 0.  1.
          1   -1    0    0  501    0 -0.00000000000E+00 -0.00000000000E+00 -0.31337408089E+04  0.31337408089E+04  0.00000000000E+00 0.  1.
          2    1    1    2  501    0 -0.34433510026E+02 -0.78422499958E+02 -0.12053728146E+04  0.12084119237E+04  0.00000000000E+00 0.  1.
          1    1    1    2  502    0  0.42262951846E+02 -0.80722217638E+01 -0.10991542653E+04  0.10999960986E+04  0.00000000000E+00 0.  1.
         22    1    1    2    0    0 -0.28187954302E+02  0.11577454026E+03 -0.61130825338E+03  0.62281304224E+03  0.00000000000E+00 0.  1.
         22    1    1    2    0    0  0.20358512482E+02 -0.29279818534E+02 -0.20870012128E+03  0.21172509872E+03  0.00000000000E+00 0.  1.
</event>
<event>
 6    1  0.3701283E-005  0.9458716E+02  0.7818608E-02  0.1297424E+00
          2   -1    0    0  502    0  0.00000000000E+00  0.00000000000E+00  0.54210761448E+03  0.54210761448E+03  0.00000000000E+00 0.  1.
          1   -1    0    0  501    0 -0.00000000000E+00 -0.00000000000E+00 -0.80085608556E+02  0.80085608556E+02  0.00000000000E+00 0.  1.
          2    1    1    2  501    0  0.18270793679E+02  0.43541174058E+02  0.10717626417E+03  0.11711706682E+03  0.00000000000E+00 0.  1.
          1    1    1    2  502    0  0.20378631912E+02  0.40820422429E+00 -0.62110040772E+02  0.65369047981E+02  0.00000000000E+00 0.  1.
         22    1    1    2    0    0 -0.57200741385E+02 -0.73293853697E+02  0.20727016672E+03  0.22716697783E+03  0.00000000000E+00 0.  1.
         22    1    1    2    0    0  0.18551315795E+02  0.29344475414E+02  0.20968561581E+03  0.21254013040E+03  0.00000000000E+00 0.  1.
</event>
<event>
 6    1  0.3701283E-005  0.1907816E+03  0.7818608E-02  0.1157758E+00
          2   -1    0    0  502    0  0.00000000000E+00  0.00000000000E+00  0.11461877358E+04  0.11461877358E+04  0.00000000000E+00 0.  1.
          1   -1    0    0  501    0 -0.00000000000E+00 -0.00000000000E+00 -0.18344571960E+02  0.18344571960E+02  0.00000000000E+00 0.  1.
          2    1    1    2  501    0  0.59954083058E+02 -0.12300513335E+02  0.18353951581E+03  0.19347493008E+03  0.00000000000E+00 0.  1.
          1    1    1    2  502    0 -0.92357245391E+02 -0.86281320548E+01  0.49265991247E+03  0.50131636198E+03  0.00000000000E+00 0.  1.
         22    1    1    2    0    0  0.17252352650E+02  0.64341958358E+02  0.37079633903E+03  0.37673260586E+03  0.00000000000E+00 0.  1.
         22    1    1    2    0    0  0.15150809683E+02 -0.43413312968E+02  0.80847396562E+02  0.93008409877E+02  0.00000000000E+00 0.  1.
</event>
<event>
 6    1  0.3701283E-005  0.2546164E+03  0.7818608E-02  0.1128801E+00
          2   -1    0    0  502    0  0.00000000000E+00  0.00000000000E+00  0.12779449090E+03  0.12779449090E+03  0.00000000000E+00 0.  1.
          1   -1    0    0  501    0 -0.00000000000E+00 -0.00000000000E+00 -0.21114002427E+04  0.21114002427E+04  0.00000000000E+00 0.  1.
          2    1    1    2  501    0  0.12773750879E+03  0.87887387723E+02 -0.87779813144E+02  0.17817508150E+03  0.00000000000E+00 0.  1.
          1    1    1    2  502    0 -0.26622006063E+03 -0.23401430242E+02 -0.18344656639E+04  0.18538298249E+04  0.00000000000E+00 0.  1.
         22    1    1    2    0    0  0.13289059294E+03 -0.90420298934E+02 -0.25752119453E+02  0.16278486357E+03  0.00000000000E+00 0.  1.
         22    1    1    2    0    0  0.55919589002E+01  0.25934341453E+02 -0.35608155298E+02  0.44404963626E+02  0.00000000000E+00 0.  1.
</event>
<event>
 6    1  0.3701283E-005  0.1454508E+03  0.7818608E-02  0.1206177E+00
          2   -1    0    0  502    0  0.00000000000E+00  0.00000000000E+00  0.10997218160E+02  0.10997218160E+02  0.00000000000E+00 0. -1.
          1   -1    0    0  501    0 -0.00000000000E+00 -0.00000000000E+00 -0.18588896828E+04  0.18588896828E+04  0.00000000000E+00 0.  1.
          2    1    1    2  501    0  0.14945282440E+02 -0.15050739491E+02 -0.57994975379E+02  0.61751950541E+02  0.00000000000E+00 0. -1.
          1    1    1    2  502    0 -0.26449475117E+02  0.39417397623E+02 -0.13587003991E+04  0.13595293600E+04  0.00000000000E+00 0.  1.
         22    1    1    2    0    0 -0.14832312771E+02 -0.60492177094E+02 -0.35366544398E+03  0.35910798829E+03  0.00000000000E+00 0.  1.
         22    1    1    2    0    0  0.26336505448E+02  0.36125518963E+02 -0.77531646135E+02  0.89497602158E+02  0.00000000000E+00 0. -1.
</event>
<event>
 6    1  0.3701283E-005  0.9488382E+02  0.7818608E-02  0.1295657E+00
          2   -1    0    0  502    0  0.00000000000E+00  0.00000000000E+00  0.34427003121E+03  0.34427003121E+03  0.00000000000E+00 0. -1.
          1   -1    0    0  501    0 -0.00000000000E+00 -0.00000000000E+00 -0.50702422922E+03  0.50702422922E+03  0.00000000000E+00 0. -1.
          2    1    1    2  501    0 -0.37850527146E+02 -0.60768354739E+02  0.96698289025E+02  0.12031630996E+03  0.00000000000E+00 0. -1.
          1    1    1    2  502    0  0.42502712050E+02  0.38365024333E+02 -0.47511357660E+03  0.47855121596E+03  0.00000000000E+00 0. -1.
         22    1    1    2    0    0 -0.54241439937E+02 -0.27270374299E+02  0.91765965758E+02  0.11003090290E+03  0.00000000000E+00 0. -1.
         22    1    1    2    0    0  0.49589255032E+02  0.49673704706E+02  0.12389512382E+03  0.14239583161E+03  0.00000000000E+00 0. -1.
</event>
<event>
 6    1  0.3701283E-005  0.9239649E+02  0.7818608E-02  0.1300779E+00
          2   -1    0    0  502    0  0.00000000000E+00  0.00000000000E+00  0.38657347076E+03  0.38657347076E+03  0.00000000000E+00 0. -1.
          1   -1    0    0  501    0 -0.00000000000E+00 -0.00000000000E+00 -0.65646909803E+03  0.65646909803E+03  0.00000000000E+00 0. -1.
          2    1    1    2  501    0  0.44498264964E+02 -0.39247693254E+02  0.57177082170E+02  0.82399610048E+02  0.00000000000E+00 0. -1.
          1    1    1    2  502    0 -0.47444525780E+00  0.22606591778E+02 -0.62993502529E+03  0.63034071674E+03  0.00000000000E+00 0. -1.
         22    1    1    2    0    0  0.38687886176E+02 -0.20520161018E+01  0.47890164937E+02  0.61598954574E+02  0.00000000000E+00 0. -1.
         22    1    1    2    0    0 -0.82711705882E+02  0.18693117578E+02  0.25497215091E+03  0.26870328743E+03  0.00000000000E+00 0. -1.
</event>
<event>
 6    1  0.3701283E-005  0.5327421E+02  0.7818608E-02  0.1431212E+00
          2   -1    0    0  502    0  0.00000000000E+00  0.00000000000E+00  0.69629976540E+02  0.69629976540E+02  0.00000000000E+00 0. -1.
          1   -1    0    0  501    0 -0.00000000000E+00 -0.00000000000E+00 -0.30521283375E+04  0.30521283375E+04  0.00000000000E+00 0.  1.
          2    1    1    2  501    0  0.56908988188E+02 -0.36312485955E+02 -0.16018722496E+03  0.17383088510E+03  0.00000000000E+00 0. -1.
          1    1    1    2  502    0 -0.19788026595E+02  0.41238063774E+02 -0.28130632552E+04  0.28134350928E+04  0.00000000000E+00 0.  1.
         22    1    1    2    0    0 -0.49000782004E+02  0.94272293894E+01  0.51046972984E+02  0.71384471293E+02  0.00000000000E+00 0. -1.
         22    1    1    2    0    0  0.11879820411E+02 -0.14352807208E+02 -0.60294853844E+02  0.63107864865E+02  0.00000000000E+00 0. -1.
</event>
<event>
 6    1  0.3701283E-005  0.1728881E+03  0.7818608E-02  0.1174869E+00
          2   -1    0    0  502    0  0.00000000000E+00  0.00000000000E+00  0.49401748139E+03  0.49401748139E+03  0.00000000000E+00 0. -1.
          1   -1    0    0  501    0 -0.00000000000E+00 -0.00000000000E+00 -0.39461088997E+02  0.39461088997E+02  0.00000000000E+00 0. -1.
          2    1    1    2  501    0  0.13399525187E+02  0.19673984226E+02  0.13585796373E+02  0.27407787099E+02  0.00000000000E+00 0. -1.
          1    1    1    2  502    0 -0.83109823759E+02 -0.55544494819E+02  0.22407117320E+03  0.24535754394E+03  0.00000000000E+00 0. -1.
         22    1    1    2    0    0 -0.32363399815E+02  0.10077397707E+02  0.26048013301E+02  0.42748597510E+02  0.00000000000E+00 0.  1.
         22    1    1    2    0    0  0.10207369839E+03  0.25793112886E+02  0.19085140952E+03  0.21796464183E+03  0.00000000000E+00 0.  1.
</event>
<event>
 6    1  0.3701283E-005  0.2485712E+03  0.7818608E-02  0.1114211E+00
          2   -1    0    0  502    0  0.00000000000E+00  0.00000000000E+00  0.39231265793E+03  0.39231265793E+03  0.00000000000E+00 0.  1.
          1   -1    0    0  501    0 -0.00000000000E+00 -0.00000000000E+00 -0.10501142251E+03  0.10501142251E+03  0.00000000000E+00 0.  1.
          2    1    1    2  501    0 -0.95902453780E+02 -0.65576628578E+02  0.13120257581E+03  0.17524751284E+03  0.00000000000E+00 0.  1.
          1    1    1    2  502    0  0.13465475389E+03  0.33128875817E+02  0.34733343081E+02  0.14295394461E+03  0.00000000000E+00 0.  1.
         22    1    1    2    0    0  0.25343415222E+02 -0.14525210418E+01  0.10052199289E+03  0.10367771973E+03  0.00000000000E+00 0. -1.
         22    1    1    2    0    0 -0.64095715336E+02  0.33900273802E+02  0.20843323641E+02  0.75444903265E+02  0.00000000000E+00 0.  1.
</event>
<event>
 6    1  0.3701283E-005  0.9809168E+02  0.7818608E-02  0.1315222E+00
          2   -1    0    0  502    0  0.00000000000E+00  0.00000000000E+00  0.80694253298E+03  0.80694253298E+03  0.00000000000E+00 0.  1.
          1   -1    0    0  501    0 -0.00000000000E+00 -0.00000000000E+00 -0.15166733132E+03  0.15166733132E+03  0.00000000000E+00 0.  1.
          2    1    1    2  501    0 -0.23214143288E+02 -0.10629216473E+02  0.11456745550E+03  0.11737793043E+03  0.00000000000E+00 0.  1.
          1    1    1    2  502    0  0.77133846393E+02  0.57572103143E+02 -0.12651619929E+03  0.15896705949E+03  0.00000000000E+00 0.  1.
         22    1    1    2    0    0 -0.86664259153E+02 -0.21110529141E+01  0.38626142407E+03  0.39586997623E+03  0.00000000000E+00 0.  1.
         22    1    1    2    0    0  0.32744556047E+02 -0.44831833756E+02  0.28096252138E+03  0.28639489816E+03  0.00000000000E+00 0.  1.
</event>
<event>
 6    1  0.3701283E-005  0.2271000E+03  0.7818608E-02  0.1128698E+00
          2   -1    0    0  502    0  0.00000000000E+00  0.00000000000E+00  0.99255826005E+02  0.99255826005E+02  0.00000000000E+00 0. -1.
          1   -1    0    0  501    0 -0.00000000000E+00 -0.00000000000E+00 -0.51857175023E+03  0.51857175023E+03  0.00000000000E+00 0. -1.
          2    1    1    2  501    0  0.51044719255E+02  0.35378859919E+02 -0.12342490009E+03  0.13816994266E+03  0.00000000000E+00 0. -1.
          1    1    1    2  502    0 -0.93569115847E+02 -0.13699853990E+03 -0.32176677279E+02  0.16899443167E+03  0.00000000000E+00 0. -1.
         22    1    1    2    0    0 -0.25158536572E+02 -0.13905762538E+02 -0.64732420786E+02  0.70828020550E+02  0.00000000000E+00 0. -1.
         22    1    1    2    0    0  0.67682933164E+02  0.11552544252E+03 -0.19898192607E+03  0.23983518135E+03  0.00000000000E+00 0. -1.
</event>
<event>
 6    1  0.3701283E-005  0.3570517E+03  0.7818608E-02  0.1059757E+00
          2   -1    0    0  502    0  0.00000000000E+00  0.00000000000E+00  0.65113677561E+03  0.65113677561E+03  0.00000000000E+00 0.  1.
          1   -1    0    0  501    0 -0.00000000000E+00 -0.00000000000E+00 -0.18234077906E+03  0.18234077906E+03  0.00000000000E+00 0.  1.
          2    1    1    2  501    0  0.12405241785E+03  0.44772224550E+02  0.61217578393E+01  0.13202662756E+03  0.00000000000E+00 0.  1.
          1    1    1    2  502    0 -0.29724432776E+03 -0.68091434979E+02  0.33285334409E+03  0.45142217776E+03  0.00000000000E+00 0.  1.
         22    1    1    2    0    0  0.26901246528E+02  0.55561497562E+02  0.22305292846E+02  0.65637513398E+02  0.00000000000E+00 0.  1.
         22    1    1    2    0    0  0.14629066337E+03 -0.32242287133E+02  0.10751560176E+03  0.18439123594E+03  0.00000000000E+00 0.  1.
</event>
<event>
 6    1  0.3701283E-005  0.1658864E+03  0.7818608E-02  0.1182207E+00
          2   -1    0    0  502    0  0.00000000000E+00  0.00000000000E+00  0.33696878260E+02  0.33696878260E+02  0.00000000000E+00 0.  1.
          1   -1    0    0  501    0 -0.00000000000E+00 -0.00000000000E+00 -0.13366230594E+04  0.13366230594E+04  0.00000000000E+00 0.  1.
          2    1    1    2  501    0 -0.39712260175E+01 -0.34365955509E+02 -0.52564958752E+02  0.62927453649E+02  0.00000000000E+00 0.  1.
          1    1    1    2  502    0 -0.38306005349E+02  0.12956748548E+02 -0.11298854960E+04  0.11306088897E+04  0.00000000000E+00 0.  1.
         22    1    1    2    0    0  0.32779190402E+02  0.65477974939E+02 -0.10713925165E+03  0.12977156764E+03  0.00000000000E+00 0.  1.
         22    1    1    2    0    0  0.94980409647E+01 -0.44068767978E+02 -0.13336474737E+02  0.47012026671E+02  0.00000000000E+00 0.  1.
</event>
<event>
 6    1  0.3701283E-005  0.1036587E+03  0.7818608E-02  0.1276274E+00
          2   -1    0    0  502    0  0.00000000000E+00  0.00000000000E+00  0.27500115900E+03  0.27500115900E+03  0.00000000000E+00 0. -1.
          1   -1    0    0  501    0 -0.00000000000E+00 -0.00000000000E+00 -0.15404404570E+04  0.15404404570E+04  0.00000000000E+00 0.  1.
          2    1    1    2  501    0 -0.71880864223E+02 -0.67030549541E+02  0.12112789230E+02  0.99028646745E+02  0.00000000000E+00 0. -1.
          1    1    1    2  502    0  0.29550472047E+02  0.24921674813E+02 -0.14748504976E+04  0.14753570112E+04  0.00000000000E+00 0.  1.
         22    1    1    2    0    0 -0.86603668950E+01 -0.33072500227E+02  0.14911497303E+02  0.37298055953E+02  0.00000000000E+00 0.  1.
         22    1    1    2    0    0  0.50990759071E+02  0.75181374955E+02  0.18238691301E+03  0.20375790215E+03  0.00000000000E+00 0. -1.
</event>
<event>
 6    1  0.3701283E-005  0.3419806E+03  0.7818608E-02  0.1065956E+00
          2   -1    0    0  502    0  0.00000000000E+00  0.00000000000E+00  0.29932249868E+03  0.29932249868E+03  0.00000000000E+00 0. -1.
          1   -1    0    0  501    0 -0.00000000000E+00 -0.00000000000E+00 -0.28970796261E+03  0.28970796261E+03  0.00000000000E+00 0.  1.
          2    1    1    2  501    0  0.51471487967E+02 -0.39949765128E+02 -0.12264961628E+03  0.13888205853E+03  0.00000000000E+00 0. -1.
          1    1    1    2  502    0 -0.21713952171E+03 -0.21124559838E+01  0.94267089192E+02  0.23672836430E+03  0.00000000000E+00 0.  1.
         22    1    1    2    0    0  0.70938848995E+02  0.37767057539E+02  0.76612745811E+02  0.11103235453E+03  0.00000000000E+00 0. -1.
         22    1    1    2    0    0  0.94729184752E+02  0.42951635724E+01 -0.38615682646E+02  0.10238768393E+03  0.00000000000E+00 0. -1.
</event>
<event>
 6    1  0.3701283E-005  0.8243932E+02  0.7818608E-02  0.1326138E+00
          2   -1    0    0  502    0  0.00000000000E+00  0.00000000000E+00  0.22386599149E+02  0.22386599149E+02  0.00000000000E+00 0. -1.
          1   -1    0    0  501    0 -0.00000000000E+00 -0.00000000000E+00 -0.52204114916E+03  0.52204114916E+03  0.00000000000E+00 0. -1.
          2    1    1    2  501    0 -0.17258576896E+02 -0.32859891151E+02 -0.14820579549E+03  0.15278281559E+03  0.00000000000E+00 0. -1.
          1    1    1    2  502    0 -0.64910923244E+01  0.19905584697E+02 -0.15641846579E+03  0.15781350710E+03  0.00000000000E+00 0. -1.
         22    1    1    2    0    0  0.62706746044E+02  0.41613393080E+02 -0.84332821567E+02  0.11303024054E+03  0.00000000000E+00 0. -1.
         22    1    1    2    0    0 -0.38957076824E+02 -0.28659086626E+02 -0.11069746716E+03  0.12080118508E+03  0.00000000000E+00 0. -1.
</event>
<event>
 6    1  0.3701283E-005  0.2186262E+03  0.7818608E-02  0.1151471E+00
          2   -1    0    0  502    0  0.00000000000E+00  0.00000000000E+00  0.16750003691E+03  0.16750003691E+03  0.00000000000E+00 0. -1.
          1   -1    0    0  501    0 -0.00000000000E+00 -0.00000000000E+00 -0.79167197508E+03  0.79167197508E+03  0.00000000000E+00 0.  1.
          2    1    1    2  501    0 -0.81061071034E+02 -0.93542217765E+02  0.97528147136E+01  0.12416183446E+03  0.00000000000E+00 0. -1.
          1    1    1    2  502    0  0.39102871316E+02  0.23409494544E+03 -0.59306312785E+03  0.63879053815E+03  0.00000000000E+00 0.  1.
         22    1    1    2    0    0  0.80984105034E+02 -0.12263598296E+03 -0.43298833012E+02  0.15320835005E+03  0.00000000000E+00 0. -1.
         22    1    1    2    0    0 -0.39025905316E+02 -0.17916744712E+02  0.24372079791E+01  0.43011289327E+02  0.00000000000E+00 0. -1.
</event>
<event>
 6    1  0.3701283E-005  0.2171441E+03  0.7818608E-02  0.1136030E+00
          2   -1    0    0  502    0  0.00000000000E+00  0.00000000000E+00  0.15071440201E+03  0.15071440201E+03  0.00000000000E+00 0. -1.
          1   -1    0    0  501    0 -0.00000000000E+00 -0.00000000000E+00 -0.22313336706E+03  0.22313336706E+03  0.00000000000E+00 0. -1.
          2    1    1    2  501    0 -0.63227535966E+02 -0.26080833409E+02 -0.15967341735E+02  0.70234515572E+02  0.00000000000E+00 0. -1.
          1    1    1    2  502    0  0.98782333994E+02 -0.18383971454E+02 -0.11484782399E+03  0.15259732170E+03  0.00000000000E+00 0. -1.
         22    1    1    2    0    0  0.25157322116E+01 -0.24555607622E+02  0.67306560734E+02  0.71690165937E+02  0.00000000000E+00 0. -1.
         22    1    1    2    0    0 -0.38070530240E+02  0.69020412486E+02 -0.89103600504E+01  0.79325765856E+02  0.00000000000E+00 0. -1.
</event>
<event>
 6    1  0.3701283E-005  0.2059668E+03  0.7818608E-02  0.1196691E+00
          2   -1    0    0  502    0  0.00000000000E+00  0.00000000000E+00  0.35600540945E+03  0.35600540945E+03  0.00000000000E+00 0. -1.
          1   -1    0    0  501    0 -0.00000000000E+00 -0.00000000000E+00 -0.68457611524E+03  0.68457611524E+03  0.00000000000E+00 0.  1.
          2    1    1    2  501    0 -0.73429683769E+02 -0.84245518894E+01  0.24561318198E+02  0.77885492132E+02  0.00000000000E+00 0. -1.
          1    1    1    2  502    0  0.19354411337E+03 -0.70283175949E+02 -0.60907517079E+03  0.64293982013E+03  0.00000000000E+00 0.  1.
         22    1    1    2    0    0 -0.18258582946E+02  0.60204037472E+02  0.18192006266E+03  0.19249106779E+03  0.00000000000E+00 0. -1.
         22    1    1    2    0    0 -0.10185584666E+03  0.18503690366E+02  0.74023084139E+02  0.12726514464E+03  0.00000000000E+00 0. -1.
</event>
<event>
 6    1  0.3701283E-005  0.6675474E+02  0.7818608E-02  0.1372805E+00
          2   -1    0    0  502    0  0.00000000000E+00  0.00000000000E+00  0.89932276017E+02  0.89932276017E+02  0.00000000000E+00 0. -1.
          1   -1    0    0  501    0 -0.00000000000E+00 -0.00000000000E+00 -0.14880746960E+03  0.14880746960E+03  0.00000000000E+00 0.  1.
          2    1    1    2  501    0  0.15784677107E+02  0.18611703880E+02  0.16973218094E+02  0.29726111168E+02  0.00000000000E+00 0. -1.
          1    1    1    2  502    0  0.99606711029E+01 -0.20970713918E+02 -0.77034913878E+02  0.80457216999E+02  0.00000000000E+00 0.  1.
         22    1    1    2    0    0 -0.64479532799E+02 -0.16128080929E+02 -0.32508721386E+02  0.73990148740E+02  0.00000000000E+00 0.  1.
         22    1    1    2    0    0  0.38734184589E+02  0.18487090966E+02  0.33695223588E+02  0.54566268709E+02  0.00000000000E+00 0. -1.
</event>
<event>
 6    1  0.3701283E-005  0.1989881E+03  0.7818608E-02  0.1150596E+00
          2   -1    0    0  502    0  0.00000000000E+00  0.00000000000E+00  0.37295620802E+03  0.37295620802E+03  0.00000000000E+00 0. -1.
          1   -1    0    0  501    0 -0.00000000000E+00 -0.00000000000E+00 -0.18186084931E+03  0.18186084931E+03  0.00000000000E+00 0.  1.
          2    1    1    2  501    0 -0.27660932822E+02 -0.41225142047E+02  0.63568634192E+02  0.80657366647E+02  0.00000000000E+00 0. -1.
          1    1    1    2  502    0  0.87492470200E+02 -0.98579021491E+01 -0.14184178470E+03  0.16694670546E+03  0.00000000000E+00 0.  1.
         22    1    1    2    0    0 -0.80412508657E+02  0.63590066077E+02  0.26304061619E+03  0.28231229838E+03  0.00000000000E+00 0. -1.
         22    1    1    2    0    0  0.20580971279E+02 -0.12507021882E+02  0.63278930269E+01  0.24900686844E+02  0.00000000000E+00 0. -1.
</event>
<event>
 6    1  0.3701283E-005  0.1032268E+03  0.7818608E-02  0.1276939E+00
          2   -1    0    0  502    0  0.00000000000E+00  0.00000000000E+00  0.40813258288E+03  0.40813258288E+03  0.00000000000E+00 0. -1.
          1   -1    0    0  501    0 -0.00000000000E+00 -0.00000000000E+00 -0.62702937188E+02  0.62702937188E+02  0.00000000000E+00 0. -1.
          2    1    1    2  501    0  0.11938322276E+02  0.59700108543E+02  0.27128452301E+02  0.66652677539E+02  0.00000000000E+00 0. -1.
          1    1    1    2  502    0  0.30030259483E+02 -0.61440907351E+01 -0.21297952533E+02  0.37325180746E+02  0.00000000000E+00 0. -1.
         22    1    1    2    0    0  0.19863052098E+02  0.25101054211E+02  0.41460627504E+02  0.52379264926E+02  0.00000000000E+00 0.  1.
         22    1    1    2    0    0 -0.61831633857E+02 -0.78657072020E+02  0.29813851842E+03  0.31447839686E+03  0.00000000000E+00 0. -1.
</event>
<event>
 6    1  0.3701283E-005  0.8830326E+02  0.7818608E-02  0.1307922E+00
          2   -1    0    0  502    0  0.00000000000E+00  0.00000000000E+00  0.30558701333E+03  0.30558701333E+03  0.00000000000E+00 0. -1.
          1   -1    0    0  501    0 -0.00000000000E+00 -0.00000000000E+00 -0.71707683677E+02  0.71707683677E+02  0.00000000000E+00 0. -1.
          2    1    1    2  501    0  0.52811255029E+01  0.36604986560E+02  0.96319847302E+01  0.38217672057E+02  0.00000000000E+00 0. -1.
          1    1    1    2  502    0  0.64049007205E+02 -0.42024517046E+01 -0.86890123505E+01  0.64772176588E+02  0.00000000000E+00 0. -1.
         22    1    1    2    0    0 -0.85596950261E+02 -0.56551678334E+02  0.21938836081E+03  0.24219038600E+03  0.00000000000E+00 0. -1.
         22    1    1    2    0    0  0.16266817552E+02  0.24149143479E+02  0.13547996464E+02  0.32114462353E+02  0.00000000000E+00 0. -1.
</event>
<event>
 6    1  0.3701283E-005  0.2674837E+03  0.7818608E-02  0.1102728E+00
          2   -1    0    0  502    0  0.00000000000E+00  0.00000000000E+00  0.88454648452E+02  0.88454648452E+02  0.00000000000E+00 0. -1.
          1   -1    0    0  501    0 -0.00000000000E+00 -0.00000000000E+00 -0.71944124527E+03  0.71944124527E+03  0.00000000000E+00 0.  1.
          2    1    1    2  501    0  0.46065361613E+01 -0.28593279148E+02 -0.14646439454E+03  0.14930041747E+03  0.00000000000E+00 0. -1.
          1    1    1    2  502    0  0.69049384484E+02  0.22393199173E+02 -0.50858041841E+03  0.51373467360E+03  0.00000000000E+00 0.  1.
         22    1    1    2    0    0  0.31486610939E+02 -0.15811683463E+02  0.92097388005E+01  0.36417513522E+02  0.00000000000E+00 0. -1.
         22    1    1    2    0    0 -0.10514253158E+03  0.22011763438E+02  0.14848477338E+02  0.10844328913E+03  0.00000000000E+00 0. -1.
</event>
<event>
 6    1  0.3701283E-005  0.8238535E+02  0.7818608E-02  0.1329783E+00
          2   -1    0    0  502    0  0.00000000000E+00  0.00000000000E+00  0.40503857321E+03  0.40503857321E+03  0.00000000000E+00 0. -1.
          1   -1    0    0  501    0 -0.00000000000E+00 -0.00000000000E+00 -0.17527616114E+03  0.17527616114E+03  0.00000000000E+00 0. -1.
          2    1    1    2  501    0  0.26170066811E+02  0.23970984763E+02  0.58222677184E+02  0.68186220352E+02  0.00000000000E+00 0. -1.
          1    1    1    2  502    0  0.52824361036E+01 -0.22627065190E+02 -0.15798649593E+03  0.15968600786E+03  0.00000000000E+00 0. -1.
         22    1    1    2    0    0 -0.73918734134E+02  0.11715966961E+02  0.25421330358E+03  0.26500122048E+03  0.00000000000E+00 0. -1.
         22    1    1    2    0    0  0.42466231220E+02 -0.13059886535E+02  0.75312927232E+02  0.87441285664E+02  0.00000000000E+00 0.  1.
</event>
<event>
 6    1  0.3701283E-005  0.8833046E+02  0.7818608E-02  0.1313764E+00
          2   -1    0    0  502    0  0.00000000000E+00  0.00000000000E+00  0.38332525794E+03  0.38332525794E+03  0.00000000000E+00 0.  1.
          1   -1    0    0  501    0 -0.00000000000E+00 -0.00000000000E+00 -0.53816923208E+03  0.53816923208E+03  0.00000000000E+00 0.  1.
          2    1    1    2  501    0 -0.12893191146E+02 -0.33833981704E+02  0.33589306863E+02  0.49388401790E+02  0.00000000000E+00 0.  1.
          1    1    1    2  502    0  0.29401738046E+02 -0.62702471215E+01 -0.51691771123E+03  0.51779117256E+03  0.00000000000E+00 0.  1.
         22    1    1    2    0    0 -0.43109960567E+02  0.72200248887E+02  0.26779451680E+03  0.28068709957E+03  0.00000000000E+00 0.  1.
         22    1    1    2    0    0  0.26601413667E+02 -0.32096020062E+02  0.60689913419E+02  0.73627816100E+02  0.00000000000E+00 0.  1.
</event>
<event>
 6    1  0.3701283E-005  0.1939263E+03  0.7818608E-02  0.1213723E+00
          2   -1    0    0  502    0  0.00000000000E+00  0.00000000000E+00  0.13164880634E+04  0.13164880634E+04  0.00000000000E+00 0. -1.
          1   -1    0    0  501    0 -0.00000000000E+00 -0.00000000000E+00 -0.33456807560E+03  0.33456807560E+03  0.00000000000E+00 0.  1.
          2    1    1    2  501    0 -0.74032228622E+02  0.96441167429E+02  0.54350693616E+03  0.55693936771E+03  0.00000000000E+00 0. -1.
          1    1    1    2  502    0  0.12668773224E+03 -0.13933028101E+03 -0.29373576953E+03  0.34891748453E+03  0.00000000000E+00 0.  1.
         22    1    1    2    0    0 -0.20598639949E+02  0.84131491851E+02  0.45575703124E+03  0.46391473722E+03  0.00000000000E+00 0. -1.
         22    1    1    2    0    0 -0.32056863669E+02 -0.41242378274E+02  0.27639178990E+03  0.28128454952E+03  0.00000000000E+00 0.  1.
</event>
<event>
 6    1  0.3701283E-005  0.7433364E+02  0.7818608E-02  0.1347212E+00
          2   -1    0    0  502    0  0.00000000000E+00  0.00000000000E+00  0.70665443546E+02  0.70665443546E+02  0.00000000000E+00 0. -1.
          1   -1    0    0  501    0 -0.00000000000E+00 -0.00000000000E+00 -0.15470345317E+03  0.15470345317E+03  0.00000000000E+00 0. -1.
          2    1    1    2  501    0 -0.17739547028E+02 -0.12178176813E+02 -0.29159409958E+02  0.36239077090E+02  0.00000000000E+00 0. -1.
          1    1    1    2  502    0 -0.20459008266E+02  0.14064280107E+02  0.28114892725E+02  0.37507628385E+02  0.00000000000E+00 0. -1.
         22    1    1    2    0    0  0.80736545565E+02  0.36638637724E+01 -0.37510237205E+02  0.89100121115E+02  0.00000000000E+00 0. -1.
         22    1    1    2    0    0 -0.42537990271E+02 -0.55499670666E+01 -0.45483255190E+02  0.62522070131E+02  0.00000000000E+00 0. -1.
</event>
<event>
 6    1  0.3701283E-005  0.3196086E+03  0.7818608E-02  0.1116207E+00
          2   -1    0    0  502    0  0.00000000000E+00  0.00000000000E+00  0.17418652802E+03  0.17418652802E+03  0.00000000000E+00 0. -1.
          1   -1    0    0  501    0 -0.00000000000E+00 -0.00000000000E+00 -0.10092066227E+04  0.10092066227E+04  0.00000000000E+00 0. -1.
          2    1    1    2  501    0 -0.31852581513E+03  0.91323904144E+02 -0.18510066145E+03  0.37955369217E+03  0.00000000000E+00 0. -1.
          1    1    1    2  502    0  0.26150459280E+03 -0.15321349889E+03 -0.54060252036E+03  0.61976617632E+03  0.00000000000E+00 0. -1.
         22    1    1    2    0    0  0.90264840693E+02  0.64931297520E+02 -0.99669907320E+02  0.14932483145E+03  0.00000000000E+00 0. -1.
         22    1    1    2    0    0 -0.33243618363E+02 -0.30417027776E+01 -0.96470055932E+01  0.34748450822E+02  0.00000000000E+00 0. -1.
</event>
<event>
 6    1  0.3701283E-005  0.4533973E+02  0.7818608E-02  0.1479344E+00
          2   -1    0    0  502    0  0.00000000000E+00  0.00000000000E+00  0.35536440090E+02  0.35536440090E+02  0.00000000000E+00 0. -1.
          1   -1    0    0  501    0 -0.00000000000E+00 -0.00000000000E+00 -0.51299142580E+03  0.51299142580E+03  0.00000000000E+00 0. -1.
          2    1    1    2  501    0 -0.23106032260E+02 -0.11774818137E+02 -0.12568283863E+03  0.12833047571E+03  0.00000000000E+00 0. -1.
          1    1    1    2  502    0  0.16436350565E+02 -0.16618807146E+02 -0.26562019802E+03  0.26664663502E+03  0.00000000000E+00 0. -1.
         22    1    1    2    0    0  0.17355849853E+01  0.46821810115E+02  0.16093452737E+02  0.49540825374E+02  0.00000000000E+00 0. -1.
         22    1    1    2    0    0  0.49340967097E+01 -0.18428184832E+02 -0.10224540179E+03  0.10400992979E+03  0.00000000000E+00 0. -1.
</event>
<event>
 6    1  0.3701283E-005  0.7297199E+02  0.7818608E-02  0.1352139E+00
          2   -1    0    0  502    0  0.00000000000E+00  0.00000000000E+00  0.18066484613E+03  0.18066484613E+03  0.00000000000E+00 0. -1.
          1   -1    0    0  501    0 -0.00000000000E+00 -0.00000000000E+00 -0.29979456319E+03  0.29979456319E+03  0.00000000000E+00 0.  1.
          2    1    1    2  501    0  0.27425683942E+02  0.44728653856E+01 -0.17426878312E+02  0.32800468779E+02  0.00000000000E+00 0. -1.
          1    1    1    2  502    0  0.31168393213E+02  0.21597045759E+02 -0.24488455749E+03  0.24780304199E+03  0.00000000000E+00 0.  1.
         22    1    1    2    0    0  0.80167109633E+01  0.12296524882E+02 -0.16833371663E+02  0.22334604998E+02  0.00000000000E+00 0. -1.
         22    1    1    2    0    0 -0.66610788118E+02 -0.38366436026E+02  0.16001509040E+03  0.17752129355E+03  0.00000000000E+00 0. -1.
</event>
<event>
 6    1  0.3701283E-005  0.4882005E+03  0.7818608E-02  0.1016905E+00
          2   -1    0    0  502    0  0.00000000000E+00  0.00000000000E+00  0.29639705724E+03  0.29639705724E+03  0.00000000000E+00 0. -1.
          1   -1    0    0  501    0 -0.00000000000E+00 -0.00000000000E+00 -0.63290213736E+03  0.63290213736E+03  0.00000000000E+00 0.  1.
          2    1    1    2  501    0  0.11297673044E+03 -0.19797466951E+02 -0.75432761732E+01  0.11494599746E+03  0.00000000000E+00 0. -1.
          1    1    1    2  502    0  0.14076599821E+03  0.26252751476E+03 -0.32513936719E+03  0.44096640502E+03  0.00000000000E+00 0.  1.
         22    1    1    2    0    0 -0.26606147141E+03 -0.22964761358E+03  0.85536744662E+01  0.35156777204E+03  0.00000000000E+00 0. -1.
         22    1    1    2    0    0  0.12318742764E+02 -0.13082434221E+02 -0.12376111220E+02  0.21819020082E+02  0.00000000000E+00 0.  1.
</event>
<event>
 6    1  0.3701283E-005  0.5439935E+02  0.7818608E-02  0.1455262E+00
          2   -1    0    0  502    0  0.00000000000E+00  0.00000000000E+00  0.18585770893E+03  0.18585770893E+03  0.00000000000E+00 0. -1.
          1   -1    0    0  501    0 -0.00000000000E+00 -0.00000000000E+00 -0.26722732475E+03  0.26722732475E+03  0.00000000000E+00 0.  1.
          2    1    1    2  501    0 -0.28736305183E+02  0.17754062820E+02 -0.57546877086E+02  0.66727992961E+02  0.00000000000E+00 0. -1.
          1    1    1    2  502    0  0.64307278882E+02  0.55739902089E+01 -0.17457781137E+03  0.18612873960E+03  0.00000000000E+00 0.  1.
         22    1    1    2    0    0 -0.23189871341E+02 -0.24239768159E+02  0.17220650695E+03  0.17544348813E+03  0.00000000000E+00 0. -1.
         22    1    1    2    0    0 -0.12381102358E+02  0.91171512949E+00 -0.21451434316E+02  0.24784812976E+02  0.00000000000E+00 0.  1.
</event>
<event>
 6    1  0.3701283E-005  0.1068723E+03  0.7818608E-02  0.1267527E+00
          2   -1    0    0  502    0  0.00000000000E+00  0.00000000000E+00  0.18175108941E+03  0.18175108941E+03  0.00000000000E+00 0. -1.
          1   -1    0    0  501    0 -0.00000000000E+00 -0.00000000000E+00 -0.15766868267E+03  0.15766868267E+03  0.00000000000E+00 0. -1.
          2    1    1    2  501    0  0.70040116166E+02  0.26813832577E+02  0.55511160556E+02  0.93306422267E+02  0.00000000000E+00 0. -1.
          1    1    1    2  502    0  0.57669445551E+01 -0.37866967276E+02 -0.79645981920E+02  0.88377866551E+02  0.00000000000E+00 0. -1.
         22    1    1    2    0    0  0.28011454136E+02  0.16916582291E+02  0.42440587003E+02  0.53591190922E+02  0.00000000000E+00 0. -1.
         22    1    1    2    0    0 -0.10381851486E+03 -0.58634475925E+01  0.57766411020E+01  0.10414429234E+03  0.00000000000E+00 0. -1.
</event>
<event>
 6    1  0.3701283E-005  0.2129457E+03  0.7818608E-02  0.1139254E+00
          2   -1    0    0  502    0  0.00000000000E+00  0.00000000000E+00  0.30992555094E+02  0.30992555094E+02  0.00000000000E+00 0. -1.
          1   -1    0    0  501    0 -0.00000000000E+00 -0.00000000000E+00 -0.11554189783E+04  0.11554189783E+04  0.00000000000E+00 0.  1.
          2    1    1    2  501    0  0.56464705633E+02 -0.20000234887E+02 -0.53062153645E+02  0.80024149650E+02  0.00000000000E+00 0. -1.
          1    1    1    2  502    0 -0.54735681080E+02  0.82920774057E+02 -0.74261435668E+03  0.74923156120E+03  0.00000000000E+00 0.  1.
         22    1    1    2    0    0 -0.40403547758E+02 -0.26952085368E+02 -0.28343156281E+03  0.28756271033E+03  0.00000000000E+00 0.  1.
         22    1    1    2    0    0  0.38674523205E+02 -0.35968453801E+02 -0.45318350076E+02  0.69593112214E+02  0.00000000000E+00 0.  1.
</event>
<event>
 6    1  0.3701283E-005  0.1707977E+03  0.7818608E-02  0.1177019E+00
          2   -1    0    0  502    0  0.00000000000E+00  0.00000000000E+00  0.42382468911E+03  0.42382468911E+03  0.00000000000E+00 0.  1.
          1   -1    0    0  501    0 -0.00000000000E+00 -0.00000000000E+00 -0.74469516411E+02  0.74469516411E+02  0.00000000000E+00 0.  1.
          2    1    1    2  501    0 -0.19992862452E+02 -0.21637641140E+02  0.49924852088E+02  0.57968896135E+02  0.00000000000E+00 0.  1.
          1    1    1    2  502    0 -0.23984274326E+01 -0.25547014686E+02 -0.54263823743E+02  0.60024703087E+02  0.00000000000E+00 0.  1.
         22    1    1    2    0    0  0.47901707100E+00  0.74285512355E+02  0.32975607342E+03  0.33802016916E+03  0.00000000000E+00 0.  1.
         22    1    1    2    0    0  0.21912272814E+02 -0.27100856530E+02  0.23938070935E+02  0.42280437138E+02  0.00000000000E+00 0.  1.
</event>
<event>
 6    1  0.4455467E-005  0.7153267E+02  0.7818608E-02  0.1369856E+00
          2   -1    0    0  502    0  0.00000000000E+00  0.00000000000E+00  0.14923917077E+03  0.14923917077E+03  0.00000000000E+00 0. -1.
          1   -1    0    0  501    0 -0.00000000000E+00 -0.00000000000E+00 -0.14622828466E+04  0.14622828466E+04  0.00000000000E+00 0. -1.
          2    1    1    2  501    0 -0.66951630862E+02 -0.68506149318E+01 -0.25310888546E+03  0.26190372219E+03  0.00000000000E+00 0. -1.
          1    1    1    2  502    0  0.57660116593E+02 -0.44488047439E+02 -0.11728009959E+04  0.11750600204E+04  0.00000000000E+00 0. -1.
         22    1    1    2    0    0  0.19515601013E+02  0.52209828123E+02  0.13723233838E+03  0.14811967976E+03  0.00000000000E+00 0. -1.
         22    1    1    2    0    0 -0.10224086745E+02 -0.87116575262E+00 -0.24366132771E+02  0.26438595003E+02  0.00000000000E+00 0.  1.
</event>
<event>
 6    1  0.3701283E-005  0.6006444E+02  0.7818608E-02  0.1398967E+00
          2   -1    0    0  502    0  0.00000000000E+00  0.00000000000E+00  0.18556181243E+02  0.18556181243E+02  0.00000000000E+00 0. -1.
          1   -1    0    0  501    0 -0.00000000000E+00 -0.00000000000E+00 -0.94368421105E+03  0.94368421105E+03  0.00000000000E+00 0. -1.
          2    1    1    2  501    0 -0.29379661214E+02 -0.13355941147E+02 -0.33095198629E+02  0.46225943249E+02  0.00000000000E+00 0. -1.
          1    1    1    2  502    0  0.76944650945E+01 -0.31460745420E+02 -0.53226639205E+03  0.53325087473E+03  0.00000000000E+00 0. -1.
         22    1    1    2    0    0  0.42832572547E+02  0.58627271381E+02 -0.34690135527E+03  0.35441830724E+03  0.00000000000E+00 0. -1.
         22    1    1    2    0    0 -0.21147376427E+02 -0.13810584814E+02 -0.12865083859E+02  0.28345267071E+02  0.00000000000E+00 0. -1.
</event>
<event>
 6    1  0.3701283E-005  0.2264867E+03  0.7818608E-02  0.1129137E+00
          2   -1    0    0  502    0  0.00000000000E+00  0.00000000000E+00  0.18233726549E+03  0.18233726549E+03  0.00000000000E+00 0. -1.
          1   -1    0    0  501    0 -0.00000000000E+00 -0.00000000000E+00 -0.21996103448E+03  0.21996103448E+03  0.00000000000E+00 0. -1.
          2    1    1    2  501    0 -0.85848411028E+01  0.52973370827E+02 -0.17607320082E+02  0.56479157518E+02  0.00000000000E+00 0. -1.
          1    1    1    2  502    0  0.15405768984E+02 -0.17083260338E+03  0.60798857987E+01  0.17163356638E+03  0.00000000000E+00 0. -1.
         22    1    1    2    0    0  0.19461184147E+02  0.45419013343E+02 -0.69857047768E+02  0.85566533086E+02  0.00000000000E+00 0. -1.
         22    1    1    2    0    0 -0.26282112028E+02  0.72440219210E+02  0.43760713067E+02  0.88619042987E+02  0.00000000000E+00 0. -1.
</event>
<event>
 6    1  0.3701283E-005  0.1981350E+03  0.7818608E-02  0.1151322E+00
          2   -1    0    0  502    0  0.00000000000E+00  0.00000000000E+00  0.24136682289E+02  0.24136682289E+02  0.00000000000E+00 0.  1.
          1   -1    0    0  501    0 -0.00000000000E+00 -0.00000000000E+00 -0.10566284923E+04  0.10566284923E+04  0.00000000000E+00 0. -1.
          2    1    1    2  501    0  0.59241501078E+02 -0.61794935877E+00 -0.16875133348E+03  0.17884895824E+03  0.00000000000E+00 0.  1.
          1    1    1    2  502    0 -0.19603857618E+02  0.86070905844E+01 -0.64682931847E+03  0.64718356011E+03  0.00000000000E+00 0. -1.
         22    1    1    2    0    0 -0.43595709448E+02 -0.61923840711E+02 -0.15511444442E+03  0.17261413267E+03  0.00000000000E+00 0. -1.
         22    1    1    2    0    0  0.39580659879E+01  0.53934699485E+02 -0.61796713599E+02  0.82118523529E+02  0.00000000000E+00 0.  1.
</event>
<event>
 6    1  0.3701283E-005  0.3426349E+03  0.7818608E-02  0.1065679E+00
          2   -1    0    0  502    0  0.00000000000E+00  0.00000000000E+00  0.35783475118E+02  0.35783475118E+02  0.00000000000E+00 0.  1.
          1   -1    0    0  501    0 -0.00000000000E+00 -0.00000000000E+00 -0.18831532067E+04  0.18831532067E+04  0.00000000000E+00 0. -1.
          2    1    1    2  501    0 -0.13259026297E+03 -0.19995265043E+02 -0.18249614697E+03  0.22646154666E+03  0.00000000000E+00 0.  1.
          1    1    1    2  502    0  0.12302614239E+02 -0.41104248877E+02 -0.10523706677E+04  0.10532449553E+04  0.00000000000E+00 0. -1.
         22    1    1    2    0    0  0.12010256202E+03  0.92436939661E+02 -0.51052656815E+03  0.53254726551E+03  0.00000000000E+00 0.  1.
         22    1    1    2    0    0  0.18508671443E+00 -0.31337425741E+02 -0.10197634871E+03  0.10668291431E+03  0.00000000000E+00 0.  1.
</event>
<event>
 6    1  0.3701283E-005  0.2705303E+03  0.7818608E-02  0.1100976E+00
          2   -1    0    0  502    0  0.00000000000E+00  0.00000000000E+00  0.24234605961E+03  0.24234605961E+03  0.00000000000E+00 0. -1.
          1   -1    0    0  501    0 -0.00000000000E+00 -0.00000000000E+00 -0.63710166087E+03  0.63710166087E+03  0.00000000000E+00 0. -1.
          2    1    1    2  501    0  0.29571091573E+02 -0.61545391686E+02 -0.27185567120E+02  0.73493807591E+02  0.00000000000E+00 0. -1.
          1    1    1    2  502    0 -0.21404330237E+02 -0.19897062872E+02 -0.56110466566E+03  0.56186518337E+03  0.00000000000E+00 0. -1.
         22    1    1    2    0    0 -0.65723058138E+02  0.34153904876E+02  0.10251861825E+03  0.12647559716E+03  0.00000000000E+00 0. -1.
         22    1    1    2    0    0  0.57556296803E+02  0.47288549682E+02  0.91016013260E+02  0.11761313236E+03  0.00000000000E+00 0. -1.
</event>
<event>
 6    1  0.3701283E-005  0.6678468E+02  0.7818608E-02  0.1374796E+00
          2   -1    0    0  502    0  0.00000000000E+00  0.00000000000E+00  0.25059839331E+02  0.25059839331E+02  0.00000000000E+00 0.  1.
          1   -1    0    0  501    0 -0.00000000000E+00 -0.00000000000E+00 -0.10010670692E+04  0.10010670692E+04  0.00000000000E+00 0. -1.
          2    1    1    2  501    0  0.24077012296E+02 -0.11512922455E+02 -0.12411409240E+02  0.29432855517E+02  0.00000000000E+00 0.  1.
          1    1    1    2  502    0 -0.33174456073E+02 -0.32080040796E+02 -0.70646184806E+03  0.70796752490E+03  0.00000000000E+00 0. -1.
         22    1    1    2    0    0  0.45142810849E+02  0.80364856457E+01 -0.27262594167E+02  0.53345173292E+02  0.00000000000E+00 0. -1.
         22    1    1    2    0    0 -0.36045367072E+02  0.35556477606E+02 -0.22987137838E+03  0.23538135480E+03  0.00000000000E+00 0. -1.
</event>
<event>
 6    1  0.3701283E-005  0.2041140E+03  0.7818608E-02  0.1146314E+00
          2   -1    0    0  502    0  0.00000000000E+00  0.00000000000E+00  0.16212462127E+03  0.16212462127E+03  0.00000000000E+00 0. -1.
          1   -1    0    0  501    0 -0.00000000000E+00 -0.00000000000E+00 -0.20539204046E+03  0.20539204046E+03  0.00000000000E+00 0.  1.
          2    1    1    2  501    0 -0.57979136364E+02 -0.80559616594E+01  0.73209311761E+02  0.93734103187E+02  0.00000000000E+00 0. -1.
          1    1    1    2  502    0  0.56437145452E+02 -0.26158229046E+01 -0.13303526639E+03  0.14453503388E+03  0.00000000000E+00 0.  1.
         22    1    1    2    0    0 -0.10968599092E+02  0.22355934871E+02 -0.52496066625E+02  0.58102796844E+02  0.00000000000E+00 0.  1.
         22    1    1    2    0    0  0.12510590004E+02 -0.11684150307E+02  0.69054602057E+02  0.71144727815E+02  0.00000000000E+00 0. -1.
</event>
<event>
 6    1  0.3701283E-005  0.1817993E+03  0.7818608E-02  0.1166073E+00
          2   -1    0    0  502    0  0.00000000000E+00  0.00000000000E+00  0.11182771972E+03  0.11182771972E+03  0.00000000000E+00 0. -1.
          1   -1    0    0  501    0 -0.00000000000E+00 -0.00000000000E+00 -0.71034893553E+03  0.71034893553E+03  0.00000000000E+00 0.  1.
          2    1    1    2  501    0 -0.34977329801E+02 -0.22598809340E+02 -0.60703313772E+01  0.42082879020E+02  0.00000000000E+00 0. -1.
          1    1    1    2  502    0  0.21908576221E+02  0.70836733073E+02 -0.63283790919E+03  0.63716689162E+03  0.00000000000E+00 0.  1.
         22    1    1    2    0    0 -0.28217230459E+01 -0.26503240087E+02  0.85958679692E+02  0.89995991414E+02  0.00000000000E+00 0. -1.
         22    1    1    2    0    0  0.15890476626E+02 -0.21734683647E+02 -0.45571654939E+02  0.52930893196E+02  0.00000000000E+00 0.  1.
</event>
<event>
 6    1  0.3701283E-005  0.2316807E+03  0.7818608E-02  0.1125462E+00
          2   -1    0    0  502    0  0.00000000000E+00  0.00000000000E+00  0.30664650017E+03  0.30664650017E+03  0.00000000000E+00 0. -1.
          1   -1    0    0  501    0 -0.00000000000E+00 -0.00000000000E+00 -0.10199474211E+03  0.10199474211E+03  0.00000000000E+00 0.  1.
          2    1    1    2  501    0 -0.34551108851E+02 -0.24025352022E+02 -0.69249390448E+01  0.42649166972E+02  0.00000000000E+00 0. -1.
          1    1    1    2  502    0 -0.26001533569E+02 -0.32720899649E+02 -0.49469644066E+02  0.64760965911E+02  0.00000000000E+00 0.  1.
         22    1    1    2    0    0 -0.14970542304E+02  0.55157379807E+02  0.46196968065E+02  0.73488866793E+02  0.00000000000E+00 0. -1.
         22    1    1    2    0    0  0.75523184725E+02  0.15888718637E+01  0.21484937310E+03  0.22774224260E+03  0.00000000000E+00 0. -1.
</event>
<event>
 6    1  0.3701283E-005  0.1043399E+03  0.7818608E-02  0.1272606E+00
          2   -1    0    0  502    0  0.00000000000E+00  0.00000000000E+00  0.35053581516E+03  0.35053581516E+03  0.00000000000E+00 0. -1.
          1   -1    0    0  501    0 -0.00000000000E+00 -0.00000000000E+00 -0.66142083515E+03  0.66142083515E+03  0.00000000000E+00 0. -1.
          2    1    1    2  501    0 -0.72781300527E+02  0.14564378123E+02  0.99425419584E+02  0.12407519041E+03  0.00000000000E+00 0. -1.
          1    1    1    2  502    0  0.22173716690E+02 -0.67454277626E+02 -0.62512166808E+03  0.62914136185E+03  0.00000000000E+00 0. -1.
         22    1    1    2    0    0 -0.36628933875E+02 -0.82764095072E+01  0.51161417784E+02  0.63463914320E+02  0.00000000000E+00 0. -1.
         22    1    1    2    0    0  0.87236517712E+02  0.61166309010E+02  0.16364981073E+03  0.19527618373E+03  0.00000000000E+00 0. -1.
</event>
<event>
 6    1  0.3701283E-005  0.3305069E+03  0.7818608E-02  0.1070913E+00
          2   -1    0    0  502    0  0.00000000000E+00  0.00000000000E+00  0.27711891380E+03  0.27711891380E+03  0.00000000000E+00 0.  1.
          1   -1    0    0  501    0 -0.00000000000E+00 -0.00000000000E+00 -0.30689654155E+03  0.30689654155E+03  0.00000000000E+00 0.  1.
          2    1    1    2  501    0 -0.43650694495E+02 -0.53384649291E+02  0.21891161893E+02  0.72350030262E+02  0.00000000000E+00 0.  1.
          1    1    1    2  502    0 -0.10772224457E+03  0.19660611363E+03  0.76444972845E+02  0.23685835380E+03  0.00000000000E+00 0.  1.
         22    1    1    2    0    0 -0.18890752174E+02  0.20488398018E+01 -0.64809634643E+01  0.20076382883E+02  0.00000000000E+00 0.  1.
         22    1    1    2    0    0  0.17026369124E+03 -0.14527030414E+03 -0.12163279903E+03  0.25473068841E+03  0.00000000000E+00 0.  1.
</event>
<event>
 6    1  0.3701283E-005  0.2341779E+03  0.7818608E-02  0.1125600E+00
          2   -1    0    0  502    0  0.00000000000E+00  0.00000000000E+00  0.19144900460E+03  0.19144900460E+03  0.00000000000E+00 0. -1.
          1   -1    0    0  501    0 -0.00000000000E+00 -0.00000000000E+00 -0.16584781356E+04  0.16584781356E+04  0.00000000000E+00 0.  1.
          2    1    1    2  501    0  0.31372678438E+02  0.29619810351E+03 -0.22688764234E+03  0.37442698049E+03  0.00000000000E+00 0. -1.
          1    1    1    2  502    0  0.14641271206E+03 -0.17230351698E+03 -0.12040392441E+04  0.12250859911E+04  0.00000000000E+00 0.  1.
         22    1    1    2    0    0 -0.16908480238E+03 -0.14628591204E+03 -0.29647885287E+02  0.22553987577E+03  0.00000000000E+00 0. -1.
         22    1    1    2    0    0 -0.87005881130E+01  0.22391325513E+02 -0.64543592834E+01  0.24874292864E+02  0.00000000000E+00 0.  1.
</event>
<event>
 6    1  0.3701283E-005  0.5052535E+03  0.7818608E-02  0.1012417E+00
          2   -1    0    0  502    0  0.00000000000E+00  0.00000000000E+00  0.43191452889E+03  0.43191452889E+03  0.00000000000E+00 0.  1.
          1   -1    0    0  501    0 -0.00000000000E+00 -0.00000000000E+00 -0.53162749662E+03  0.53162749662E+03  0.00000000000E+00 0.  1.
          2    1    1    2  501    0 -0.22290606792E+03 -0.12853004436E+03 -0.80047940530E+02  0.26947126044E+03  0.00000000000E+00 0.  1.
          1    1    1    2  502    0  0.40424613925E+03  0.20318746927E+03 -0.65191726926E+02  0.45711054465E+03  0.00000000000E+00 0.  1.
         22    1    1    2    0    0 -0.66439905507E+02  0.14848670725E+02 -0.28231791805E+02  0.73700597926E+02  0.00000000000E+00 0.  1.
         22    1    1    2    0    0 -0.11490016582E+03 -0.89506095636E+02  0.73758491530E+02  0.16325962249E+03  0.00000000000E+00 0.  1.
</event>
<event>
 6    1  0.3701283E-005  0.2287595E+03  0.7818608E-02  0.1127516E+00
          2   -1    0    0  502    0  0.00000000000E+00  0.00000000000E+00  0.53637584735E+02  0.53637584735E+02  0.00000000000E+00 0.  1.
          1   -1    0    0  501    0 -0.00000000000E+00 -0.00000000000E+00 -0.51904771466E+03  0.51904771466E+03  0.00000000000E+00 0.  1.
          2    1    1    2  501    0  0.78330497858E+02 -0.61906322389E+01 -0.10495497184E+03  0.13110887436E+03  0.00000000000E+00 0.  1.
          1    1    1    2  502    0 -0.17925200481E+02  0.28229402170E+02 -0.26930920514E+03  0.27137733865E+03  0.00000000000E+00 0.  1.
         22    1    1    2    0    0  0.20655493434E+02 -0.47734138844E+02 -0.60561328779E+02  0.79830269720E+02  0.00000000000E+00 0. -1.
         22    1    1    2    0    0 -0.81060790811E+02  0.25695368912E+02 -0.30584624171E+02  0.90368816669E+02  0.00000000000E+00 0.  1.
</event>
<event>
 6    1  0.3701283E-005  0.1793109E+03  0.7818608E-02  0.1168472E+00
          2   -1    0    0  502    0  0.00000000000E+00  0.00000000000E+00  0.53689602781E+03  0.53689602781E+03  0.00000000000E+00 0.  1.
          1   -1    0    0  501    0 -0.00000000000E+00 -0.00000000000E+00 -0.10708406729E+03  0.10708406729E+03  0.00000000000E+00 0.  1.
          2    1    1    2  501    0  0.35318130738E+02 -0.63972480686E+01  0.99463402322E+02  0.10574149395E+03  0.00000000000E+00 0.  1.
          1    1    1    2  502    0  0.21514102391E+02 -0.33020960221E+02 -0.87772958546E+02  0.96215033480E+02  0.00000000000E+00 0.  1.
         22    1    1    2    0    0 -0.73948801026E+02 -0.17360124303E+02  0.30480946435E+03  0.31413151489E+03  0.00000000000E+00 0.  1.
         22    1    1    2    0    0  0.17116567897E+02  0.56778332593E+02  0.11331205239E+03  0.12789205279E+03  0.00000000000E+00 0.  1.
</event>
<event>
 6    1  0.3701283E-005  0.1405342E+03  0.7818608E-02  0.1248466E+00
          2   -1    0    0  502    0  0.00000000000E+00  0.00000000000E+00  0.59359505583E+03  0.59359505583E+03  0.00000000000E+00 0. -1.
          1   -1    0    0  501    0 -0.00000000000E+00 -0.00000000000E+00 -0.17786079311E+04  0.17786079311E+04  0.00000000000E+00 0.  1.
          2    1    1    2  501    0  0.51380191242E+02  0.47749856385E+01  0.11915148817E+03  0.12984529900E+03  0.00000000000E+00 0. -1.
          1    1    1    2  502    0 -0.12517873059E+03 -0.27423682197E+02 -0.17593658697E+04  0.17640266541E+04  0.00000000000E+00 0.  1.
         22    1    1    2    0    0  0.17146672139E+02  0.64831553839E+02  0.13892561693E+03  0.15426427252E+03  0.00000000000E+00 0. -1.
         22    1    1    2    0    0  0.56651867214E+02 -0.42182857281E+02  0.31627588941E+03  0.32406676122E+03  0.00000000000E+00 0. -1.
</event>
<event>
 6    1  0.3701283E-005  0.8187640E+02  0.7818608E-02  0.1329886E+00
          2   -1    0    0  502    0  0.00000000000E+00  0.00000000000E+00  0.44800083427E+03  0.44800083427E+03  0.00000000000E+00 0. -1.
          1   -1    0    0  501    0 -0.00000000000E+00 -0.00000000000E+00 -0.37943552883E+02  0.37943552883E+02  0.00000000000E+00 0. -1.
          2    1    1    2  501    0  0.10661558023E+02  0.22418739996E+02  0.90459547168E+01  0.26421544604E+02  0.00000000000E+00 0. -1.
          1    1    1    2  502    0  0.18405108570E+02  0.78848548351E+01 -0.13611575798E+02  0.24211442604E+02  0.00000000000E+00 0. -1.
         22    1    1    2    0    0 -0.22220916420E+02 -0.72973987826E+02  0.34526546776E+03  0.35359187668E+03  0.00000000000E+00 0. -1.
         22    1    1    2    0    0 -0.68457501724E+01  0.42670392994E+02  0.69357434713E+02  0.81719523271E+02  0.00000000000E+00 0. -1.
</event>
<event>
 6    1  0.3701283E-005  0.2033402E+03  0.7818608E-02  0.1146951E+00
          2   -1    0    0  502    0  0.00000000000E+00  0.00000000000E+00  0.74352125324E+02  0.74352125324E+02  0.00000000000E+00 0. -1.
          1   -1    0    0  501    0 -0.00000000000E+00 -0.00000000000E+00 -0.34272757439E+03  0.34272757439E+03  0.00000000000E+00 0. -1.
          2    1    1    2  501    0 -0.32350526024E+02  0.76420999064E+01 -0.59795243241E+02  0.68413663396E+02  0.00000000000E+00 0. -1.
          1    1    1    2  502    0 -0.39340170515E+02 -0.48064953647E+02 -0.18874688716E+03  0.19870399140E+03  0.00000000000E+00 0. -1.
         22    1    1    2    0    0  0.92343153388E+02  0.45977464903E+02  0.19694728981E+02  0.10501936777E+03  0.00000000000E+00 0. -1.
         22    1    1    2    0    0 -0.20652456848E+02 -0.55546111627E+01 -0.39528047649E+02  0.44942677156E+02  0.00000000000E+00 0. -1.
</event>
<event>
 6    1  0.3701283E-005  0.2449258E+03  0.7818608E-02  0.1116554E+00
          2   -1    0    0  502    0  0.00000000000E+00  0.00000000000E+00  0.12356883782E+03  0.12356883782E+03  0.00000000000E+00 0. -1.
          1   -1    0    0  501    0 -0.00000000000E+00 -0.00000000000E+00 -0.49005788453E+03  0.49005788453E+03  0.00000000000E+00 0. -1.
          2    1    1    2  501    0 -0.34237089613E+02  0.26622666958E+02 -0.82886258771E+02  0.93547189131E+02  0.00000000000E+00 0. -1.
          1    1    1    2  502    0  0.35350080650E+02 -0.50908250189E+00 -0.36700152554E+03  0.36870043005E+03  0.00000000000E+00 0. -1.
         22    1    1    2    0    0 -0.41847238922E+02  0.19174707937E+02 -0.24727760108E+01  0.46097456015E+02  0.00000000000E+00 0.  1.
         22    1    1    2    0    0  0.40734247885E+02 -0.45288292393E+02  0.85871513615E+02  0.10528164716E+03  0.00000000000E+00 0. -1.
</event>
<event>
 6    1  0.3701283E-005  0.2479873E+03  0.7818608E-02  0.1114583E+00
          2   -1    0    0  502    0  0.00000000000E+00  0.00000000000E+00  0.23649453902E+03  0.23649453902E+03  0.00000000000E+00 0.  1.
          1   -1    0    0  501    0 -0.00000000000E+00 -0.00000000000E+00 -0.14892643230E+03  0.14892643230E+03  0.00000000000E+00 0.  1.
          2    1    1    2  501    0  0.24071171508E+02 -0.50599967361E+02 -0.30137169087E+02  0.63624106715E+02  0.00000000000E+00 0.  1.
          1    1    1    2  502    0 -0.49238296057E+02  0.90747639688E+01 -0.74071576835E+02  0.89405590622E+02  0.00000000000E+00 0.  1.
         22    1    1    2    0    0  0.42778018101E+02  0.73370554164E+02  0.16986258385E+03  0.18991180701E+03  0.00000000000E+00 0.  1.
         22    1    1    2    0    0 -0.17610893552E+02 -0.31845350771E+02  0.21914268797E+02  0.42479466974E+02  0.00000000000E+00 0. -1.
</event>
<event>
 6    1  0.3701283E-005  0.2187344E+03  0.7818608E-02  0.1134830E+00
          2   -1    0    0  502    0  0.00000000000E+00  0.00000000000E+00  0.75180917332E+02  0.75180917332E+02  0.00000000000E+00 0.  1.
          1   -1    0    0  501    0 -0.00000000000E+00 -0.00000000000E+00 -0.14454747881E+04  0.14454747881E+04  0.00000000000E+00 0. -1.
          2    1    1    2  501    0  0.38835708835E+02  0.59891856010E+02 -0.85546069259E+02  0.11141533406E+03  0.00000000000E+00 0.  1.
          1    1    1    2  502    0 -0.60287306054E+02 -0.79125530600E+02 -0.12802560705E+04  0.12841148761E+04  0.00000000000E+00 0. -1.
         22    1    1    2    0    0  0.26403925307E+02 -0.17974515759E+02 -0.54154794399E+02  0.62872825965E+02  0.00000000000E+00 0. -1.
         22    1    1    2    0    0 -0.49523280886E+01  0.37208190349E+02  0.49663063362E+02  0.62252669380E+02  0.00000000000E+00 0.  1.
</event>
<event>
 6    1  0.3701283E-005  0.9007244E+02  0.7818608E-02  0.1306287E+00
          2   -1    0    0  502    0  0.00000000000E+00  0.00000000000E+00  0.25353874391E+03  0.25353874391E+03  0.00000000000E+00 0.  1.
          1   -1    0    0  501    0 -0.00000000000E+00 -0.00000000000E+00 -0.24120154316E+03  0.24120154316E+03  0.00000000000E+00 0.  1.
          2    1    1    2  501    0 -0.12778453813E+02 -0.49524641134E+02  0.10487838001E+03  0.11668527566E+03  0.00000000000E+00 0.  1.
          1    1    1    2  502    0  0.27153798907E+02  0.25211786050E+01 -0.20219007579E+03  0.20402086140E+03  0.00000000000E+00 0.  1.
         22    1    1    2    0    0 -0.34875564910E+02 -0.25593638760E+02  0.83774227825E+02  0.94283936174E+02  0.00000000000E+00 0. -1.
         22    1    1    2    0    0  0.20500219816E+02  0.72597101289E+02  0.25874668708E+02  0.79750213848E+02  0.00000000000E+00 0.  1.
</event>
<event>
 6    1  0.3701283E-005  0.7704836E+02  0.7818608E-02  0.1371533E+00
          2   -1    0    0  502    0  0.00000000000E+00  0.00000000000E+00  0.15937110879E+03  0.15937110879E+03  0.00000000000E+00 0. -1.
          1   -1    0    0  501    0 -0.00000000000E+00 -0.00000000000E+00 -0.68127677707E+03  0.68127677707E+03  0.00000000000E+00 0.  1.
          2    1    1    2  501    0 -0.34101939184E+02 -0.35954898153E+02  0.28556323965E+02  0.57194060842E+02  0.00000000000E+00 0. -1.
          1    1    1    2  502    0  0.31997873221E+02  0.54828869152E+02 -0.62890304068E+03  0.63209896643E+03  0.00000000000E+00 0.  1.
         22    1    1    2    0    0 -0.17553581557E+02 -0.57548900818E+02  0.88314172074E+02  0.10686157963E+03  0.00000000000E+00 0. -1.
         22    1    1    2    0    0  0.19657647520E+02  0.38674929819E+02 -0.98731236317E+01  0.44493278961E+02  0.00000000000E+00 0. -1.
</event>
<event>
 6    1  0.3701283E-005  0.5530154E+03  0.7818608E-02  0.1000798E+00
          2   -1    0    0  502    0  0.00000000000E+00  0.00000000000E+00  0.42535571618E+03  0.42535571618E+03  0.00000000000E+00 0. -1.
          1   -1    0    0  501    0 -0.00000000000E+00 -0.00000000000E+00 -0.65419850358E+03  0.65419850358E+03  0.00000000000E+00 0. -1.
          2    1    1    2  501    0 -0.19438261534E+03 -0.20581942809E+03 -0.85483225382E+02  0.29572558216E+03  0.00000000000E+00 0. -1.
          1    1    1    2  502    0  0.26451124045E+03  0.20926298291E+03 -0.37817797082E+03  0.50673047072E+03  0.00000000000E+00 0. -1.
         22    1    1    2    0    0 -0.78711401988E+02  0.26559618060E+02  0.23121361751E+03  0.24568401462E+03  0.00000000000E+00 0. -1.
         22    1    1    2    0    0  0.85827768756E+01 -0.30003172884E+02  0.36047912914E+01  0.31414152260E+02  0.00000000000E+00 0.  1.
</event>
<event>
 6    1  0.3701283E-005  0.2402672E+03  0.7818608E-02  0.1156333E+00
          2   -1    0    0  502    0  0.00000000000E+00  0.00000000000E+00  0.33955129687E+03  0.33955129687E+03  0.00000000000E+00 0.  1.
          1   -1    0    0  501    0 -0.00000000000E+00 -0.00000000000E+00 -0.30827831856E+03  0.30827831856E+03  0.00000000000E+00 0. -1.
          2    1    1    2  501    0 -0.10520773559E+02  0.11436903780E+03  0.59365083016E+02  0.12928718639E+03  0.00000000000E+00 0.  1.
          1    1    1    2  502    0 -0.33939743869E+02 -0.24722593599E+03 -0.15174352249E+03  0.29205935400E+03  0.00000000000E+00 0. -1.
         22    1    1    2    0    0  0.74347565237E+02  0.64995728837E+02  0.22876590471E+02  0.10136736958E+03  0.00000000000E+00 0. -1.
         22    1    1    2    0    0 -0.29887047809E+02  0.67861169353E+02  0.10077482732E+03  0.12511570547E+03  0.00000000000E+00 0.  1.
</event>
<event>
 6    1  0.3701283E-005  0.1508809E+03  0.7818608E-02  0.1199395E+00
          2   -1    0    0  502    0  0.00000000000E+00  0.00000000000E+00  0.12756646120E+03  0.12756646120E+03  0.00000000000E+00 0.  1.
          1   -1    0    0  501    0 -0.00000000000E+00 -0.00000000000E+00 -0.83080947114E+02  0.83080947114E+02  0.00000000000E+00 0. -1.
          2    1    1    2  501    0 -0.66591211023E+01  0.25605248583E+02  0.25329933166E+02  0.36627560157E+02  0.00000000000E+00 0.  1.
          1    1    1    2  502    0 -0.27636391398E+00 -0.30177773252E+02 -0.29850918278E+02  0.42448223726E+02  0.00000000000E+00 0. -1.
         22    1    1    2    0    0 -0.20129636349E+02  0.35219817122E+02  0.73469389072E+02  0.83924900407E+02  0.00000000000E+00 0.  1.
         22    1    1    2    0    0  0.27065121365E+02 -0.30647292454E+02 -0.24462889874E+02  0.47646724024E+02  0.00000000000E+00 0. -1.
</event>
<event>
 6    1  0.3701283E-005  0.1952680E+03  0.7818608E-02  0.1153794E+00
          2   -1    0    0  502    0  0.00000000000E+00  0.00000000000E+00  0.44747585775E+02  0.44747585775E+02  0.00000000000E+00 0. -1.
          1   -1    0    0  501    0 -0.00000000000E+00 -0.00000000000E+00 -0.15407069971E+04  0.15407069971E+04  0.00000000000E+00 0.  1.
          2    1    1    2  501    0  0.16467715926E+02  0.41967649571E+02 -0.92832835776E+02  0.10320079785E+03  0.00000000000E+00 0. -1.
          1    1    1    2  502    0 -0.49683815065E+02 -0.86693206887E+02 -0.13163753890E+04  0.13201622470E+04  0.00000000000E+00 0.  1.
         22    1    1    2    0    0  0.62699094258E+02  0.51221780795E+02 -0.12479185966E+02  0.81918113571E+02  0.00000000000E+00 0. -1.
         22    1    1    2    0    0 -0.29482995119E+02 -0.64962234787E+01 -0.74272000556E+02  0.80173424445E+02  0.00000000000E+00 0. -1.
</event>
<event>
 6    1  0.3701283E-005  0.2881035E+03  0.7818608E-02  0.1091344E+00
          2   -1    0    0  502    0  0.00000000000E+00  0.00000000000E+00  0.15154067571E+03  0.15154067571E+03  0.00000000000E+00 0.  1.
          1   -1    0    0  501    0 -0.00000000000E+00 -0.00000000000E+00 -0.50064403622E+03  0.50064403622E+03  0.00000000000E+00 0.  1.
          2    1    1    2  501    0  0.51929450277E+02 -0.13655131795E+03 -0.60064320639E+02  0.15795775655E+03  0.00000000000E+00 0.  1.
          1    1    1    2  502    0 -0.81813627072E+02  0.15763566322E+03 -0.31559880768E+03  0.36213958538E+03  0.00000000000E+00 0.  1.
         22    1    1    2    0    0 -0.44723568688E+02  0.52302879951E+01 -0.80385844198E+01  0.45740270530E+02  0.00000000000E+00 0.  1.
         22    1    1    2    0    0  0.74607745482E+02 -0.26314633262E+02  0.34598352224E+02  0.86347099467E+02  0.00000000000E+00 0.  1.
</event>
<event>
 6    1  0.3701283E-005  0.3775374E+03  0.7818608E-02  0.1051848E+00
          2   -1    0    0  502    0  0.00000000000E+00  0.00000000000E+00  0.59121424859E+03  0.59121424859E+03  0.00000000000E+00 0. -1.
          1   -1    0    0  501    0 -0.00000000000E+00 -0.00000000000E+00 -0.31110756366E+03  0.31110756366E+03  0.00000000000E+00 0. -1.
          2    1    1    2  501    0  0.11780345461E+03 -0.54083257413E+02  0.15320450679E+03  0.20068451248E+03  0.00000000000E+00 0. -1.
          1    1    1    2  502    0 -0.22788429225E+03 -0.13073897780E+03 -0.17146060195E+03  0.31372387380E+03  0.00000000000E+00 0. -1.
         22    1    1    2    0    0  0.78105819106E+02  0.17563768236E+03  0.17434043434E+03  0.25950665019E+03  0.00000000000E+00 0.  1.
         22    1    1    2    0    0  0.31975018533E+02  0.91845528465E+01  0.12402234574E+03  0.12840677578E+03  0.00000000000E+00 0. -1.
</event>
<event>
 6    1  0.3701283E-005  0.2205014E+03  0.7818608E-02  0.1133510E+00
          2   -1    0    0  502    0  0.00000000000E+00  0.00000000000E+00  0.50649995982E+02  0.50649995982E+02  0.00000000000E+00 0. -1.
          1   -1    0    0  501    0 -0.00000000000E+00 -0.00000000000E+00 -0.88001582176E+03  0.88001582176E+03  0.00000000000E+00 0. -1.
          2    1    1    2  501    0  0.13261752962E+02 -0.61254997840E+02 -0.11111613168E+03  0.12757289513E+03  0.00000000000E+00 0. -1.
          1    1    1    2  502    0  0.19856667460E+02  0.77564649829E+01 -0.63900836270E+03  0.63936385384E+03  0.00000000000E+00 0. -1.
         22    1    1    2    0    0  0.14293396079E+02 -0.10681892817E+02 -0.81969187539E+02  0.83888924844E+02  0.00000000000E+00 0. -1.
         22    1    1    2    0    0 -0.47411816501E+02  0.64180425674E+02  0.27278561439E+01  0.79840143930E+02  0.00000000000E+00 0. -1.
</event>
<event>
 6    1  0.3701283E-005  0.1256548E+03  0.7818608E-02  0.1321880E+00
          2   -1    0    0  502    0  0.00000000000E+00  0.00000000000E+00  0.30602949457E+03  0.30602949457E+03  0.00000000000E+00 0. -1.
          1   -1    0    0  501    0 -0.00000000000E+00 -0.00000000000E+00 -0.50818869437E+03  0.50818869437E+03  0.00000000000E+00 0. -1.
          2    1    1    2  501    0  0.56340003473E+02 -0.25262562247E+01  0.65173737836E+02  0.86186971552E+02  0.00000000000E+00 0. -1.
          1    1    1    2  502    0 -0.11279535820E+03 -0.19194745928E+02 -0.46989129832E+03  0.48362078465E+03  0.00000000000E+00 0. -1.
         22    1    1    2    0    0 -0.23192770932E+02 -0.34131335115E+01 -0.19316009936E+01  0.23522014928E+02  0.00000000000E+00 0. -1.
         22    1    1    2    0    0  0.79648125664E+02  0.25134135665E+02  0.20448996168E+03  0.22088841782E+03  0.00000000000E+00 0. -1.
</event>
<event>
 6    1  0.3701283E-005  0.2203386E+03  0.7818608E-02  0.1133631E+00
          2   -1    0    0  502    0  0.00000000000E+00  0.00000000000E+00  0.42120530421E+03  0.42120530421E+03  0.00000000000E+00 0. -1.
          1   -1    0    0  501    0 -0.00000000000E+00 -0.00000000000E+00 -0.86622785518E+03  0.86622785518E+03  0.00000000000E+00 0. -1.
          2    1    1    2  501    0 -0.26800142180E+02 -0.10364511654E+02  0.30848033556E+02  0.42157702700E+02  0.00000000000E+00 0. -1.
          1    1    1    2  502    0  0.60029863172E+02 -0.12578038158E+03 -0.83120813500E+03  0.84281151662E+03  0.00000000000E+00 0. -1.
         22    1    1    2    0    0  0.27960297063E+02 -0.93141964867E+01  0.77874474283E+02  0.83264435463E+02  0.00000000000E+00 0. -1.
         22    1    1    2    0    0 -0.61190018055E+02  0.14545908972E+03  0.27746307619E+03  0.31919950460E+03  0.00000000000E+00 0. -1.
</event>
<event>
 6    1  0.3701283E-005  0.2085808E+03  0.7818608E-02  0.1142695E+00
          2   -1    0    0  502    0  0.00000000000E+00  0.00000000000E+00  0.22251316688E+03  0.22251316688E+03  0.00000000000E+00 0. -1.
          1   -1    0    0  501    0 -0.00000000000E+00 -0.00000000000E+00 -0.10227678628E+03  0.10227678628E+03  0.00000000000E+00 0. -1.
          2    1    1    2  501    0 -0.41699160169E+02  0.13417388983E+02  0.65785678686E+02  0.79035446517E+02  0.00000000000E+00 0. -1.
          1    1    1    2  502    0 -0.12880659560E+01 -0.88544375986E+02  0.10703157455E+02  0.89198224266E+02  0.00000000000E+00 0. -1.
         22    1    1    2    0    0  0.41724741721E+02 -0.62724355735E+01 -0.25824152286E+02  0.49469024257E+02  0.00000000000E+00 0.  1.
         22    1    1    2    0    0  0.12624844044E+01  0.81399422577E+02  0.69571696743E+02  0.10708725811E+03  0.00000000000E+00 0.  1.
</event>
<event>
 6    1  0.3701283E-005  0.4282432E+02  0.7818608E-02  0.1491418E+00
          2   -1    0    0  502    0  0.00000000000E+00  0.00000000000E+00  0.80840324938E+02  0.80840324938E+02  0.00000000000E+00 0. -1.
          1   -1    0    0  501    0 -0.00000000000E+00 -0.00000000000E+00 -0.48366349869E+03  0.48366349869E+03  0.00000000000E+00 0. -1.
          2    1    1    2  501    0  0.14126913741E+02 -0.30175807804E+02 -0.76980336632E+02  0.83881590927E+02  0.00000000000E+00 0. -1.
          1    1    1    2  502    0 -0.73567178964E+00  0.24421995477E+02 -0.35186880817E+03  0.35271608021E+03  0.00000000000E+00 0. -1.
         22    1    1    2    0    0  0.15037639766E+02 -0.22807280523E+02 -0.41254937628E+02  0.49480021557E+02  0.00000000000E+00 0. -1.
         22    1    1    2    0    0 -0.28428881718E+02  0.28561092850E+02  0.67280908679E+02  0.78426130933E+02  0.00000000000E+00 0. -1.
</event>
<event>
 6    1  0.3701283E-005  0.1045515E+03  0.7818608E-02  0.1271837E+00
          2   -1    0    0  502    0  0.00000000000E+00  0.00000000000E+00  0.27994842814E+03  0.27994842814E+03  0.00000000000E+00 0. -1.
          1   -1    0    0  501    0 -0.00000000000E+00 -0.00000000000E+00 -0.12484125707E+03  0.12484125707E+03  0.00000000000E+00 0. -1.
          2    1    1    2  501    0 -0.52969570180E+02 -0.22316887944E+02  0.45646707554E+02  0.73399187755E+02  0.00000000000E+00 0. -1.
          1    1    1    2  502    0 -0.21886159056E+02 -0.15406883124E+02 -0.83264912035E+02  0.87460971765E+02  0.00000000000E+00 0. -1.
         22    1    1    2    0    0 -0.22699207460E+02 -0.23952078634E+02  0.31254956367E+02  0.45451384882E+02  0.00000000000E+00 0.  1.
         22    1    1    2    0    0  0.97554936696E+02  0.61675849703E+02  0.16147041918E+03  0.19847814081E+03  0.00000000000E+00 0. -1.
</event>
<event>
 6    1  0.3701283E-005  0.1887299E+03  0.7818608E-02  0.1159612E+00
          2   -1    0    0  502    0  0.00000000000E+00  0.00000000000E+00  0.13054010212E+03  0.13054010212E+03  0.00000000000E+00 0. -1.
          1   -1    0    0  501    0 -0.00000000000E+00 -0.00000000000E+00 -0.30068713862E+03  0.30068713862E+03  0.00000000000E+00 0. -1.
          2    1    1    2  501    0 -0.24063557198E+02  0.13872500413E+02  0.28223867170E+02  0.39599087499E+02  0.00000000000E+00 0. -1.
          1    1    1    2  502    0  0.10458228312E+03  0.14665635981E+02 -0.21295597865E+03  0.23770314189E+03  0.00000000000E+00 0. -1.
         22    1    1    2    0    0 -0.10590511905E+03 -0.42356090267E+02 -0.11953821733E+02  0.11468577278E+03  0.00000000000E+00 0. -1.
         22    1    1    2    0    0  0.25386393128E+02  0.13817953873E+02  0.26538896706E+02  0.39239238571E+02  0.00000000000E+00 0. -1.
</event>
<event>
 6    1  0.3701283E-005  0.2553207E+03  0.7818608E-02  0.1109988E+00
          2   -1    0    0  502    0  0.00000000000E+00  0.00000000000E+00  0.73787394996E+02  0.73787394996E+02  0.00000000000E+00 0. -1.
          1   -1    0    0  501    0 -0.00000000000E+00 -0.00000000000E+00 -0.10144547633E+04  0.10144547633E+04  0.00000000000E+00 0.  1.
          2    1    1    2  501    0 -0.56915735242E+02  0.30441965738E+02 -0.13841172094E+03  0.15272170340E+03  0.00000000000E+00 0. -1.
          1    1    1    2  502    0 -0.72209250910E+01 -0.54527886491E+02 -0.78973072562E+03  0.79164389163E+03  0.00000000000E+00 0.  1.
         22    1    1    2    0    0  0.75439136085E+02  0.56756196765E+02  0.19899892845E+02  0.96479712167E+02  0.00000000000E+00 0. -1.
         22    1    1    2    0    0 -0.11302475752E+02 -0.32670276012E+02 -0.32424814583E+02  0.47396851093E+02  0.00000000000E+00 0. -1.
</event>
<event>
 6    1  0.3701283E-005  0.1603930E+03  0.7818608E-02  0.1188254E+00
          2   -1    0    0  502    0  0.00000000000E+00  0.00000000000E+00  0.12572378392E+03  0.12572378392E+03  0.00000000000E+00 0. -1.
          1   -1    0    0  501    0 -0.00000000000E+00 -0.00000000000E+00 -0.39081003235E+03  0.39081003235E+03  0.00000000000E+00 0.  1.
          2    1    1    2  501    0  0.66857830920E+01 -0.30069620357E+02  0.87636834293E+00  0.30816388261E+02  0.00000000000E+00 0. -1.
          1    1    1    2  502    0 -0.22987483069E+02 -0.23255871897E+01 -0.33910085931E+03  0.33988707760E+03  0.00000000000E+00 0.  1.
         22    1    1    2    0    0 -0.52385711501E+02  0.94013363390E+01  0.37478116922E+02  0.65094217427E+02  0.00000000000E+00 0. -1.
         22    1    1    2    0    0  0.68687411478E+02  0.22993871208E+02  0.35660125615E+02  0.80736132973E+02  0.00000000000E+00 0. -1.
</event>
<event>
 6    1  0.3701283E-005  0.7392059E+02  0.7818608E-02  0.1350084E+00
          2   -1    0    0  502    0  0.00000000000E+00  0.00000000000E+00  0.37219393886E+02  0.37219393886E+02  0.00000000000E+00 0.  1.
          1   -1    0    0  501    0 -0.00000000000E+00 -0.00000000000E+00 -0.21979453620E+03  0.21979453620E+03  0.00000000000E+00 0.  1.
          2    1    1    2  501    0  0.32460491767E+01 -0.25390897039E+02 -0.13445299646E+02  0.28913847380E+02  0.00000000000E+00 0.  1.
          1    1    1    2  502    0  0.21443687720E+02 -0.10352420877E+02 -0.24932082206E+02  0.34476268420E+02  0.00000000000E+00 0.  1.
         22    1    1    2    0    0  0.19218977615E+02 -0.37006341240E+02 -0.66443657416E+02  0.78444872384E+02  0.00000000000E+00 0.  1.
         22    1    1    2    0    0 -0.43908714512E+02  0.72749659155E+02 -0.77754103046E+02  0.11517894190E+03  0.00000000000E+00 0.  1.
</event>
<event>
 6    1  0.3701283E-005  0.1080182E+03  0.7818608E-02  0.1265746E+00
          2   -1    0    0  502    0  0.00000000000E+00  0.00000000000E+00  0.10397491690E+03  0.10397491690E+03  0.00000000000E+00 0.  1.
          1   -1    0    0  501    0 -0.00000000000E+00 -0.00000000000E+00 -0.42065583077E+03  0.42065583077E+03  0.00000000000E+00 0.  1.
          2    1    1    2  501    0  0.41428419434E+01 -0.74963614161E+02 -0.13778477653E+03  0.15691192189E+03  0.00000000000E+00 0.  1.
          1    1    1    2  502    0 -0.16249907465E+02 -0.13443612944E+02 -0.20779992475E+03  0.20886741955E+03  0.00000000000E+00 0.  1.
         22    1    1    2    0    0  0.12894577032E+02 -0.18537220570E+02 -0.29378697591E+02  0.37054102815E+02  0.00000000000E+00 0.  1.
         22    1    1    2    0    0 -0.78751151047E+00  0.10694444768E+03  0.58282485006E+02  0.12179730342E+03  0.00000000000E+00 0.  1.
</event>
<event>
 6    1  0.3701283E-005  0.7669140E+02  0.7818608E-02  0.1397818E+00
          2   -1    0    0  502    0  0.00000000000E+00  0.00000000000E+00  0.17112299014E+03  0.17112299014E+03  0.00000000000E+00 0. -1.
          1   -1    0    0  501    0 -0.00000000000E+00 -0.00000000000E+00 -0.33732165628E+03  0.33732165628E+03  0.00000000000E+00 0.  1.
          2    1    1    2  501    0  0.57433031043E+02 -0.22466733566E+02 -0.13551092892E+02  0.63142214805E+02  0.00000000000E+00 0. -1.
          1    1    1    2  502    0 -0.55753475057E+02  0.40590000649E+02 -0.26502647045E+03  0.27385220132E+03  0.00000000000E+00 0.  1.
         22    1    1    2    0    0  0.20839344422E+02 -0.26860611410E+00 -0.24167339932E+02  0.31912548388E+02  0.00000000000E+00 0.  1.
         22    1    1    2    0    0 -0.22518900408E+02 -0.17854660969E+02  0.13654623714E+03  0.13953768190E+03  0.00000000000E+00 0. -1.
</event>
<event>
 6    1  0.3701283E-005  0.1973936E+03  0.7818608E-02  0.1201897E+00
          2   -1    0    0  502    0  0.00000000000E+00  0.00000000000E+00  0.27809974484E+03  0.27809974484E+03  0.00000000000E+00 0.  1.
          1   -1    0    0  501    0 -0.00000000000E+00 -0.00000000000E+00 -0.91064111669E+03  0.91064111669E+03  0.00000000000E+00 0. -1.
          2    1    1    2  501    0  0.10170402288E+03 -0.92162273879E+02  0.40818653428E+02  0.14319132468E+03  0.00000000000E+00 0.  1.
          1    1    1    2  502    0 -0.11802432323E+03  0.15006883221E+03 -0.82233905239E+03  0.84421082223E+03  0.00000000000E+00 0. -1.
         22    1    1    2    0    0 -0.41376835660E+02 -0.48590733535E+02  0.12042684518E+03  0.13629279862E+03  0.00000000000E+00 0.  1.
         22    1    1    2    0    0  0.57697136006E+02 -0.93158247938E+01  0.28552181936E+02  0.65045915999E+02  0.00000000000E+00 0.  1.
</event>
<event>
 6    1  0.3701283E-005  0.1033570E+03  0.7818608E-02  0.1276385E+00
          2   -1    0    0  502    0  0.00000000000E+00  0.00000000000E+00  0.34119850614E+03  0.34119850614E+03  0.00000000000E+00 0.  1.
          1   -1    0    0  501    0 -0.00000000000E+00 -0.00000000000E+00 -0.85607220272E+02  0.85607220272E+02  0.00000000000E+00 0.  1.
          2    1    1    2  501    0 -0.20958270825E+02  0.36619641401E+02  0.76761928109E+01  0.42885559206E+02  0.00000000000E+00 0.  1.
          1    1    1    2  502    0 -0.20214065825E+02  0.23106237611E+02 -0.46075118829E+02  0.55366264538E+02  0.00000000000E+00 0.  1.
         22    1    1    2    0    0  0.52542286756E+02 -0.93160993382E+02  0.25153531801E+03  0.27333071322E+03  0.00000000000E+00 0.  1.
         22    1    1    2    0    0 -0.11369950106E+02  0.33435114370E+02  0.42454893878E+02  0.55223189445E+02  0.00000000000E+00 0.  1.
</event>
<event>
 6    1  0.3701283E-005  0.6694312E+03  0.7818608E-02  0.9770986E-01
          2   -1    0    0  502    0  0.00000000000E+00  0.00000000000E+00  0.84987199189E+03  0.84987199189E+03  0.00000000000E+00 0.  1.
          1   -1    0    0  501    0 -0.00000000000E+00 -0.00000000000E+00 -0.14189911654E+04  0.14189911654E+04  0.00000000000E+00 0.  1.
          2    1    1    2  501    0 -0.19434766085E+03 -0.20829425535E+03  0.27449230457E+03  0.39560527721E+03  0.00000000000E+00 0.  1.
          1    1    1    2  502    0 -0.16709055814E+03  0.17200072293E+03 -0.12742241783E+04  0.12965919789E+04  0.00000000000E+00 0.  1.
         22    1    1    2    0    0  0.74125171556E+02  0.28089834873E+01  0.17721584342E+03  0.19211425404E+03  0.00000000000E+00 0. -1.
         22    1    1    2    0    0  0.28731304743E+03  0.33484548935E+02  0.25339685680E+03  0.38455164709E+03  0.00000000000E+00 0.  1.
</event>
<event>
 6    1  0.3701283E-005  0.8976828E+02  0.7818608E-02  0.1357005E+00
          2   -1    0    0  502    0  0.00000000000E+00  0.00000000000E+00  0.77094563916E+02  0.77094563916E+02  0.00000000000E+00 0. -1.
          1   -1    0    0  501    0 -0.00000000000E+00 -0.00000000000E+00 -0.12364738927E+04  0.12364738927E+04  0.00000000000E+00 0. -1.
          2    1    1    2  501    0 -0.21927148173E+02 -0.19518733135E+02 -0.36890420968E+02  0.47145348968E+02  0.00000000000E+00 0. -1.
          1    1    1    2  502    0  0.72951318484E+02  0.54173013834E+02 -0.11245389984E+04  0.11282041345E+04  0.00000000000E+00 0. -1.
         22    1    1    2    0    0 -0.16916746007E+02 -0.42343882861E+02 -0.54916060702E+02  0.71378949517E+02  0.00000000000E+00 0. -1.
         22    1    1    2    0    0 -0.34107424305E+02  0.76896021617E+01  0.56966151228E+02  0.66840023637E+02  0.00000000000E+00 0. -1.
</event>
<event>
 6    1  0.3701283E-005  0.4147465E+03  0.7818608E-02  0.1038790E+00
          2   -1    0    0  502    0  0.00000000000E+00  0.00000000000E+00  0.37165182252E+03  0.37165182252E+03  0.00000000000E+00 0. -1.
          1   -1    0    0  501    0 -0.00000000000E+00 -0.00000000000E+00 -0.52509074976E+03  0.52509074976E+03  0.00000000000E+00 0. -1.
          2    1    1    2  501    0 -0.56101405236E+02  0.10170056631E+03 -0.33980816315E+03  0.35910995615E+03  0.00000000000E+00 0. -1.
          1    1    1    2  502    0 -0.10455856709E+03 -0.80611670695E+01  0.27870050856E+03  0.29777751735E+03  0.00000000000E+00 0. -1.
         22    1    1    2    0    0  0.14980297312E+03 -0.12044091879E+03 -0.76424608911E+02  0.20685179845E+03  0.00000000000E+00 0. -1.
         22    1    1    2    0    0  0.10856999203E+02  0.26801519549E+02 -0.15906663734E+02  0.33003300334E+02  0.00000000000E+00 0.  1.
</event>
<event>
 6    1  0.3701283E-005  0.1570532E+03  0.7818608E-02  0.1192064E+00
          2   -1    0    0  502    0  0.00000000000E+00  0.00000000000E+00  0.84339117456E+02  0.84339117456E+02  0.00000000000E+00 0. -1.
          1   -1    0    0  501    0 -0.00000000000E+00 -0.00000000000E+00 -0.17090345683E+03  0.17090345683E+03  0.00000000000E+00 0. -1.
          2    1    1    2  501    0 -0.23951432249E+02  0.68043116120E+01 -0.54390590119E+01  0.25486332146E+02  0.00000000000E+00 0. -1.
          1    1    1    2  502    0  0.46472120737E+02  0.20526887811E+02 -0.84000171099E+02  0.98168426053E+02  0.00000000000E+00 0. -1.
         22    1    1    2    0    0 -0.33303498761E+02  0.12169733801E+02  0.54916821754E+02  0.65368821024E+02  0.00000000000E+00 0. -1.
         22    1    1    2    0    0  0.10782810273E+02 -0.39500933225E+02 -0.52041931013E+02  0.66218995058E+02  0.00000000000E+00 0. -1.
</event>
<event>
 6    1  0.3701283E-005  0.1770026E+03  0.7818608E-02  0.1170736E+00
          2   -1    0    0  502    0  0.00000000000E+00  0.00000000000E+00  0.15341127113E+03  0.15341127113E+03  0.00000000000E+00 0.  1.
          1   -1    0    0  501    0 -0.00000000000E+00 -0.00000000000E+00 -0.26783195436E+03  0.26783195436E+03  0.00000000000E+00 0.  1.
          2    1    1    2  501    0  0.25420737273E+02 -0.10166428777E+02 -0.14229149824E+02  0.30855127002E+02  0.00000000000E+00 0.  1.
          1    1    1    2  502    0 -0.42735108385E+02  0.16164553460E+01 -0.21394620142E+03  0.21817854963E+03  0.00000000000E+00 0.  1.
         22    1    1    2    0    0 -0.64237010183E+01 -0.52270742305E+02  0.16719060731E+02  0.55254153035E+02  0.00000000000E+00 0. -1.
         22    1    1    2    0    0  0.23738072131E+02  0.60820715737E+02  0.97035607282E+02  0.11695539582E+03  0.00000000000E+00 0.  1.
</event>
<event>
 6    1  0.3701283E-005  0.2422424E+03  0.7818608E-02  0.1118308E+00
          2   -1    0    0  502    0  0.00000000000E+00  0.00000000000E+00  0.37349892092E+03  0.37349892092E+03  0.00000000000E+00 0.  1.
          1   -1    0    0  501    0 -0.00000000000E+00 -0.00000000000E+00 -0.95903930468E+02  0.95903930468E+02  0.00000000000E+00 0.  1.
          2    1    1    2  501    0 -0.61407358109E+02 -0.17085312610E+02  0.29325566572E+02  0.70162385875E+02  0.00000000000E+00 0.  1.
          1    1    1    2  502    0 -0.27278964749E+02 -0.23024742516E+02 -0.50331625756E+02  0.61705374457E+02  0.00000000000E+00 0.  1.
         22    1    1    2    0    0  0.10719523720E+03 -0.45619843379E+01  0.22773536217E+03  0.25174396867E+03  0.00000000000E+00 0.  1.
         22    1    1    2    0    0 -0.18508914343E+02  0.44672039464E+02  0.70865687463E+02  0.85791122382E+02  0.00000000000E+00 0.  1.
</event>
<event>
 6    1  0.3701283E-005  0.1289946E+03  0.7818608E-02  0.1233169E+00
          2   -1    0    0  502    0  0.00000000000E+00  0.00000000000E+00  0.21710252407E+03  0.21710252407E+03  0.00000000000E+00 0. -1.
          1   -1    0    0  501    0 -0.00000000000E+00 -0.00000000000E+00 -0.31263452130E+03  0.31263452130E+03  0.00000000000E+00 0. -1.
          2    1    1    2  501    0 -0.93348735782E+02  0.72862171051E+02 -0.14908213244E+02  0.11935299437E+03  0.00000000000E+00 0. -1.
          1    1    1    2  502    0  0.31376745326E+02 -0.10018256458E+02 -0.20842170394E+03  0.21100822800E+03  0.00000000000E+00 0. -1.
         22    1    1    2    0    0 -0.32956700616E+02 -0.42632215889E+01  0.52186232289E+01  0.33638567184E+02  0.00000000000E+00 0.  1.
         22    1    1    2    0    0  0.94928691072E+02 -0.58580693003E+02  0.12257929673E+03  0.16573725582E+03  0.00000000000E+00 0. -1.
</event>
<event>
 6    1  0.3701283E-005  0.2579981E+03  0.7818608E-02  0.1108352E+00
          2   -1    0    0  502    0  0.00000000000E+00  0.00000000000E+00  0.51102936904E+03  0.51102936904E+03  0.00000000000E+00 0. -1.
          1   -1    0    0  501    0 -0.00000000000E+00 -0.00000000000E+00 -0.17394187727E+03  0.17394187727E+03  0.00000000000E+00 0.  1.
          2    1    1    2  501    0 -0.11711688703E+03 -0.85998995480E+01  0.15973135283E+03  0.19825344531E+03  0.00000000000E+00 0. -1.
          1    1    1    2  502    0  0.14296238103E+03 -0.41180675369E+02 -0.98700677247E+02  0.17853827069E+03  0.00000000000E+00 0.  1.
         22    1    1    2    0    0 -0.11721785772E+02  0.85204624426E+02  0.24278744701E+03  0.25757129637E+03  0.00000000000E+00 0. -1.
         22    1    1    2    0    0 -0.14123708225E+02 -0.35424049509E+02  0.33269369181E+02  0.50608233948E+02  0.00000000000E+00 0. -1.
</event>
<event>
 6    1  0.3701283E-005  0.2901742E+03  0.7818608E-02  0.1090258E+00
          2   -1    0    0  502    0  0.00000000000E+00  0.00000000000E+00  0.25712197538E+03  0.25712197538E+03  0.00000000000E+00 0.  1.
          1   -1    0    0  501    0 -0.00000000000E+00 -0.00000000000E+00 -0.22502313971E+03  0.22502313971E+03  0.00000000000E+00 0.  1.
          2    1    1    2  501    0  0.40775236398E+02 -0.98911644188E+01 -0.54961901370E+02  0.69146696516E+02  0.00000000000E+00 0.  1.
          1    1    1    2  502    0  0.23374517815E+02 -0.32815816633E+01 -0.14186758837E+03  0.14381776487E+03  0.00000000000E+00 0.  1.
         22    1    1    2    0    0  0.72198175871E+01  0.10153491387E+02 -0.12354498440E+02  0.17545734098E+02  0.00000000000E+00 0. -1.
         22    1    1    2    0    0 -0.71369571800E+02  0.30192546952E+01  0.24128282386E+03  0.25163491961E+03  0.00000000000E+00 0.  1.
</event>
<event>
 6    1  0.3701283E-005  0.2163768E+03  0.7818608E-02  0.1136613E+00
          2   -1    0    0  502    0  0.00000000000E+00  0.00000000000E+00  0.77956227639E+02  0.77956227639E+02  0.00000000000E+00 0. -1.
          1   -1    0    0  501    0 -0.00000000000E+00 -0.00000000000E+00 -0.10560664855E+04  0.10560664855E+04  0.00000000000E+00 0.  1.
          2    1    1    2  501    0  0.31359915645E+02 -0.65219626582E+02 -0.68573646295E+02  0.99696484226E+02  0.00000000000E+00 0. -1.
          1    1    1    2  502    0 -0.61951468608E+02  0.36576032925E+02 -0.90167761249E+03  0.90454314851E+03  0.00000000000E+00 0.  1.
         22    1    1    2    0    0 -0.34254930495E+02 -0.26822408977E+02 -0.90716103282E+01  0.44442502185E+02  0.00000000000E+00 0.  1.
         22    1    1    2    0    0  0.64846483458E+02  0.55466002634E+02  0.12126112511E+01  0.85340578221E+02  0.00000000000E+00 0. -1.
</event>
<event>
 6    1  0.3701283E-005  0.1143458E+03  0.7818608E-02  0.1253747E+00
          2   -1    0    0  502    0  0.00000000000E+00  0.00000000000E+00  0.80272427733E+03  0.80272427733E+03  0.00000000000E+00 0. -1.
          1   -1    0    0  501    0 -0.00000000000E+00 -0.00000000000E+00 -0.96874782125E+02  0.96874782125E+02  0.00000000000E+00 0. -1.
          2    1    1    2  501    0  0.68077724239E+02  0.78861727365E+02  0.19769745091E+03  0.22346818717E+03  0.00000000000E+00 0. -1.
          1    1    1    2  502    0 -0.17430948817E+02 -0.13124108699E+02 -0.72673275438E+02  0.75878094130E+02  0.00000000000E+00 0. -1.
         22    1    1    2    0    0  0.12315843555E+02  0.21123448460E+02  0.28261607963E+02  0.37371092598E+02  0.00000000000E+00 0. -1.
         22    1    1    2    0    0 -0.62962618978E+02 -0.86861067126E+02  0.55256371177E+03  0.56288168555E+03  0.00000000000E+00 0. -1.
</event>
<event>
 6    1  0.3701283E-005  0.1294689E+03  0.7818608E-02  0.1228641E+00
          2   -1    0    0  502    0  0.00000000000E+00  0.00000000000E+00  0.91556329137E+03  0.91556329137E+03  0.00000000000E+00 0. -1.
          1   -1    0    0  501    0 -0.00000000000E+00 -0.00000000000E+00 -0.63265578059E+02  0.63265578059E+02  0.00000000000E+00 0. -1.
          2    1    1    2  501    0 -0.79482168689E+01  0.71659598694E+02  0.12532867867E+03  0.14458751652E+03  0.00000000000E+00 0. -1.
          1    1    1    2  502    0 -0.59700234130E+02  0.48221286809E+02 -0.73226468140E+01  0.77091060527E+02  0.00000000000E+00 0. -1.
         22    1    1    2    0    0 -0.10432941249E+02  0.17114471083E+02  0.35302154509E+02  0.40595486159E+02  0.00000000000E+00 0. -1.
         22    1    1    2    0    0  0.78081392248E+02 -0.13699535659E+03  0.69898952694E+03  0.71655480622E+03  0.00000000000E+00 0. -1.
</event>
<event>
 6    1  0.3701283E-005  0.5991087E+02  0.7818608E-02  0.1401199E+00
          2   -1    0    0  502    0  0.00000000000E+00  0.00000000000E+00  0.44299867814E+02  0.44299867814E+02  0.00000000000E+00 0. -1.
          1   -1    0    0  501    0 -0.00000000000E+00 -0.00000000000E+00 -0.13380001417E+04  0.13380001417E+04  0.00000000000E+00 0. -1.
          2    1    1    2  501    0 -0.14740016332E+02  0.37488737798E+02  0.20201326265E+01  0.40333044504E+02  0.00000000000E+00 0. -1.
          1    1    1    2  502    0  0.42204453296E+02  0.12488190380E+02 -0.10998565034E+04  0.11007367982E+04  0.00000000000E+00 0. -1.
         22    1    1    2    0    0 -0.26095319082E+02 -0.67127449665E+02 -0.20803907214E+03  0.22015293710E+03  0.00000000000E+00 0.  1.
         22    1    1    2    0    0 -0.13691178818E+01  0.17150521487E+02  0.12175169052E+02  0.21077229716E+02  0.00000000000E+00 0. -1.
</event>
<event>
 6    1  0.3701283E-005  0.3094298E+03  0.7818608E-02  0.1081196E+00
          2   -1    0    0  502    0  0.00000000000E+00  0.00000000000E+00  0.21961875711E+04  0.21961875711E+04  0.00000000000E+00 0.  1.
          1   -1    0    0  501    0 -0.00000000000E+00 -0.00000000000E+00 -0.43546421014E+03  0.43546421014E+03  0.00000000000E+00 0.  1.
          2    1    1    2  501    0  0.32555590686E+03 -0.18774617004E+03  0.11544848900E+04  0.12141131060E+04  0.00000000000E+00 0.  1.
          1    1    1    2  502    0 -0.15427524328E+03  0.59500055852E+01 -0.37053196334E+03  0.40141025038E+03  0.00000000000E+00 0.  1.
         22    1    1    2    0    0  0.17064167062E+02  0.11380518589E+01  0.36447339469E+02  0.40260272154E+02  0.00000000000E+00 0. -1.
         22    1    1    2    0    0 -0.18834483064E+03  0.18065811259E+03  0.94032309483E+03  0.97586815274E+03  0.00000000000E+00 0. -1.
</event>
<event>
 6    1  0.3701283E-005  0.8466636E+02  0.7818608E-02  0.1318733E+00
          2   -1    0    0  502    0  0.00000000000E+00  0.00000000000E+00  0.55528915491E+02  0.55528915491E+02  0.00000000000E+00 0.  1.
          1   -1    0    0  501    0 -0.00000000000E+00 -0.00000000000E+00 -0.24107395553E+03  0.24107395553E+03  0.00000000000E+00 0.  1.
          2    1    1    2  501    0 -0.39719125204E+02 -0.23856504339E+02 -0.60351540251E+02  0.76085807592E+02  0.00000000000E+00 0.  1.
          1    1    1    2  502    0  0.41048171774E+02  0.80327726310E+01  0.19992356166E+01  0.41874512358E+02  0.00000000000E+00 0.  1.
         22    1    1    2    0    0 -0.56950363011E+02 -0.16090892865E+02 -0.44741837165E+02  0.74189572537E+02  0.00000000000E+00 0.  1.
         22    1    1    2    0    0  0.55621316441E+02  0.31914624573E+02 -0.82450898240E+02  0.10445297854E+03  0.00000000000E+00 0.  1.
</event>
<event>
 6    1  0.4166250E-005  0.2516125E+03  0.7818608E-02  0.1112290E+00
          2   -1    0    0  502    0  0.00000000000E+00  0.00000000000E+00  0.15611283496E+03  0.15611283496E+03  0.00000000000E+00 0.  1.
          1   -1    0    0  501    0 -0.00000000000E+00 -0.00000000000E+00 -0.21958001591E+04  0.21958001591E+04  0.00000000000E+00 0. -1.
          2    1    1    2  501    0 -0.19194671760E+02 -0.84051399502E+01 -0.67756570647E+02  0.70922737309E+02  0.00000000000E+00 0.  1.
          1    1    1    2  502    0 -0.19176250495E+02  0.70344204787E+02 -0.20933684625E+04  0.20946378101E+04  0.00000000000E+00 0. -1.
         22    1    1    2    0    0  0.26895997949E+02 -0.26725396466E+02 -0.18077389138E+02  0.42005160635E+02  0.00000000000E+00 0.  1.
         22    1    1    2    0    0  0.11474924307E+02 -0.35213668371E+02  0.13951509821E+03  0.14434728594E+03  0.00000000000E+00 0.  1.
</event>
<event>
 6    1  0.3701283E-005  0.2491074E+03  0.7818608E-02  0.1129632E+00
          2   -1    0    0  502    0  0.00000000000E+00  0.00000000000E+00  0.10458150525E+04  0.10458150525E+04  0.00000000000E+00 0. -1.
          1   -1    0    0  501    0 -0.00000000000E+00 -0.00000000000E+00 -0.19356740021E+03  0.19356740021E+03  0.00000000000E+00 0. -1.
          2    1    1    2  501    0 -0.87074412594E+02 -0.56614168730E+01 -0.37788646311E+02  0.95089361969E+02  0.00000000000E+00 0. -1.
          1    1    1    2  502    0  0.35143414157E+03 -0.97629183429E+02  0.67892138864E+03  0.77069557237E+03  0.00000000000E+00 0. -1.
         22    1    1    2    0    0 -0.13551120932E+03  0.99574675326E+02  0.16793246476E+03  0.23765461607E+03  0.00000000000E+00 0.  1.
         22    1    1    2    0    0 -0.12884851966E+03  0.37159249764E+01  0.43182445209E+02  0.13594290232E+03  0.00000000000E+00 0.  1.
</event>
<event>
 6    1  0.3701283E-005  0.1623414E+03  0.7818608E-02  0.1186078E+00
          2   -1    0    0  502    0  0.00000000000E+00  0.00000000000E+00  0.44160383708E+02  0.44160383708E+02  0.00000000000E+00 0. -1.
          1   -1    0    0  501    0 -0.00000000000E+00 -0.00000000000E+00 -0.26264902114E+03  0.26264902114E+03  0.00000000000E+00 0. -1.
          2    1    1    2  501    0  0.21384009724E+02 -0.11380599158E+02 -0.45523522698E+02  0.51567286412E+02  0.00000000000E+00 0. -1.
          1    1    1    2  502    0 -0.31363481209E+02 -0.15700083144E+02 -0.99585744861E+02  0.10558163261E+03  0.00000000000E+00 0. -1.
         22    1    1    2    0    0  0.67134040439E+02  0.24346700497E+02 -0.28296894501E+02  0.76814422143E+02  0.00000000000E+00 0. -1.
         22    1    1    2    0    0 -0.57154568954E+02  0.27339818043E+01 -0.45082475366E+02  0.72846063682E+02  0.00000000000E+00 0. -1.
</event>
<event>
 6    1  0.3701283E-005  0.1545474E+03  0.7818608E-02  0.1194994E+00
          2   -1    0    0  502    0  0.00000000000E+00  0.00000000000E+00  0.21239381029E+03  0.21239381029E+03  0.00000000000E+00 0. -1.
          1   -1    0    0  501    0 -0.00000000000E+00 -0.00000000000E+00 -0.40013087569E+02  0.40013087569E+02  0.00000000000E+00 0. -1.
          2    1    1    2  501    0 -0.89977472503E+01  0.19268490048E+02  0.99481350344E+01  0.23477639468E+02  0.00000000000E+00 0. -1.
          1    1    1    2  502    0 -0.14466932833E+02 -0.25882798875E+02  0.31916381211E+02  0.43564513228E+02  0.00000000000E+00 0. -1.
         22    1    1    2    0    0  0.41410576076E+02  0.10863290437E+02  0.15149752524E+03  0.15743045145E+03  0.00000000000E+00 0. -1.
         22    1    1    2    0    0 -0.17945895993E+02 -0.42489816105E+01 -0.20981318769E+02  0.27934293709E+02  0.00000000000E+00 0. -1.
</event>
<event>
 6    1  0.3701283E-005  0.9413329E+02  0.7818608E-02  0.1295975E+00
          2   -1    0    0  502    0  0.00000000000E+00  0.00000000000E+00  0.56052234269E+02  0.56052234269E+02  0.00000000000E+00 0. -1.
          1   -1    0    0  501    0 -0.00000000000E+00 -0.00000000000E+00 -0.97214090316E+03  0.97214090316E+03  0.00000000000E+00 0. -1.
          2    1    1    2  501    0  0.53948605767E+02 -0.98889290862E+02 -0.30809134014E+03  0.32803935401E+03  0.00000000000E+00 0. -1.
          1    1    1    2  502    0 -0.64023815916E+02  0.41906365055E+02 -0.54505540193E+03  0.55040038482E+03  0.00000000000E+00 0. -1.
         22    1    1    2    0    0  0.93398669655E+01  0.84799009066E+02 -0.49785085198E+01  0.85456951740E+02  0.00000000000E+00 0. -1.
         22    1    1    2    0    0  0.73534318302E+00 -0.27816083259E+02 -0.57963418305E+02  0.64296446862E+02  0.00000000000E+00 0.  1.
</event>
<event>
 6    1  0.3701283E-005  0.1159931E+03  0.7818608E-02  0.1251058E+00
          2   -1    0    0  502    0  0.00000000000E+00  0.00000000000E+00  0.46743321666E+03  0.46743321666E+03  0.00000000000E+00 0.  1.
          1   -1    0    0  501    0 -0.00000000000E+00 -0.00000000000E+00 -0.65157839677E+03  0.65157839677E+03  0.00000000000E+00 0. -1.
          2    1    1    2  501    0  0.75714601313E+02 -0.54423784701E+02  0.21690963649E+03  0.23610260396E+03  0.00000000000E+00 0.  1.
          1    1    1    2  502    0 -0.38235162657E+02  0.13300681208E+02 -0.62157224295E+03  0.62288914664E+03  0.00000000000E+00 0. -1.
         22    1    1    2    0    0 -0.76646485541E+02  0.50190954925E+02  0.11454534704E+03  0.14667805640E+03  0.00000000000E+00 0.  1.
         22    1    1    2    0    0  0.39167046885E+02 -0.90678514314E+01  0.10597207931E+03  0.11334180643E+03  0.00000000000E+00 0. -1.
</event>
<event>
 6    1  0.3701283E-005  0.2510131E+03  0.7818608E-02  0.1112666E+00
          2   -1    0    0  502    0  0.00000000000E+00  0.00000000000E+00  0.16143897668E+03  0.16143897668E+03  0.00000000000E+00 0.  1.
          1   -1    0    0  501    0 -0.00000000000E+00 -0.00000000000E+00 -0.61339171601E+03  0.61339171601E+03  0.00000000000E+00 0. -1.
          2    1    1    2  501    0  0.61824076106E+02 -0.75256524342E+02  0.41121630139E+02  0.10572014618E+03  0.00000000000E+00 0.  1.
          1    1    1    2  502    0 -0.22800563638E+01  0.20078526685E+02 -0.51550213883E+03  0.51589805295E+03  0.00000000000E+00 0. -1.
         22    1    1    2    0    0  0.17065539073E+02 -0.57683742768E+01  0.48640040384E+02  0.51868683174E+02  0.00000000000E+00 0.  1.
         22    1    1    2    0    0 -0.76609558815E+02  0.60946371934E+02 -0.26212271018E+02  0.10134381040E+03  0.00000000000E+00 0.  1.
</event>
<event>
 6    1  0.3701283E-005  0.1746205E+03  0.7818608E-02  0.1173113E+00
          2   -1    0    0  502    0  0.00000000000E+00  0.00000000000E+00  0.46133080065E+03  0.46133080065E+03  0.00000000000E+00 0. -1.
          1   -1    0    0  501    0 -0.00000000000E+00 -0.00000000000E+00 -0.32223850040E+03  0.32223850040E+03  0.00000000000E+00 0. -1.
          2    1    1    2  501    0  0.27114175054E+02 -0.24727275169E+02  0.76729457491E+02  0.85053079150E+02  0.00000000000E+00 0. -1.
          1    1    1    2  502    0  0.42786006880E+01  0.71398009803E+02 -0.30137738821E+03  0.30974878911E+03  0.00000000000E+00 0. -1.
         22    1    1    2    0    0  0.30913412579E+02  0.26155978901E+02  0.88691572111E+02  0.97498560364E+02  0.00000000000E+00 0. -1.
         22    1    1    2    0    0 -0.62306188321E+02 -0.72826713535E+02  0.27504865885E+03  0.29126887243E+03  0.00000000000E+00 0. -1.
</event>
<event>
 6    1  0.3701283E-005  0.5509299E+03  0.7818608E-02  0.1001279E+00
          2   -1    0    0  502    0  0.00000000000E+00  0.00000000000E+00  0.10463619199E+04  0.10463619199E+04  0.00000000000E+00 0.  1.
          1   -1    0    0  501    0 -0.00000000000E+00 -0.00000000000E+00 -0.29827620537E+03  0.29827620537E+03  0.00000000000E+00 0.  1.
          2    1    1    2  501    0  0.19623630121E+03  0.62422374256E+02  0.12080556890E+03  0.23874510298E+03  0.00000000000E+00 0.  1.
          1    1    1    2  502    0 -0.17564397425E+02 -0.35957189480E+02 -0.22385983476E+03  0.22740855997E+03  0.00000000000E+00 0.  1.
         22    1    1    2    0    0 -0.19268192401E+03 -0.16874192925E+02  0.82458206345E+03  0.84696318786E+03  0.00000000000E+00 0.  1.
         22    1    1    2    0    0  0.14010020225E+02 -0.95909918498E+01  0.26557916975E+02  0.31521274489E+02  0.00000000000E+00 0. -1.
</event>
<event>
 6    1  0.3701283E-005  0.7767717E+02  0.7818608E-02  0.1339208E+00
          2   -1    0    0  502    0  0.00000000000E+00  0.00000000000E+00  0.72723772827E+03  0.72723772827E+03  0.00000000000E+00 0. -1.
          1   -1    0    0  501    0 -0.00000000000E+00 -0.00000000000E+00 -0.18385523527E+02  0.18385523527E+02  0.00000000000E+00 0. -1.
          2    1    1    2  501    0  0.16245503373E+00  0.30569403069E+02  0.35826399011E+02  0.47096132131E+02  0.00000000000E+00 0. -1.
          1    1    1    2  502    0  0.19233509149E+02  0.18545033049E+02  0.33192901596E+03  0.33300257921E+03  0.00000000000E+00 0. -1.
         22    1    1    2    0    0  0.77270132726E+01 -0.77193519796E+02  0.29542399634E+03  0.30544047513E+03  0.00000000000E+00 0. -1.
         22    1    1    2    0    0 -0.27122977455E+02  0.28079083677E+02  0.45672793431E+02  0.60084065325E+02  0.00000000000E+00 0. -1.
</event>
<event>
 6    1  0.3701283E-005  0.2470496E+03  0.7818608E-02  0.1115184E+00
          2   -1    0    0  502    0  0.00000000000E+00  0.00000000000E+00  0.14712723030E+03  0.14712723030E+03  0.00000000000E+00 0.  1.
          1   -1    0    0  501    0 -0.00000000000E+00 -0.00000000000E+00 -0.36096699547E+03  0.36096699547E+03  0.00000000000E+00 0. -1.
          2    1    1    2  501    0 -0.36098142898E+02  0.27924132163E+02 -0.49714612271E+02  0.67486115246E+02  0.00000000000E+00 0.  1.
          1    1    1    2  502    0 -0.11719842138E+02 -0.13942951613E+03 -0.22027833344E+03  0.26096070365E+03  0.00000000000E+00 0. -1.
         22    1    1    2    0    0 -0.33773061114E+02  0.29233310160E+02 -0.10622451744E+02  0.45913424627E+02  0.00000000000E+00 0. -1.
         22    1    1    2    0    0  0.81591046149E+02  0.82272073806E+02  0.66775632286E+02  0.13373398225E+03  0.00000000000E+00 0.  1.
</event>
<event>
 6    1  0.3701283E-005  0.5945095E+02  0.7818608E-02  0.1402268E+00
          2   -1    0    0  502    0  0.00000000000E+00  0.00000000000E+00  0.27632738753E+03  0.27632738753E+03  0.00000000000E+00 0. -1.
          1   -1    0    0  501    0 -0.00000000000E+00 -0.00000000000E+00 -0.63169354312E+02  0.63169354312E+02  0.00000000000E+00 0.  1.
          2    1    1    2  501    0  0.15205697695E+02  0.27183256585E+02 -0.28976073482E+01  0.31281604967E+02  0.00000000000E+00 0. -1.
          1    1    1    2  502    0 -0.28272774151E+02  0.88284465517E+01 -0.21895272633E+02  0.36833329884E+02  0.00000000000E+00 0.  1.
         22    1    1    2    0    0 -0.15603708606E+01  0.21211995968E+02 -0.45848594585E+01  0.21757859877E+02  0.00000000000E+00 0.  1.
         22    1    1    2    0    0  0.14627447317E+02 -0.57223699105E+02  0.24253577266E+03  0.24962394712E+03  0.00000000000E+00 0. -1.
</event>
<event>
 6    1  0.3701283E-005  0.1063118E+03  0.7818608E-02  0.1269125E+00
          2   -1    0    0  502    0  0.00000000000E+00  0.00000000000E+00  0.86708870681E+02  0.86708870681E+02  0.00000000000E+00 0. -1.
          1   -1    0    0  501    0 -0.00000000000E+00 -0.00000000000E+00 -0.12272045068E+04  0.12272045068E+04  0.00000000000E+00 0. -1.
          2    1    1    2  501    0 -0.27718210024E+02 -0.94984395043E+02 -0.83637045785E+02  0.12955882794E+03  0.00000000000E+00 0. -1.
          1    1    1    2  502    0 -0.27093704304E+02  0.58221254704E+02 -0.10446352655E+04  0.10466071953E+04  0.00000000000E+00 0. -1.
         22    1    1    2    0    0  0.76284400206E+02  0.61739663598E+02  0.90223900211E+01  0.98552013159E+02  0.00000000000E+00 0. -1.
         22    1    1    2    0    0 -0.21472485878E+02 -0.24976523259E+02 -0.21245714861E+02  0.39195341099E+02  0.00000000000E+00 0. -1.
</event>
<event>
 6    1  0.3701283E-005  0.5287077E+02  0.7818608E-02  0.1437897E+00
          2   -1    0    0  502    0  0.00000000000E+00  0.00000000000E+00  0.56953827764E+02  0.56953827764E+02  0.00000000000E+00 0.  1.
          1   -1    0    0  501    0 -0.00000000000E+00 -0.00000000000E+00 -0.15759292394E+04  0.15759292394E+04  0.00000000000E+00 0.  1.
          2    1    1    2  501    0  0.39837475563E+02  0.31845546146E+01 -0.13810911015E+03  0.14377514442E+03  0.00000000000E+00 0.  1.
          1    1    1    2  502    0 -0.19839041768E+02 -0.21815748909E+02 -0.13633105180E+04  0.13636293789E+04  0.00000000000E+00 0.  1.
         22    1    1    2    0    0 -0.34261757592E+02  0.32557938525E+02  0.41656137816E+02  0.63000961993E+02  0.00000000000E+00 0.  1.
         22    1    1    2    0    0  0.14263323798E+02 -0.13926744231E+02 -0.59211921284E+02  0.62477581842E+02  0.00000000000E+00 0. -1.
</event>
<event>
 6    1  0.3701283E-005  0.2449635E+03  0.7818608E-02  0.1153499E+00
          2   -1    0    0  502    0  0.00000000000E+00  0.00000000000E+00  0.24757416580E+04  0.24757416580E+04  0.00000000000E+00 0.  1.
          1   -1    0    0  501    0 -0.00000000000E+00 -0.00000000000E+00 -0.43911871551E+03  0.43911871551E+03  0.00000000000E+00 0. -1.
          2    1    1    2  501    0  0.18364370716E+03 -0.23776343902E+03  0.20483881950E+04  0.20703020701E+04  0.00000000000E+00 0.  1.
          1    1    1    2  502    0 -0.14120900668E+03  0.18955916657E+03 -0.38214918404E+03  0.44934470071E+03  0.00000000000E+00 0. -1.
         22    1    1    2    0    0  0.22346804326E+02 -0.27443948089E+02  0.13636502190E+03  0.14088282063E+03  0.00000000000E+00 0.  1.
         22    1    1    2    0    0 -0.64781504805E+02  0.75648220541E+02  0.23401890957E+03  0.25433078200E+03  0.00000000000E+00 0.  1.
</event>
<event>
 6    1  0.3701283E-005  0.9421796E+02  0.7818608E-02  0.1295929E+00
          2   -1    0    0  502    0  0.00000000000E+00  0.00000000000E+00  0.22618727378E+03  0.22618727378E+03  0.00000000000E+00 0.  1.
          1   -1    0    0  501    0 -0.00000000000E+00 -0.00000000000E+00 -0.13599399374E+03  0.13599399374E+03  0.00000000000E+00 0.  1.
          2    1    1    2  501    0  0.60829597732E+02  0.25606369163E+02  0.83057247342E+02  0.10608690983E+03  0.00000000000E+00 0.  1.
          1    1    1    2  502    0 -0.28127806716E+02 -0.70361639074E+02 -0.66822474227E+02  0.10103057372E+03  0.00000000000E+00 0.  1.
         22    1    1    2    0    0 -0.70467107476E+02  0.52980545495E+02  0.23013241930E+02  0.91116193627E+02  0.00000000000E+00 0.  1.
         22    1    1    2    0    0  0.37765316460E+02 -0.82252755833E+01  0.50945264994E+02  0.63947590346E+02  0.00000000000E+00 0.  1.
</event>
<event>
 6    1  0.3701283E-005  0.5436683E+03  0.7818608E-02  0.1057982E+00
          2   -1    0    0  502    0  0.00000000000E+00  0.00000000000E+00  0.66901531378E+03  0.66901531378E+03  0.00000000000E+00 0. -1.
          1   -1    0    0  501    0 -0.00000000000E+00 -0.00000000000E+00 -0.74904684447E+03  0.74904684447E+03  0.00000000000E+00 0. -1.
          2    1    1    2  501    0  0.40969089588E+03 -0.10621916443E+03  0.43510763925E+02  0.42546718750E+03  0.00000000000E+00 0. -1.
          1    1    1    2  502    0 -0.54290061313E+03  0.19727801089E+03 -0.35930334699E+03  0.68026361396E+03  0.00000000000E+00 0. -1.
         22    1    1    2    0    0  0.40625228634E+02 -0.38821492593E+02  0.27993508184E+01  0.56261477529E+02  0.00000000000E+00 0. -1.
         22    1    1    2    0    0  0.92584488610E+02 -0.52237353866E+02  0.23296170156E+03  0.25606987926E+03  0.00000000000E+00 0. -1.
</event>
<event>
 6    1  0.3701283E-005  0.2137299E+03  0.7818608E-02  0.1138646E+00
          2   -1    0    0  502    0  0.00000000000E+00  0.00000000000E+00  0.31200781503E+02  0.31200781503E+02  0.00000000000E+00 0. -1.
          1   -1    0    0  501    0 -0.00000000000E+00 -0.00000000000E+00 -0.74964531465E+03  0.74964531465E+03  0.00000000000E+00 0. -1.
          2    1    1    2  501    0  0.47140719275E+02 -0.19025173432E+02 -0.23962221459E+03  0.24495511908E+03  0.00000000000E+00 0. -1.
          1    1    1    2  502    0  0.29274833502E+02  0.77063394407E+02 -0.12179468472E+03  0.14707048602E+03  0.00000000000E+00 0. -1.
         22    1    1    2    0    0  0.27671849206E+02  0.94508720117E+01 -0.83643655844E+02  0.88607625988E+02  0.00000000000E+00 0.  1.
         22    1    1    2    0    0 -0.10408740198E+03 -0.67489092987E+02 -0.27338397800E+03  0.30021286507E+03  0.00000000000E+00 0. -1.
</event>
<event>
 6    1  0.3701283E-005  0.2090464E+03  0.7818608E-02  0.1142323E+00
          2   -1    0    0  502    0  0.00000000000E+00  0.00000000000E+00  0.18712841156E+03  0.18712841156E+03  0.00000000000E+00 0. -1.
          1   -1    0    0  501    0 -0.00000000000E+00 -0.00000000000E+00 -0.17334061689E+03  0.17334061689E+03  0.00000000000E+00 0.  1.
          2    1    1    2  501    0  0.31540014370E+02 -0.58399207211E+02  0.72372553607E+01  0.66765393540E+02  0.00000000000E+00 0. -1.
          1    1    1    2  502    0  0.11212318996E+01  0.29060819703E+02 -0.11252643493E+03  0.11622386571E+03  0.00000000000E+00 0.  1.
         22    1    1    2    0    0  0.40409431884E+02 -0.65768222184E+01  0.73598069437E+02  0.84219075040E+02  0.00000000000E+00 0. -1.
         22    1    1    2    0    0 -0.73070678154E+02  0.35915209727E+02  0.45478904792E+02  0.93260694168E+02  0.00000000000E+00 0. -1.
</event>
<event>
 6    1  0.3701283E-005  0.9188204E+02  0.7818608E-02  0.1361564E+00
          2   -1    0    0  502    0  0.00000000000E+00  0.00000000000E+00  0.18129847153E+03  0.18129847153E+03  0.00000000000E+00 0. -1.
          1   -1    0    0  501    0 -0.00000000000E+00 -0.00000000000E+00 -0.86044695443E+03  0.86044695443E+03  0.00000000000E+00 0. -1.
          2    1    1    2  501    0 -0.49092082339E+02  0.30527281128E+02  0.11942690989E+01  0.57821913840E+02  0.00000000000E+00 0. -1.
          1    1    1    2  502    0  0.73165924293E+02 -0.45000594786E+02 -0.80163883899E+03  0.80622771856E+03  0.00000000000E+00 0. -1.
         22    1    1    2    0    0  0.25780008982E+02  0.15725758818E+02  0.12412548306E+03  0.12774601324E+03  0.00000000000E+00 0. -1.
         22    1    1    2    0    0 -0.49853850937E+02 -0.12524451596E+01 -0.28293960750E+01  0.49949780322E+02  0.00000000000E+00 0. -1.
</event>
<event>
 6    1  0.3701283E-005  0.8268296E+02  0.7818608E-02  0.1322662E+00
          2   -1    0    0  502    0  0.00000000000E+00  0.00000000000E+00  0.43343804964E+02  0.43343804964E+02  0.00000000000E+00 0. -1.
          1   -1    0    0  501    0 -0.00000000000E+00 -0.00000000000E+00 -0.23189647315E+04  0.23189647315E+04  0.00000000000E+00 0. -1.
          2    1    1    2  501    0  0.11194816610E+02 -0.43465391127E+02 -0.21505689859E+03  0.21969076852E+03  0.00000000000E+00 0. -1.
          1    1    1    2  502    0 -0.42126221879E+02 -0.12977385824E+02 -0.19840303402E+04  0.19845199475E+04  0.00000000000E+00 0. -1.
         22    1    1    2    0    0 -0.48447155457E+00 -0.22336375206E+02 -0.69490468554E+02  0.72993654449E+02  0.00000000000E+00 0. -1.
         22    1    1    2    0    0  0.31415876824E+02  0.78779152157E+02 -0.70432191661E+01  0.85104165982E+02  0.00000000000E+00 0. -1.
</event>
<event>
 6    1  0.3701283E-005  0.1231889E+03  0.7818608E-02  0.1239708E+00
          2   -1    0    0  502    0  0.00000000000E+00  0.00000000000E+00  0.32937932136E+03  0.32937932136E+03  0.00000000000E+00 0.  1.
          1   -1    0    0  501    0 -0.00000000000E+00 -0.00000000000E+00 -0.20143663747E+03  0.20143663747E+03  0.00000000000E+00 0. -1.
          2    1    1    2  501    0 -0.85630754239E+02  0.43035855052E+02  0.14086144683E+03  0.17037211654E+03  0.00000000000E+00 0.  1.
          1    1    1    2  502    0 -0.27046068762E+02  0.66849379198E+02 -0.11356519542E+03  0.13452651391E+03  0.00000000000E+00 0. -1.
         22    1    1    2    0    0  0.12197600209E+03 -0.11709081399E+03  0.53526897185E+02  0.17735143791E+03  0.00000000000E+00 0.  1.
         22    1    1    2    0    0 -0.92991790884E+01  0.72055797446E+01  0.47119535287E+02  0.48565890467E+02  0.00000000000E+00 0. -1.
</event>
<event>
 6    1  0.3701283E-005  0.2438163E+03  0.7818608E-02  0.1117276E+00
          2   -1    0    0  502    0  0.00000000000E+00  0.00000000000E+00  0.34575147908E+03  0.34575147908E+03  0.00000000000E+00 0. -1.
          1   -1    0    0  501    0 -0.00000000000E+00 -0.00000000000E+00 -0.14114150766E+03  0.14114150766E+03  0.00000000000E+00 0. -1.
          2    1    1    2  501    0  0.92831210273E+02 -0.40838712407E+02  0.66185710666E+02  0.12110318876E+03  0.00000000000E+00 0. -1.
          1    1    1    2  502    0 -0.77441494710E+02  0.10697743128E+02 -0.80184422707E+02  0.11198735846E+03  0.00000000000E+00 0. -1.
         22    1    1    2    0    0 -0.18197408446E+02 -0.28027409346E+02  0.67581242711E+01  0.34093307151E+02  0.00000000000E+00 0. -1.
         22    1    1    2    0    0  0.28076928833E+01  0.58168378625E+02  0.21185055919E+03  0.21970913235E+03  0.00000000000E+00 0. -1.
</event>
<event>
 6    1  0.3701283E-005  0.2351733E+03  0.7818608E-02  0.1123051E+00
          2   -1    0    0  502    0  0.00000000000E+00  0.00000000000E+00  0.35649475309E+03  0.35649475309E+03  0.00000000000E+00 0. -1.
          1   -1    0    0  501    0 -0.00000000000E+00 -0.00000000000E+00 -0.25174941959E+03  0.25174941959E+03  0.00000000000E+00 0. -1.
          2    1    1    2  501    0 -0.29471854707E+02 -0.59447211573E+02 -0.14050196868E+03  0.15538135148E+03  0.00000000000E+00 0. -1.
          1    1    1    2  502    0 -0.12565071895E+02  0.88364556413E+02  0.29344895417E+03  0.30672212924E+03  0.00000000000E+00 0. -1.
         22    1    1    2    0    0 -0.22311856136E+02 -0.57069513736E+02 -0.44641477651E+02  0.75812992615E+02  0.00000000000E+00 0. -1.
         22    1    1    2    0    0  0.64348782738E+02  0.28152168897E+02 -0.35601743335E+01  0.70327699343E+02  0.00000000000E+00 0. -1.
</event>
<event>
 6    1  0.3701283E-005  0.2362681E+03  0.7818608E-02  0.1122304E+00
          2   -1    0    0  502    0  0.00000000000E+00  0.00000000000E+00  0.21239091882E+03  0.21239091882E+03  0.00000000000E+00 0. -1.
          1   -1    0    0  501    0 -0.00000000000E+00 -0.00000000000E+00 -0.20312489790E+03  0.20312489790E+03  0.00000000000E+00 0.  1.
          2    1    1    2  501    0 -0.75890582309E+01 -0.43654419611E+02 -0.15531205851E+02  0.46952321685E+02  0.00000000000E+00 0. -1.
          1    1    1    2  502    0  0.91550972444E+02 -0.30859261369E+02 -0.11366807658E+03  0.14917877262E+03  0.00000000000E+00 0.  1.
         22    1    1    2    0    0 -0.17426015919E+02 -0.29463522581E+02  0.47111828200E+00  0.34234297803E+02  0.00000000000E+00 0. -1.
         22    1    1    2    0    0 -0.66535898294E+02  0.10397720356E+03  0.13799418507E+03  0.18515042461E+03  0.00000000000E+00 0. -1.
</event>
<event>
 6    1  0.3701283E-005  0.1853174E+03  0.7818608E-02  0.1162754E+00
          2   -1    0    0  502    0  0.00000000000E+00  0.00000000000E+00  0.63587517237E+02  0.63587517237E+02  0.00000000000E+00 0.  1.
          1   -1    0    0  501    0 -0.00000000000E+00 -0.00000000000E+00 -0.81428637772E+03  0.81428637772E+03  0.00000000000E+00 0.  1.
          2    1    1    2  501    0  0.29358706338E+02 -0.13635603795E+02 -0.97892115604E+01  0.33818515516E+02  0.00000000000E+00 0.  1.
          1    1    1    2  502    0 -0.80708001960E+02 -0.60983292778E+02 -0.66683464449E+03  0.67446362887E+03  0.00000000000E+00 0.  1.
         22    1    1    2    0    0  0.74940801955E+02  0.94382480249E+02 -0.67461964585E+02  0.13811333405E+03  0.00000000000E+00 0.  1.
         22    1    1    2    0    0 -0.23591506334E+02 -0.19763583676E+02 -0.66130398473E+01  0.31478416524E+02  0.00000000000E+00 0.  1.
</event>
<event>
 6    1  0.3701283E-005  0.1997379E+03  0.7818608E-02  0.1149960E+00
          2   -1    0    0  502    0  0.00000000000E+00  0.00000000000E+00  0.57217286258E+03  0.57217286258E+03  0.00000000000E+00 0. -1.
          1   -1    0    0  501    0 -0.00000000000E+00 -0.00000000000E+00 -0.38965067809E+02  0.38965067809E+02  0.00000000000E+00 0. -1.
          2    1    1    2  501    0  0.14819055233E+02  0.17006940221E+02  0.59748129246E+01  0.23335355218E+02  0.00000000000E+00 0. -1.
          1    1    1    2  502    0 -0.88091155476E+02  0.19170259302E+02  0.10337564501E+03  0.13716440681E+03  0.00000000000E+00 0. -1.
         22    1    1    2    0    0  0.19318114476E+02  0.47690038860E+02  0.11268201956E+03  0.12387399600E+03  0.00000000000E+00 0. -1.
         22    1    1    2    0    0  0.53953985768E+02 -0.83867238384E+02  0.31117531727E+03  0.32676417235E+03  0.00000000000E+00 0. -1.
</event>
<event>
 6    1  0.3701283E-005  0.9774758E+02  0.7818608E-02  0.1295119E+00
          2   -1    0    0  502    0  0.00000000000E+00  0.00000000000E+00  0.60533083718E+02  0.60533083718E+02  0.00000000000E+00 0. -1.
          1   -1    0    0  501    0 -0.00000000000E+00 -0.00000000000E+00 -0.18004002217E+04  0.18004002217E+04  0.00000000000E+00 0. -1.
          2    1    1    2  501    0 -0.94708991537E-01  0.74266513473E+02 -0.10542157301E+03  0.12895437972E+03  0.00000000000E+00 0. -1.
          1    1    1    2  502    0  0.74922327776E+02 -0.60601773980E+02 -0.15626104073E+04  0.15655788755E+04  0.00000000000E+00 0. -1.
         22    1    1    2    0    0 -0.65739361251E+02 -0.47378950684E+02  0.58336402566E+01  0.81243214758E+02  0.00000000000E+00 0. -1.
         22    1    1    2    0    0 -0.90882575329E+01  0.33714211191E+02 -0.77668797920E+02  0.85156835495E+02  0.00000000000E+00 0. -1.
</event>
<event>
 6    1  0.3701283E-005  0.2569519E+03  0.7818608E-02  0.1108989E+00
          2   -1    0    0  502    0  0.00000000000E+00  0.00000000000E+00  0.79228950064E+03  0.79228950064E+03  0.00000000000E+00 0. -1.
          1   -1    0    0  501    0 -0.00000000000E+00 -0.00000000000E+00 -0.77615725176E+03  0.77615725176E+03  0.00000000000E+00 0.  1.
          2    1    1    2  501    0  0.20010602776E+02  0.12136378870E+03  0.37158439863E+03  0.39141353928E+03  0.00000000000E+00 0. -1.
          1    1    1    2  502    0  0.13792417258E+02 -0.14929765581E+03 -0.74768383652E+03  0.76256877735E+03  0.00000000000E+00 0.  1.
         22    1    1    2    0    0  0.21918211938E+02 -0.40228126456E+02  0.12791020777E+03  0.13586659422E+03  0.00000000000E+00 0.  1.
         22    1    1    2    0    0 -0.55721231972E+02  0.68161993568E+02  0.26432147899E+03  0.27859784155E+03  0.00000000000E+00 0. -1.
</event>
<event>
 6    1  0.3701283E-005  0.3336085E+03  0.7818608E-02  0.1069551E+00
          2   -1    0    0  502    0  0.00000000000E+00  0.00000000000E+00  0.13043909867E+03  0.13043909867E+03  0.00000000000E+00 0. -1.
          1   -1    0    0  501    0 -0.00000000000E+00 -0.00000000000E+00 -0.15625218721E+04  0.15625218721E+04  0.00000000000E+00 0. -1.
          2    1    1    2  501    0 -0.92375291945E+02  0.97753450233E+02  0.54613377404E+00  0.13449620759E+03  0.00000000000E+00 0. -1.
          1    1    1    2  502    0 -0.22249041875E+02 -0.13487234963E+02 -0.13488834091E+04  0.13491343064E+04  0.00000000000E+00 0. -1.
         22    1    1    2    0    0  0.10909123176E+03 -0.10656155885E+03 -0.98944013881E+02  0.18178608460E+03  0.00000000000E+00 0.  1.
         22    1    1    2    0    0  0.55331020546E+01  0.22295343576E+02  0.15198515696E+02  0.27544372254E+02  0.00000000000E+00 0.  1.
</event>
<event>
 6    1  0.3701283E-005  0.9992757E+02  0.7818608E-02  0.1282759E+00
          2   -1    0    0  502    0  0.00000000000E+00  0.00000000000E+00  0.31885920035E+02  0.31885920035E+02  0.00000000000E+00 0.  1.
          1   -1    0    0  501    0 -0.00000000000E+00 -0.00000000000E+00 -0.16509735571E+04  0.16509735571E+04  0.00000000000E+00 0.  1.
          2    1    1    2  501    0 -0.42101525371E+02 -0.50827986938E+02 -0.22558261790E+03  0.23503944391E+03  0.00000000000E+00 0.  1.
          1    1    1    2  502    0 -0.18448441501E+02  0.17832560152E+02 -0.12348687340E+04  0.12351352701E+04  0.00000000000E+00 0.  1.
         22    1    1    2    0    0 -0.28741866109E+02 -0.67154187377E+01 -0.85995847665E+02  0.90920171205E+02  0.00000000000E+00 0.  1.
         22    1    1    2    0    0  0.89291832981E+02  0.39710845524E+02 -0.72640437502E+02  0.12176459194E+03  0.00000000000E+00 0.  1.
</event>
<event>
 6    1  0.3701283E-005  0.7500556E+02  0.7818608E-02  0.1346795E+00
          2   -1    0    0  502    0  0.00000000000E+00  0.00000000000E+00  0.17046117018E+03  0.17046117018E+03  0.00000000000E+00 0. -1.
          1   -1    0    0  501    0 -0.00000000000E+00 -0.00000000000E+00 -0.34109269973E+03  0.34109269973E+03  0.00000000000E+00 0.  1.
          2    1    1    2  501    0 -0.14243296879E+02 -0.16260731320E+02  0.16628369842E+01  0.21680588458E+02  0.00000000000E+00 0. -1.
          1    1    1    2  502    0 -0.13345249684E+02  0.67163953388E+02 -0.29676205824E+03  0.30456002944E+03  0.00000000000E+00 0.  1.
         22    1    1    2    0    0 -0.48894699389E+02 -0.22313164712E+02  0.34743430368E+02  0.63997460118E+02  0.00000000000E+00 0. -1.
         22    1    1    2    0    0  0.76483245952E+02 -0.28590057357E+02  0.89724261331E+02  0.12131579189E+03  0.00000000000E+00 0.  1.
</event>
<event>
 6    1  0.3701283E-005  0.1517149E+03  0.7818608E-02  0.1233940E+00
          2   -1    0    0  502    0  0.00000000000E+00  0.00000000000E+00  0.16660721915E+04  0.16660721915E+04  0.00000000000E+00 0. -1.
          1   -1    0    0  501    0 -0.00000000000E+00 -0.00000000000E+00 -0.61836621100E+02  0.61836621100E+02  0.00000000000E+00 0. -1.
          2    1    1    2  501    0 -0.80824630148E+02  0.16995725875E+02  0.61972116600E+01  0.82824398392E+02  0.00000000000E+00 0. -1.
          1    1    1    2  502    0  0.17844872887E+03  0.40089861041E+02  0.11730586920E+04  0.11872311656E+04  0.00000000000E+00 0. -1.
         22    1    1    2    0    0 -0.57640437618E+02  0.22488741885E+01  0.50706560256E+02  0.76802556839E+02  0.00000000000E+00 0. -1.
         22    1    1    2    0    0 -0.39983661108E+02 -0.59334461105E+02  0.37427310655E+03  0.38105069179E+03  0.00000000000E+00 0.  1.
</event>
<event>
 6    1  0.3701283E-005  0.1888672E+03  0.7818608E-02  0.1159487E+00
          2   -1    0    0  502    0  0.00000000000E+00  0.00000000000E+00  0.29901748674E+03  0.29901748674E+03  0.00000000000E+00 0.  1.
          1   -1    0    0  501    0 -0.00000000000E+00 -0.00000000000E+00 -0.12843911764E+03  0.12843911764E+03  0.00000000000E+00 0.  1.
          2    1    1    2  501    0 -0.13627247201E+02 -0.20934773964E+02  0.99496346097E+01  0.26887950016E+02  0.00000000000E+00 0.  1.
          1    1    1    2  502    0  0.10091902224E+03 -0.20291299384E+02 -0.67849295572E+02  0.12328792637E+03  0.00000000000E+00 0.  1.
         22    1    1    2    0    0 -0.29772129513E+02 -0.94304503961E+01  0.18805104639E+03  0.19062662233E+03  0.00000000000E+00 0.  1.
         22    1    1    2    0    0 -0.57519645524E+02  0.50656523744E+02  0.40426983668E+02  0.86654105659E+02  0.00000000000E+00 0. -1.
</event>
<event>
 6    1  0.3701283E-005  0.1025596E+03  0.7818608E-02  0.1278829E+00
          2   -1    0    0  502    0  0.00000000000E+00  0.00000000000E+00  0.27992276621E+03  0.27992276621E+03  0.00000000000E+00 0.  1.
          1   -1    0    0  501    0 -0.00000000000E+00 -0.00000000000E+00 -0.89661735311E+02  0.89661735311E+02  0.00000000000E+00 0. -1.
          2    1    1    2  501    0  0.32766190075E+02 -0.38190673678E+02  0.33748812685E+02  0.60589876429E+02  0.00000000000E+00 0.  1.
          1    1    1    2  502    0 -0.83660990043E+01 -0.25333135691E+02 -0.50199358958E+02  0.56848351042E+02  0.00000000000E+00 0. -1.
         22    1    1    2    0    0  0.25666162475E+02 -0.27691845649E+02  0.77821952567E+02  0.86497667674E+02  0.00000000000E+00 0.  1.
         22    1    1    2    0    0 -0.50066253546E+02  0.91215655017E+02  0.12888962461E+03  0.16564860638E+03  0.00000000000E+00 0.  1.
</event>
<event>
 6    1  0.3701283E-005  0.9819372E+02  0.7818608E-02  0.1288747E+00
          2   -1    0    0  502    0  0.00000000000E+00  0.00000000000E+00  0.45811346840E+02  0.45811346840E+02  0.00000000000E+00 0. -1.
          1   -1    0    0  501    0 -0.00000000000E+00 -0.00000000000E+00 -0.49507221527E+03  0.49507221527E+03  0.00000000000E+00 0. -1.
          2    1    1    2  501    0  0.42227536980E+02 -0.59606096468E+02 -0.10261869688E+03  0.12596288566E+03  0.00000000000E+00 0. -1.
          1    1    1    2  502    0  0.87911274336E+01  0.35077091753E+02 -0.24471388847E+03  0.24737132716E+03  0.00000000000E+00 0. -1.
         22    1    1    2    0    0 -0.83100933211E+02  0.30348903160E+02 -0.39017953945E+02  0.96691373729E+02  0.00000000000E+00 0. -1.
         22    1    1    2    0    0  0.32082268798E+02 -0.58198984447E+01 -0.62910329133E+02  0.70857975562E+02  0.00000000000E+00 0. -1.
</event>
<event>
 6    1  0.3701283E-005  0.9375125E+02  0.7818608E-02  0.1295385E+00
          2   -1    0    0  502    0  0.00000000000E+00  0.00000000000E+00  0.56497669114E+03  0.56497669114E+03  0.00000000000E+00 0.  1.
          1   -1    0    0  501    0 -0.00000000000E+00 -0.00000000000E+00 -0.89585174332E+03  0.89585174332E+03  0.00000000000E+00 0.  1.
          2    1    1    2  501    0  0.46625937966E+02  0.22262945538E+02  0.14002300794E+03  0.14925166528E+03  0.00000000000E+00 0.  1.
          1    1    1    2  502    0  0.12344962153E+02 -0.17014253171E+02 -0.88035070984E+03  0.88060164388E+03  0.00000000000E+00 0.  1.
         22    1    1    2    0    0 -0.96519412036E+02 -0.39867015415E+01  0.30773147729E+03  0.32253767656E+03  0.00000000000E+00 0.  1.
         22    1    1    2    0    0  0.37548511916E+02 -0.12619908258E+01  0.10172117243E+03  0.10843744874E+03  0.00000000000E+00 0. -1.
</event>
<event>
 6    1  0.3701283E-005  0.4689029E+03  0.7818608E-02  0.1022230E+00
          2   -1    0    0  502    0  0.00000000000E+00  0.00000000000E+00  0.64336476077E+03  0.64336476077E+03  0.00000000000E+00 0. -1.
          1   -1    0    0  501    0 -0.00000000000E+00 -0.00000000000E+00 -0.34045278828E+03  0.34045278828E+03  0.00000000000E+00 0. -1.
          2    1    1    2  501    0 -0.32615110129E+03  0.17196988452E+02 -0.60139300160E+01  0.32665952403E+03  0.00000000000E+00 0. -1.
          1    1    1    2  502    0  0.32273928367E+03 -0.22557884205E+02  0.39018015334E+03  0.50686295527E+03  0.00000000000E+00 0. -1.
         22    1    1    2    0    0 -0.98280264351E+01  0.59214909765E+02 -0.72544206710E+02  0.94157620877E+02  0.00000000000E+00 0. -1.
         22    1    1    2    0    0  0.13239844057E+02 -0.53854014012E+02 -0.87100441294E+01  0.56137448861E+02  0.00000000000E+00 0. -1.
</event>
<event>
 6    1  0.3701283E-005  0.1908515E+03  0.7818608E-02  0.1157696E+00
          2   -1    0    0  502    0  0.00000000000E+00  0.00000000000E+00  0.31101926884E+02  0.31101926884E+02  0.00000000000E+00 0. -1.
          1   -1    0    0  501    0 -0.00000000000E+00 -0.00000000000E+00 -0.15139600449E+04  0.15139600449E+04  0.00000000000E+00 0. -1.
          2    1    1    2  501    0 -0.27011943122E+02 -0.18866638062E+02 -0.15506658757E+03  0.15852836239E+03  0.00000000000E+00 0. -1.
          1    1    1    2  502    0  0.23016887670E+02 -0.13257397700E+02 -0.12196663200E+04  0.12199555188E+04  0.00000000000E+00 0. -1.
         22    1    1    2    0    0  0.39723675625E+02  0.35252719884E+02 -0.11798025318E+03  0.12938340235E+03  0.00000000000E+00 0. -1.
         22    1    1    2    0    0 -0.35728620173E+02 -0.31286841227E+01  0.98550427509E+01  0.37194688215E+02  0.00000000000E+00 0. -1.
</event>
<event>
 6    1  0.3701283E-005  0.2258451E+03  0.7818608E-02  0.1129599E+00
          2   -1    0    0  502    0  0.00000000000E+00  0.00000000000E+00  0.26854710835E+03  0.26854710835E+03  0.00000000000E+00 0. -1.
          1   -1    0    0  501    0 -0.00000000000E+00 -0.00000000000E+00 -0.49689159322E+03  0.49689159322E+03  0.00000000000E+00 0. -1.
          2    1    1    2  501    0 -0.56701139831E+01  0.25509034039E+02  0.25674073271E+01  0.26257429245E+02  0.00000000000E+00 0. -1.
          1    1    1    2  502    0  0.14448488742E+03  0.23902689962E+02 -0.43519920215E+03  0.45917923171E+03  0.00000000000E+00 0. -1.
         22    1    1    2    0    0 -0.13519383965E+03 -0.73957396209E+02  0.12977090366E+03  0.20146354055E+03  0.00000000000E+00 0. -1.
         22    1    1    2    0    0 -0.36209337897E+01  0.24545672208E+02  0.74516406297E+02  0.78538500069E+02  0.00000000000E+00 0. -1.
</event>
<event>
 6    1  0.3701283E-005  0.5872251E+02  0.7818608E-02  0.1407939E+00
          2   -1    0    0  502    0  0.00000000000E+00  0.00000000000E+00  0.10038245310E+03  0.10038245310E+03  0.00000000000E+00 0. -1.
          1   -1    0    0  501    0 -0.00000000000E+00 -0.00000000000E+00 -0.55947499730E+03  0.55947499730E+03  0.00000000000E+00 0. -1.
          2    1    1    2  501    0 -0.37030521464E+02 -0.47152026116E+02 -0.82609425768E+02  0.10207296563E+03  0.00000000000E+00 0. -1.
          1    1    1    2  502    0  0.53356962627E+02  0.96067751717E+00 -0.41125513532E+03  0.41470311633E+03  0.00000000000E+00 0. -1.
         22    1    1    2    0    0 -0.46433464815E+00  0.54453246051E+02  0.78670910469E+02  0.95679066500E+02  0.00000000000E+00 0. -1.
         22    1    1    2    0    0 -0.15862106515E+02 -0.82618974526E+01 -0.43898893575E+02  0.47402301946E+02  0.00000000000E+00 0.  1.
</event>
<event>
 6    1  0.3701283E-005  0.1536114E+03  0.7818608E-02  0.1196104E+00
          2   -1    0    0  502    0  0.00000000000E+00  0.00000000000E+00  0.13276724502E+03  0.13276724502E+03  0.00000000000E+00 0. -1.
          1   -1    0    0  501    0 -0.00000000000E+00 -0.00000000000E+00 -0.76883694870E+02  0.76883694870E+02  0.00000000000E+00 0.  1.
          2    1    1    2  501    0 -0.16522097987E+01  0.23830117418E+02  0.29862536655E+02  0.38241017100E+02  0.00000000000E+00 0. -1.
          1    1    1    2  502    0  0.32292406172E+02 -0.17664622852E+02 -0.15898943767E+02  0.40095072139E+02  0.00000000000E+00 0.  1.
         22    1    1    2    0    0 -0.98314952692E+00 -0.36771868882E+02 -0.30166549786E+02  0.47572656538E+02  0.00000000000E+00 0.  1.
         22    1    1    2    0    0 -0.29657046846E+02  0.30606374317E+02  0.72086507048E+02  0.83742194113E+02  0.00000000000E+00 0. -1.
</event>
<event>
 6    1  0.3701283E-005  0.9625164E+02  0.7818608E-02  0.1292277E+00
          2   -1    0    0  502    0  0.00000000000E+00  0.00000000000E+00  0.97419672404E+02  0.97419672404E+02  0.00000000000E+00 0.  1.
          1   -1    0    0  501    0 -0.00000000000E+00 -0.00000000000E+00 -0.55446360233E+03  0.55446360233E+03  0.00000000000E+00 0. -1.
          2    1    1    2  501    0 -0.59297548419E+01 -0.63889813979E+02  0.21167296806E+02  0.67565707107E+02  0.00000000000E+00 0.  1.
          1    1    1    2  502    0  0.83160429967E+02  0.19521502144E+02 -0.40740949017E+03  0.41626822943E+03  0.00000000000E+00 0. -1.
         22    1    1    2    0    0 -0.29856938847E+02 -0.29731061647E+02  0.15437240773E+02  0.44874059619E+02  0.00000000000E+00 0. -1.
         22    1    1    2    0    0 -0.47373736278E+02  0.74099373482E+02 -0.86238977334E+02  0.12317527857E+03  0.00000000000E+00 0. -1.
</event>
<event>
 6    1  0.3701283E-005  0.1759885E+03  0.7818608E-02  0.1171743E+00
          2   -1    0    0  502    0  0.00000000000E+00  0.00000000000E+00  0.70314503987E+02  0.70314503987E+02  0.00000000000E+00 0. -1.
          1   -1    0    0  501    0 -0.00000000000E+00 -0.00000000000E+00 -0.56782929681E+03  0.56782929681E+03  0.00000000000E+00 0. -1.
          2    1    1    2  501    0  0.31827395101E-01  0.31470846350E+02 -0.40740568824E+02  0.51480181925E+02  0.00000000000E+00 0. -1.
          1    1    1    2  502    0  0.63739958668E+01 -0.34989845664E+02 -0.45592203233E+03  0.45730713606E+03  0.00000000000E+00 0. -1.
         22    1    1    2    0    0  0.45903215974E+02  0.80825388865E+01  0.41104184405E+02  0.62144884321E+02  0.00000000000E+00 0. -1.
         22    1    1    2    0    0 -0.52309039236E+02 -0.45635395719E+01 -0.41956376075E+02  0.67211598498E+02  0.00000000000E+00 0.  1.
</event>
<event>
 6    1  0.3701283E-005  0.1520305E+03  0.7818608E-02  0.1224968E+00
          2   -1    0    0  502    0  0.00000000000E+00  0.00000000000E+00  0.33251604493E+03  0.33251604493E+03  0.00000000000E+00 0. -1.
          1   -1    0    0  501    0 -0.00000000000E+00 -0.00000000000E+00 -0.58777938474E+03  0.58777938474E+03  0.00000000000E+00 0. -1.
          2    1    1    2  501    0 -0.10489804860E+03  0.13589453011E+03  0.18413259606E+03  0.25174538098E+03  0.00000000000E+00 0. -1.
          1    1    1    2  502    0  0.86237046349E+02 -0.89821305263E+02 -0.50535351689E+03  0.52046793568E+03  0.00000000000E+00 0. -1.
         22    1    1    2    0    0 -0.39318380070E+02  0.16890343003E+02  0.51775530937E+01  0.43104822864E+02  0.00000000000E+00 0.  1.
         22    1    1    2    0    0  0.57979382319E+02 -0.62963567849E+02  0.60780027932E+02  0.10497729014E+03  0.00000000000E+00 0. -1.
</event>
<event>
 6    1  0.3701283E-005  0.6000968E+02  0.7818608E-02  0.1400353E+00
          2   -1    0    0  502    0  0.00000000000E+00  0.00000000000E+00  0.13780104250E+03  0.13780104250E+03  0.00000000000E+00 0.  1.
          1   -1    0    0  501    0 -0.00000000000E+00 -0.00000000000E+00 -0.55768920356E+03  0.55768920356E+03  0.00000000000E+00 0. -1.
          2    1    1    2  501    0  0.19783076586E+02  0.32437801560E+01 -0.30399231778E+01  0.20276423793E+02  0.00000000000E+00 0.  1.
          1    1    1    2  502    0 -0.23535176628E+02 -0.30957572832E+02 -0.51569669934E+03  0.51716086624E+03  0.00000000000E+00 0. -1.
         22    1    1    2    0    0 -0.39271754938E+02  0.43420509178E+02  0.95643655958E+02  0.11213973550E+03  0.00000000000E+00 0.  1.
         22    1    1    2    0    0  0.43023854980E+02 -0.15706716502E+02  0.32048055093E+01  0.45913220525E+02  0.00000000000E+00 0.  1.
</event>
<event>
 6    1  0.3701283E-005  0.8579845E+02  0.7818608E-02  0.1314861E+00
          2   -1    0    0  502    0  0.00000000000E+00  0.00000000000E+00  0.17813401348E+03  0.17813401348E+03  0.00000000000E+00 0. -1.
          1   -1    0    0  501    0 -0.00000000000E+00 -0.00000000000E+00 -0.57050684044E+03  0.57050684044E+03  0.00000000000E+00 0.  1.
          2    1    1    2  501    0  0.48172893732E+02  0.10708904995E+02 -0.74172595185E+02  0.89089181235E+02  0.00000000000E+00 0. -1.
          1    1    1    2  502    0  0.95734606935E+01  0.27397360522E+02 -0.45792257092E+03  0.45884130968E+03  0.00000000000E+00 0.  1.
         22    1    1    2    0    0  0.19822351146E+02 -0.22129726693E+01 -0.14313938841E+02  0.24550187334E+02  0.00000000000E+00 0.  1.
         22    1    1    2    0    0 -0.77568705572E+02 -0.35893292848E+02  0.15403627799E+03  0.17616017567E+03  0.00000000000E+00 0. -1.
</event>
<event>
 6    1  0.3701283E-005  0.1491212E+03  0.7818608E-02  0.1202780E+00
          2   -1    0    0  502    0  0.00000000000E+00  0.00000000000E+00  0.50125114938E+02  0.50125114938E+02  0.00000000000E+00 0.  1.
          1   -1    0    0  501    0 -0.00000000000E+00 -0.00000000000E+00 -0.13055506020E+04  0.13055506020E+04  0.00000000000E+00 0.  1.
          2    1    1    2  501    0  0.95995660791E+02 -0.48958495707E+02 -0.24542912247E+03  0.26804394294E+03  0.00000000000E+00 0.  1.
          1    1    1    2  502    0  0.34424028916E+02 -0.19711704289E+01 -0.82102071787E+03  0.82174443621E+03  0.00000000000E+00 0.  1.
         22    1    1    2    0    0  0.85476884225E+01 -0.19974357025E+02 -0.58849267055E+02  0.62731763477E+02  0.00000000000E+00 0. -1.
         22    1    1    2    0    0 -0.13896737813E+03  0.70904023161E+02 -0.13012637967E+03  0.20315557430E+03  0.00000000000E+00 0.  1.
</event>
<event>
 6    1  0.3701283E-005  0.1808616E+03  0.7818608E-02  0.1166972E+00
          2   -1    0    0  502    0  0.00000000000E+00  0.00000000000E+00  0.35825753744E+03  0.35825753744E+03  0.00000000000E+00 0. -1.
          1   -1    0    0  501    0 -0.00000000000E+00 -0.00000000000E+00 -0.26564772848E+03  0.26564772848E+03  0.00000000000E+00 0. -1.
          2    1    1    2  501    0 -0.38275490717E+02  0.32075052308E+02  0.92943902522E+02  0.10551014731E+03  0.00000000000E+00 0. -1.
          1    1    1    2  502    0  0.24714780813E+02 -0.11298645310E+02 -0.24201230575E+03  0.24353323369E+03  0.00000000000E+00 0. -1.
         22    1    1    2    0    0 -0.42906041095E+02 -0.81480890757E+00  0.19291286611E+03  0.19762835370E+03  0.00000000000E+00 0. -1.
         22    1    1    2    0    0  0.56466750999E+02 -0.19961598091E+02  0.48765346076E+02  0.77233531220E+02  0.00000000000E+00 0. -1.
</event>
<event>
 6    1  0.3701283E-005  0.2365785E+03  0.7818608E-02  0.1122093E+00
          2   -1    0    0  502    0  0.00000000000E+00  0.00000000000E+00  0.46448304780E+03  0.46448304780E+03  0.00000000000E+00 0. -1.
          1   -1    0    0  501    0 -0.00000000000E+00 -0.00000000000E+00 -0.10649236293E+03  0.10649236293E+03  0.00000000000E+00 0. -1.
          2    1    1    2  501    0  0.23933171622E+02  0.33110131510E+02  0.89282079501E+01  0.41818541458E+02  0.00000000000E+00 0. -1.
          1    1    1    2  502    0 -0.49702365257E+02  0.63241403986E+02 -0.53303832016E+02  0.96494035038E+02  0.00000000000E+00 0. -1.
         22    1    1    2    0    0  0.72114973931E+01  0.85939806982E+01 -0.44869601007E+01  0.12082839477E+02  0.00000000000E+00 0. -1.
         22    1    1    2    0    0  0.18557696242E+02 -0.10494551619E+03  0.40685326904E+03  0.42057999475E+03  0.00000000000E+00 0. -1.
</event>
<event>
 6    1  0.3701283E-005  0.2415515E+03  0.7818608E-02  0.1118764E+00
          2   -1    0    0  502    0  0.00000000000E+00  0.00000000000E+00  0.14091872681E+04  0.14091872681E+04  0.00000000000E+00 0. -1.
          1   -1    0    0  501    0 -0.00000000000E+00 -0.00000000000E+00 -0.30789170809E+02  0.30789170809E+02  0.00000000000E+00 0. -1.
          2    1    1    2  501    0 -0.13940151790E+02 -0.10719852371E+03  0.26853359115E+03  0.28947563091E+03  0.00000000000E+00 0. -1.
          1    1    1    2  502    0  0.62561411230E+01  0.13465125713E+03  0.82808247203E+03  0.83898193117E+03  0.00000000000E+00 0. -1.
         22    1    1    2    0    0  0.33402028958E+02  0.31608664951E+02  0.38879854176E+02  0.60219982558E+02  0.00000000000E+00 0. -1.
         22    1    1    2    0    0 -0.25718018291E+02 -0.59061398370E+02  0.24290217994E+03  0.25129889427E+03  0.00000000000E+00 0. -1.
</event>
<event>
 6    1  0.3701283E-005  0.4307025E+02  0.7818608E-02  0.1507308E+00
          2   -1    0    0  502    0  0.00000000000E+00  0.00000000000E+00  0.57619924390E+02  0.57619924390E+02  0.00000000000E+00 0. -1.
          1   -1    0    0  501    0 -0.00000000000E+00 -0.00000000000E+00 -0.53968318556E+03  0.53968318556E+03  0.00000000000E+00 0. -1.
          2    1    1    2  501    0 -0.36185085855E+02  0.10767868411E+02 -0.27623698908E+03  0.27880491668E+03  0.00000000000E+00 0. -1.
          1    1    1    2  502    0  0.22979811430E+02 -0.27250516157E+02 -0.18321083925E+03  0.18664638754E+03  0.00000000000E+00 0. -1.
         22    1    1    2    0    0 -0.15536439705E+02  0.14467317794E+01 -0.71500870978E+02  0.73183663082E+02  0.00000000000E+00 0. -1.
         22    1    1    2    0    0  0.28741714131E+02  0.15035915966E+02  0.48885438135E+02  0.58668142648E+02  0.00000000000E+00 0. -1.
</event>
<event>
 6    1  0.3701283E-005  0.2023858E+03  0.7818608E-02  0.1148471E+00
          2   -1    0    0  502    0  0.00000000000E+00  0.00000000000E+00  0.12073174766E+03  0.12073174766E+03  0.00000000000E+00 0. -1.
          1   -1    0    0  501    0 -0.00000000000E+00 -0.00000000000E+00 -0.15096696515E+04  0.15096696515E+04  0.00000000000E+00 0. -1.
          2    1    1    2  501    0  0.18353286953E+03 -0.29858521356E+02 -0.12483043603E+03  0.22396089671E+03  0.00000000000E+00 0. -1.
          1    1    1    2  502    0 -0.44914639737E+02 -0.11090067482E+03 -0.11335851824E+04  0.11398822967E+04  0.00000000000E+00 0. -1.
         22    1    1    2    0    0  0.19361455973E+02  0.15404166489E+01 -0.12264174306E+01  0.19461319600E+02  0.00000000000E+00 0. -1.
         22    1    1    2    0    0 -0.15797968577E+03  0.13921877953E+03 -0.12929586804E+03  0.24709688622E+03  0.00000000000E+00 0. -1.
</event>
<event>
 6    1  0.3701283E-005  0.1642547E+03  0.7818608E-02  0.1217024E+00
          2   -1    0    0  502    0  0.00000000000E+00  0.00000000000E+00  0.66076851376E+03  0.66076851376E+03  0.00000000000E+00 0. -1.
          1   -1    0    0  501    0 -0.00000000000E+00 -0.00000000000E+00 -0.65348266523E+02  0.65348266523E+02  0.00000000000E+00 0. -1.
          2    1    1    2  501    0  0.12678806867E+03 -0.31139374415E+02  0.14114987079E+03  0.19227106132E+03  0.00000000000E+00 0. -1.
          1    1    1    2  502    0 -0.14626000557E+03 -0.15589644372E+02  0.23951747995E+03  0.28107587844E+03  0.00000000000E+00 0. -1.
         22    1    1    2    0    0 -0.24408819730E+02  0.76359348445E+02  0.13611927885E+03  0.15797151215E+03  0.00000000000E+00 0. -1.
         22    1    1    2    0    0  0.43880756633E+02 -0.29630329657E+02  0.78633617654E+02  0.94798328380E+02  0.00000000000E+00 0. -1.
</event>
<event>
 6    1  0.3701283E-005  0.2741606E+03  0.7818608E-02  0.1098922E+00
          2   -1    0    0  502    0  0.00000000000E+00  0.00000000000E+00  0.13134085839E+03  0.13134085839E+03  0.00000000000E+00 0. -1.
          1   -1    0    0  501    0 -0.00000000000E+00 -0.00000000000E+00 -0.43056659801E+03  0.43056659801E+03  0.00000000000E+00 0. -1.
          2    1    1    2  501    0  0.12299882633E+03 -0.49753071801E+02 -0.11398324044E+03  0.17491786225E+03  0.00000000000E+00 0. -1.
          1    1    1    2  502    0 -0.15735630067E+03  0.11428631917E+03 -0.77673551046E+02  0.20941716415E+03  0.00000000000E+00 0. -1.
         22    1    1    2    0    0  0.68204063898E+02 -0.13146391852E+02 -0.23369215318E+02  0.73285347618E+02  0.00000000000E+00 0.  1.
         22    1    1    2    0    0 -0.33846589563E+02 -0.51386855516E+02 -0.84199732815E+02  0.10428708238E+03  0.00000000000E+00 0. -1.
</event>
<event>
 6    1  0.3701283E-005  0.2189631E+03  0.7818608E-02  0.1134658E+00
          2   -1    0    0  502    0  0.00000000000E+00  0.00000000000E+00  0.18686557485E+03  0.18686557485E+03  0.00000000000E+00 0.  1.
          1   -1    0    0  501    0 -0.00000000000E+00 -0.00000000000E+00 -0.35295244695E+03  0.35295244695E+03  0.00000000000E+00 0.  1.
          2    1    1    2  501    0 -0.12488801634E+02 -0.32152770570E+02 -0.27864678905E+02  0.44341979569E+02  0.00000000000E+00 0.  1.
          1    1    1    2  502    0 -0.61085946417E+02  0.11767072698E+02 -0.28426954744E+03  0.29099679113E+03  0.00000000000E+00 0.  1.
         22    1    1    2    0    0 -0.16471019941E+02 -0.33633302058E+02  0.30072129533E+02  0.48029433474E+02  0.00000000000E+00 0. -1.
         22    1    1    2    0    0  0.90045767992E+02  0.54018999930E+02  0.11597522471E+03  0.15644981762E+03  0.00000000000E+00 0.  1.
</event>
<event>
 6    1  0.3701283E-005  0.6357946E+02  0.7818608E-02  0.1390575E+00
          2   -1    0    0  502    0  0.00000000000E+00  0.00000000000E+00  0.30721201707E+03  0.30721201707E+03  0.00000000000E+00 0. -1.
          1   -1    0    0  501    0 -0.00000000000E+00 -0.00000000000E+00 -0.13313661764E+03  0.13313661764E+03  0.00000000000E+00 0. -1.
          2    1    1    2  501    0  0.46985177877E+02  0.50706986792E+02  0.64900342897E+01  0.69432888422E+02  0.00000000000E+00 0. -1.
          1    1    1    2  502    0 -0.22305542637E+02 -0.32883766021E+02 -0.81284269157E+02  0.90476581016E+02  0.00000000000E+00 0. -1.
         22    1    1    2    0    0  0.25562620339E+02  0.33561274545E+01  0.11817492203E+00  0.25782263582E+02  0.00000000000E+00 0.  1.
         22    1    1    2    0    0 -0.50242255579E+02 -0.21179348225E+02  0.24875145937E+03  0.25465690169E+03  0.00000000000E+00 0. -1.
</event>
<event>
 6    1  0.3701283E-005  0.5918560E+03  0.7818608E-02  0.9922448E-01
          2   -1    0    0  502    0  0.00000000000E+00  0.00000000000E+00  0.72929049908E+03  0.72929049908E+03  0.00000000000E+00 0. -1.
          1   -1    0    0  501    0 -0.00000000000E+00 -0.00000000000E+00 -0.18674388438E+03  0.18674388438E+03  0.00000000000E+00 0. -1.
          2    1    1    2  501    0 -0.16380828275E+03 -0.41060434113E+02  0.49077770093E+03  0.51902010026E+03  0.00000000000E+00 0. -1.
          1    1    1    2  502    0  0.83646327010E+02 -0.11952594870E+03  0.96417175910E+02  0.17486975795E+03  0.00000000000E+00 0. -1.
         22    1    1    2    0    0  0.69799623931E+02  0.10223062393E+03 -0.85250579406E+02  0.15030219313E+03  0.00000000000E+00 0. -1.
         22    1    1    2    0    0  0.10362331811E+02  0.58355758885E+02  0.40602317266E+02  0.71842332110E+02  0.00000000000E+00 0. -1.
</event>
<event>
 6    1  0.3701283E-005  0.6277674E+02  0.7818608E-02  0.1392743E+00
          2   -1    0    0  502    0  0.00000000000E+00  0.00000000000E+00  0.63439879499E+02  0.63439879499E+02  0.00000000000E+00 0.  1.
          1   -1    0    0  501    0 -0.00000000000E+00 -0.00000000000E+00 -0.34611561872E+03  0.34611561872E+03  0.00000000000E+00 0. -1.
          2    1    1    2  501    0 -0.14354665525E+02 -0.25616954612E+02  0.19764498564E+01  0.29431125360E+02  0.00000000000E+00 0.  1.
          1    1    1    2  502    0 -0.30418556526E+02  0.34918789351E+02 -0.23237930437E+03  0.23694883737E+03  0.00000000000E+00 0. -1.
         22    1    1    2    0    0 -0.26476814631E+02 -0.13532303216E+02  0.24369384088E+02  0.38444919354E+02  0.00000000000E+00 0.  1.
         22    1    1    2    0    0  0.71250036681E+02  0.42304684770E+01 -0.76642268803E+02  0.10473061614E+03  0.00000000000E+00 0.  1.
</event>
<event>
 6    1  0.3701283E-005  0.9353913E+02  0.7818608E-02  0.1295683E+00
          2   -1    0    0  502    0  0.00000000000E+00  0.00000000000E+00  0.25538385444E+03  0.25538385444E+03  0.00000000000E+00 0. -1.
          1   -1    0    0  501    0 -0.00000000000E+00 -0.00000000000E+00 -0.78370686850E+03  0.78370686850E+03  0.00000000000E+00 0. -1.
          2    1    1    2  501    0  0.55321434385E+02 -0.91359389715E+00 -0.53378660924E+02  0.76880278345E+02  0.00000000000E+00 0. -1.
          1    1    1    2  502    0  0.14978958348E+02  0.35042124901E+02 -0.69550182724E+03  0.69654512518E+03  0.00000000000E+00 0. -1.
         22    1    1    2    0    0 -0.84720446553E+02 -0.42034625299E+02  0.22857624258E+03  0.24736928359E+03  0.00000000000E+00 0. -1.
         22    1    1    2    0    0  0.14420053820E+02  0.79060942953E+01 -0.80187684825E+01  0.18296035832E+02  0.00000000000E+00 0.  1.
</event>
<event>
 6    1  0.3701283E-005  0.8101350E+02  0.7818608E-02  0.1332270E+00
          2   -1    0    0  502    0  0.00000000000E+00  0.00000000000E+00  0.54854066801E+03  0.54854066801E+03  0.00000000000E+00 0.  1.
          1   -1    0    0  501    0 -0.00000000000E+00 -0.00000000000E+00 -0.35785833887E+03  0.35785833887E+03  0.00000000000E+00 0.  1.
          2    1    1    2  501    0 -0.29732213604E+01 -0.36979065832E+02  0.45526304037E+02  0.58727640122E+02  0.00000000000E+00 0.  1.
          1    1    1    2  502    0  0.16888181086E+02  0.18129614811E+02 -0.34277320197E+03  0.34366751604E+03  0.00000000000E+00 0.  1.
         22    1    1    2    0    0 -0.37294553764E+02  0.60499777837E+02  0.37009415208E+03  0.37685645578E+03  0.00000000000E+00 0.  1.
         22    1    1    2    0    0  0.23379594038E+02 -0.41650326817E+02  0.11783507499E+03  0.12714739494E+03  0.00000000000E+00 0.  1.
</event>
<event>
 6    1  0.3701283E-005  0.3421994E+03  0.7818608E-02  0.1065863E+00
          2   -1    0    0  502    0  0.00000000000E+00  0.00000000000E+00  0.11425649422E+04  0.11425649422E+04  0.00000000000E+00 0. -1.
          1   -1    0    0  501    0 -0.00000000000E+00 -0.00000000000E+00 -0.69346268888E+02  0.69346268888E+02  0.00000000000E+00 0. -1.
          2    1    1    2  501    0 -0.10899811455E+03 -0.43739624253E+02  0.47210693784E+03  0.48649635606E+03  0.00000000000E+00 0. -1.
          1    1    1    2  502    0  0.62691017170E+02  0.19264459197E+03  0.25986298978E+03  0.32950094978E+03  0.00000000000E+00 0. -1.
         22    1    1    2    0    0  0.67399137346E+02 -0.12643414110E+03  0.17188657877E+03  0.22377048892E+03  0.00000000000E+00 0. -1.
         22    1    1    2    0    0 -0.21092039969E+02 -0.22470826614E+02  0.16936216691E+03  0.17214341631E+03  0.00000000000E+00 0. -1.
</event>
<event>
 6    1  0.3701283E-005  0.1559709E+03  0.7818608E-02  0.1195296E+00
          2   -1    0    0  502    0  0.00000000000E+00  0.00000000000E+00  0.31342259683E+03  0.31342259683E+03  0.00000000000E+00 0.  1.
          1   -1    0    0  501    0 -0.00000000000E+00 -0.00000000000E+00 -0.13510932279E+04  0.13510932279E+04  0.00000000000E+00 0. -1.
          2    1    1    2  501    0 -0.10967231066E+03 -0.69816400342E+02  0.14559044550E+03  0.19518945490E+03  0.00000000000E+00 0.  1.
          1    1    1    2  502    0 -0.21077829741E+02  0.65984794346E+01 -0.12612378809E+04  0.12614312534E+04  0.00000000000E+00 0. -1.
         22    1    1    2    0    0 -0.47996823319E+01 -0.19915310603E+02  0.39189308684E+02  0.44220566052E+02  0.00000000000E+00 0.  1.
         22    1    1    2    0    0  0.13554982274E+03  0.83133231510E+02  0.38787495636E+02  0.16367455038E+03  0.00000000000E+00 0.  1.
</event>
<event>
 6    1  0.3701283E-005  0.4032887E+03  0.7818608E-02  0.1042647E+00
          2   -1    0    0  502    0  0.00000000000E+00  0.00000000000E+00  0.33221386000E+03  0.33221386000E+03  0.00000000000E+00 0.  1.
          1   -1    0    0  501    0 -0.00000000000E+00 -0.00000000000E+00 -0.16886399813E+04  0.16886399813E+04  0.00000000000E+00 0.  1.
          2    1    1    2  501    0  0.16200713185E+03 -0.52096076235E+02  0.48209574272E+01  0.17024556840E+03  0.00000000000E+00 0.  1.
          1    1    1    2  502    0 -0.49792882521E+02 -0.56028812278E+02 -0.15650192491E+04  0.15668132655E+04  0.00000000000E+00 0.  1.
         22    1    1    2    0    0  0.22821859191E+02  0.19644785125E+02  0.10327670606E+02  0.31834189478E+02  0.00000000000E+00 0.  1.
         22    1    1    2    0    0 -0.13503610852E+03  0.88480103387E+02  0.19344449973E+03  0.25196081794E+03  0.00000000000E+00 0.  1.
</event>
<event>
 6    1  0.3701283E-005  0.4313383E+03  0.7818608E-02  0.1033438E+00
          2   -1    0    0  502    0  0.00000000000E+00  0.00000000000E+00  0.72748456529E+03  0.72748456529E+03  0.00000000000E+00 0. -1.
          1   -1    0    0  501    0 -0.00000000000E+00 -0.00000000000E+00 -0.21806013465E+03  0.21806013465E+03  0.00000000000E+00 0. -1.
          2    1    1    2  501    0 -0.12573927071E+01  0.10027644816E+03 -0.19628276744E+02  0.10218716328E+03  0.00000000000E+00 0. -1.
          1    1    1    2  502    0 -0.26538788919E+03 -0.20296283650E+03  0.35475282711E+03  0.48731325969E+03  0.00000000000E+00 0. -1.
         22    1    1    2    0    0 -0.10844508149E+02  0.14366771137E+02  0.31690320571E+01  0.18277041174E+02  0.00000000000E+00 0. -1.
         22    1    1    2    0    0  0.27748979004E+03  0.88319617205E+02  0.17113084822E+03  0.33776723579E+03  0.00000000000E+00 0.  1.
</event>
<event>
 6    1  0.3701283E-005  0.5848831E+03  0.7818608E-02  0.9937275E-01
          2   -1    0    0  502    0  0.00000000000E+00  0.00000000000E+00  0.11104329798E+03  0.11104329798E+03  0.00000000000E+00 0.  1.
          1   -1    0    0  501    0 -0.00000000000E+00 -0.00000000000E+00 -0.17096825489E+04  0.17096825489E+04  0.00000000000E+00 0.  1.
          2    1    1    2  501    0 -0.87405188688E+01  0.13071097556E+03 -0.70245180468E+03  0.71456300891E+03  0.00000000000E+00 0.  1.
          1    1    1    2  502    0  0.33694006240E+02 -0.27233339026E+02 -0.93551986952E+03  0.93652248616E+03  0.00000000000E+00 0.  1.
         22    1    1    2    0    0 -0.16321373895E+02 -0.11688336685E+03  0.68458497072E+02  0.13643560574E+03  0.00000000000E+00 0.  1.
         22    1    1    2    0    0 -0.86321134764E+01  0.13405730317E+02 -0.29126073827E+02  0.33204746121E+02  0.00000000000E+00 0. -1.
</event>
<event>
 6    1  0.3701283E-005  0.5731109E+03  0.7818608E-02  0.9962818E-01
          2   -1    0    0  502    0  0.00000000000E+00  0.00000000000E+00  0.35564609131E+03  0.35564609131E+03  0.00000000000E+00 0.  1.
          1   -1    0    0  501    0 -0.00000000000E+00 -0.00000000000E+00 -0.14223390224E+04  0.14223390224E+04  0.00000000000E+00 0. -1.
          2    1    1    2  501    0 -0.21454818770E+03  0.59210435921E+02  0.21645449122E+03  0.31046633849E+03  0.00000000000E+00 0.  1.
          1    1    1    2  502    0  0.38508212585E+03 -0.12247631925E+03 -0.11312443127E+04  0.12012503434E+04  0.00000000000E+00 0. -1.
         22    1    1    2    0    0 -0.15403455306E+03  0.61527809469E+02 -0.65574564165E+02  0.17836013664E+03  0.00000000000E+00 0.  1.
         22    1    1    2    0    0 -0.16499385087E+02  0.17380738630E+01 -0.86328545409E+02  0.87908295180E+02  0.00000000000E+00 0.  1.
</event>
<event>
 6    1  0.3701283E-005  0.2559057E+03  0.7818608E-02  0.1109628E+00
          2   -1    0    0  502    0  0.00000000000E+00  0.00000000000E+00  0.27871214786E+03  0.27871214786E+03  0.00000000000E+00 0.  1.
          1   -1    0    0  501    0 -0.00000000000E+00 -0.00000000000E+00 -0.69637055582E+03  0.69637055582E+03  0.00000000000E+00 0.  1.
          2    1    1    2  501    0  0.99561837214E+02  0.28222661787E+02  0.89823847651E+02  0.13703065962E+03  0.00000000000E+00 0.  1.
          1    1    1    2  502    0 -0.24782900172E+02  0.48441700773E+01 -0.63732640053E+03  0.63782646460E+03  0.00000000000E+00 0.  1.
         22    1    1    2    0    0 -0.53360428985E+02  0.16661109247E+01  0.14667209274E+03  0.15608591895E+03  0.00000000000E+00 0. -1.
         22    1    1    2    0    0 -0.21418508058E+02 -0.34732942789E+02 -0.16827947818E+02  0.44139660510E+02  0.00000000000E+00 0.  1.
</event>
<event>
 6    1  0.3701283E-005  0.2261748E+03  0.7818608E-02  0.1129361E+00
          2   -1    0    0  502    0  0.00000000000E+00  0.00000000000E+00  0.28418566245E+03  0.28418566245E+03  0.00000000000E+00 0.  1.
          1   -1    0    0  501    0 -0.00000000000E+00 -0.00000000000E+00 -0.37510040470E+03  0.37510040470E+03  0.00000000000E+00 0.  1.
          2    1    1    2  501    0 -0.86850144374E+01 -0.27175605898E+02 -0.80849811735E+01  0.29653160916E+02  0.00000000000E+00 0.  1.
          1    1    1    2  502    0 -0.33589222008E+02  0.13181369116E+03 -0.31363337720E+03  0.34186105409E+03  0.00000000000E+00 0.  1.
         22    1    1    2    0    0  0.18121888856E+02 -0.23236158171E+02 -0.11030921922E+02  0.31464315354E+02  0.00000000000E+00 0.  1.
         22    1    1    2    0    0  0.24152347589E+02 -0.81401927087E+02  0.24183453804E+03  0.25630753679E+03  0.00000000000E+00 0.  1.
</event>
<event>
 6    1  0.3701283E-005  0.2691011E+03  0.7818608E-02  0.1101795E+00
          2   -1    0    0  502    0  0.00000000000E+00  0.00000000000E+00  0.30571174011E+02  0.30571174011E+02  0.00000000000E+00 0.  1.
          1   -1    0    0  501    0 -0.00000000000E+00 -0.00000000000E+00 -0.15597965190E+04  0.15597965190E+04  0.00000000000E+00 0.  1.
          2    1    1    2  501    0  0.26035151702E+02 -0.38244165315E+02 -0.42656432727E+03  0.42906592804E+03  0.00000000000E+00 0.  1.
          1    1    1    2  502    0 -0.19856904441E+02 -0.17014463392E+02 -0.96397756963E+03  0.96433217481E+03  0.00000000000E+00 0.  1.
         22    1    1    2    0    0  0.56589289988E+02  0.13751760143E+02 -0.32094875805E+02  0.66494659194E+02  0.00000000000E+00 0.  1.
         22    1    1    2    0    0 -0.62767537248E+02  0.41506868564E+02 -0.10658857228E+03  0.13047493097E+03  0.00000000000E+00 0.  1.
</event>
<event>
 6    1  0.3701283E-005  0.1620388E+03  0.7818608E-02  0.1186414E+00
          2   -1    0    0  502    0  0.00000000000E+00  0.00000000000E+00  0.42695148204E+02  0.42695148204E+02  0.00000000000E+00 0.  1.
          1   -1    0    0  501    0 -0.00000000000E+00 -0.00000000000E+00 -0.36780049235E+03  0.36780049235E+03  0.00000000000E+00 0.  1.
          2    1    1    2  501    0 -0.19506893811E+02  0.88836416195E+01 -0.21469703179E+02  0.30337866589E+02  0.00000000000E+00 0.  1.
          1    1    1    2  502    0 -0.39674693385E+02  0.15675382735E+02 -0.20344240227E+03  0.20786680822E+03  0.00000000000E+00 0.  1.
         22    1    1    2    0    0  0.11137399381E+02 -0.49527451924E+02 -0.10630335698E+03  0.11780243573E+03  0.00000000000E+00 0.  1.
         22    1    1    2    0    0  0.48044187814E+02  0.24968427569E+02  0.61101182775E+01  0.54488530017E+02  0.00000000000E+00 0.  1.
</event>
<event>
 6    1  0.3701283E-005  0.7243131E+02  0.7818608E-02  0.1354315E+00
          2   -1    0    0  502    0  0.00000000000E+00  0.00000000000E+00  0.46019031413E+02  0.46019031413E+02  0.00000000000E+00 0.  1.
          1   -1    0    0  501    0 -0.00000000000E+00 -0.00000000000E+00 -0.74174434109E+03  0.74174434109E+03  0.00000000000E+00 0.  1.
          2    1    1    2  501    0 -0.38864452019E+01 -0.26451097976E+02 -0.84367345403E+01  0.28034684413E+02  0.00000000000E+00 0.  1.
          1    1    1    2  502    0  0.23393021567E+02  0.23189919040E+02 -0.61576504382E+03  0.61664543702E+03  0.00000000000E+00 0.  1.
         22    1    1    2    0    0  0.17882192572E+02 -0.48047160557E+02 -0.56183443232E+01  0.51573910475E+02  0.00000000000E+00 0.  1.
         22    1    1    2    0    0 -0.37388768937E+02  0.51308339493E+02 -0.65905186993E+02  0.91509340598E+02  0.00000000000E+00 0.  1.
</event>
<event>
 6    1  0.3701283E-005  0.1609103E+03  0.7818608E-02  0.1241578E+00
          2   -1    0    0  502    0  0.00000000000E+00  0.00000000000E+00  0.69690944617E+03  0.69690944617E+03  0.00000000000E+00 0.  1.
          1   -1    0    0  501    0 -0.00000000000E+00 -0.00000000000E+00 -0.67814334319E+02  0.67814334319E+02  0.00000000000E+00 0. -1.
          2    1    1    2  501    0 -0.10259500171E+03 -0.30712487053E+02  0.18367006991E+03  0.21261158439E+03  0.00000000000E+00 0.  1.
          1    1    1    2  502    0  0.13742756132E+03  0.46039655707E+02  0.84632106632E+02  0.16783497246E+03  0.00000000000E+00 0. -1.
         22    1    1    2    0    0 -0.55503102612E+02  0.31649804320E+02  0.10136609153E+03  0.11982232273E+03  0.00000000000E+00 0.  1.
         22    1    1    2    0    0  0.20670543004E+02 -0.46976972974E+02  0.25942684379E+03  0.26445490091E+03  0.00000000000E+00 0.  1.
</event>
<event>
 6    1  0.3701283E-005  0.2175707E+03  0.7818608E-02  0.1135707E+00
          2   -1    0    0  502    0  0.00000000000E+00  0.00000000000E+00  0.27508668665E+03  0.27508668665E+03  0.00000000000E+00 0.  1.
          1   -1    0    0  501    0 -0.00000000000E+00 -0.00000000000E+00 -0.11312717583E+04  0.11312717583E+04  0.00000000000E+00 0.  1.
          2    1    1    2  501    0  0.41748466584E+02  0.50917654955E+02  0.40132666160E+02  0.77111431976E+02  0.00000000000E+00 0.  1.
          1    1    1    2  502    0 -0.21130690293E+02  0.17402075206E+02 -0.10880526072E+04  0.10883969011E+04  0.00000000000E+00 0.  1.
         22    1    1    2    0    0 -0.33465454880E+02 -0.38977440594E+02  0.20103531716E+03  0.20749548499E+03  0.00000000000E+00 0.  1.
         22    1    1    2    0    0  0.12847678589E+02 -0.29342289568E+02 -0.93004477061E+01  0.33354626812E+02  0.00000000000E+00 0.  1.
</event>
<event>
 6    1  0.3701283E-005  0.8641686E+02  0.7818608E-02  0.1315102E+00
          2   -1    0    0  502    0  0.00000000000E+00  0.00000000000E+00  0.41259178887E+03  0.41259178887E+03  0.00000000000E+00 0. -1.
          1   -1    0    0  501    0 -0.00000000000E+00 -0.00000000000E+00 -0.29548444267E+02  0.29548444267E+02  0.00000000000E+00 0. -1.
          2    1    1    2  501    0  0.40757893949E+02  0.13944125379E+02  0.47431875501E+02  0.64073608961E+02  0.00000000000E+00 0. -1.
          1    1    1    2  502    0 -0.19296340443E+02 -0.37714459115E+02  0.63640849828E+02  0.76451860329E+02  0.00000000000E+00 0. -1.
         22    1    1    2    0    0 -0.52906330461E+02 -0.30261061523E+02  0.85924359409E+02  0.10534613039E+03  0.00000000000E+00 0. -1.
         22    1    1    2    0    0  0.31444776954E+02  0.54031395259E+02  0.18604625986E+03  0.19626863346E+03  0.00000000000E+00 0. -1.
</event>
<event>
 6    1  0.3701283E-005  0.2852958E+03  0.7818608E-02  0.1092831E+00
          2   -1    0    0  502    0  0.00000000000E+00  0.00000000000E+00  0.75411293095E+02  0.75411293095E+02  0.00000000000E+00 0.  1.
          1   -1    0    0  501    0 -0.00000000000E+00 -0.00000000000E+00 -0.36693118654E+04  0.36693118654E+04  0.00000000000E+00 0. -1.
          2    1    1    2  501    0  0.90913982533E+02  0.34414942320E+02 -0.50150739140E+02  0.10938389786E+03  0.00000000000E+00 0.  1.
          1    1    1    2  502    0  0.43074075615E+02 -0.46333924012E+02 -0.33981272683E+04  0.33987161017E+04  0.00000000000E+00 0. -1.
         22    1    1    2    0    0 -0.12472261299E+03 -0.24464477885E+02 -0.15242927332E+03  0.19846643100E+03  0.00000000000E+00 0. -1.
         22    1    1    2    0    0 -0.92654451584E+01  0.36383459577E+02  0.68067084622E+01  0.38156727911E+02  0.00000000000E+00 0. -1.
</event>
<event>
 6    1  0.3701283E-005  0.1818473E+03  0.7818608E-02  0.1166027E+00
          2   -1    0    0  502    0  0.00000000000E+00  0.00000000000E+00  0.98433317458E+01  0.98433317458E+01  0.00000000000E+00 0. -1.
          1   -1    0    0  501    0 -0.00000000000E+00 -0.00000000000E+00 -0.33683709031E+04  0.33683709031E+04  0.00000000000E+00 0. -1.
          2    1    1    2  501    0 -0.14868648365E+02 -0.20316760943E+02 -0.19357949649E+03  0.19520980750E+03  0.00000000000E+00 0. -1.
          1    1    1    2  502    0  0.99375128944E+02  0.54519291556E+01 -0.24305638506E+04  0.24326006190E+04  0.00000000000E+00 0. -1.
         22    1    1    2    0    0 -0.72903929974E+02  0.67742610258E+02 -0.50567949190E+03  0.51537927081E+03  0.00000000000E+00 0. -1.
         22    1    1    2    0    0 -0.11602550604E+02 -0.52877778471E+02 -0.22870473235E+03  0.23502453752E+03  0.00000000000E+00 0. -1.
</event>
<event>
 6    1  0.3701283E-005  0.5751184E+02  0.7818608E-02  0.1436612E+00
          2   -1    0    0  502    0  0.00000000000E+00  0.00000000000E+00  0.22099163278E+03  0.22099163278E+03  0.00000000000E+00 0.  1.
          1   -1    0    0  501    0 -0.00000000000E+00 -0.00000000000E+00 -0.24467157800E+03  0.24467157800E+03  0.00000000000E+00 0. -1.
          2    1    1    2  501    0  0.14853485909E+02 -0.16997626358E+02  0.36065905794E+02  0.42547560520E+02  0.00000000000E+00 0.  1.
          1    1    1    2  502    0 -0.32254089833E+02  0.34874417463E+02 -0.21758714171E+03  0.22271218095E+03  0.00000000000E+00 0. -1.
         22    1    1    2    0    0 -0.35167281077E+02  0.12810147066E+02  0.12653690614E+03  0.13195615234E+03  0.00000000000E+00 0.  1.
         22    1    1    2    0    0  0.52567885000E+02 -0.30686938171E+02  0.31304384555E+02  0.68447316968E+02  0.00000000000E+00 0.  1.
</event>
<event>
 6    1  0.3701283E-005  0.1267153E+03  0.7818608E-02  0.1292235E+00
          2   -1    0    0  502    0  0.00000000000E+00  0.00000000000E+00  0.96711266168E+02  0.96711266168E+02  0.00000000000E+00 0.  1.
          1   -1    0    0  501    0 -0.00000000000E+00 -0.00000000000E+00 -0.19515017390E+04  0.19515017390E+04  0.00000000000E+00 0. -1.
          2    1    1    2  501    0 -0.38716991206E+02  0.39743485783E+01 -0.17635602504E+02  0.42729560381E+02  0.00000000000E+00 0.  1.
          1    1    1    2  502    0  0.12158206799E+03 -0.17183602301E+01 -0.18492259840E+04  0.18532193318E+04  0.00000000000E+00 0. -1.
         22    1    1    2    0    0  0.25924717195E+02 -0.29467302807E+02  0.79619194456E+01  0.40047534976E+02  0.00000000000E+00 0.  1.
         22    1    1    2    0    0 -0.10878979398E+03  0.27211314459E+02  0.41091941659E+01  0.11221657803E+03  0.00000000000E+00 0.  1.
</event>
<event>
 6    1  0.3701283E-005  0.1661072E+03  0.7818608E-02  0.1181969E+00
          2   -1    0    0  502    0  0.00000000000E+00  0.00000000000E+00  0.19260762451E+02  0.19260762451E+02  0.00000000000E+00 0.  1.
          1   -1    0    0  501    0 -0.00000000000E+00 -0.00000000000E+00 -0.97440969314E+03  0.97440969314E+03  0.00000000000E+00 0.  1.
          2    1    1    2  501    0  0.33995145429E+02 -0.16156871765E+02 -0.22284023137E+03  0.22599664407E+03  0.00000000000E+00 0.  1.
          1    1    1    2  502    0 -0.31782458341E+02  0.55315914779E+02 -0.77213916488E+02  0.10015969242E+03  0.00000000000E+00 0.  1.
         22    1    1    2    0    0  0.23773108034E+02 -0.77125407446E+02 -0.46341287811E+03  0.47038812138E+03  0.00000000000E+00 0.  1.
         22    1    1    2    0    0 -0.25985795122E+02  0.37966364431E+02 -0.19168190473E+03  0.19712599772E+03  0.00000000000E+00 0.  1.
</event>
<event>
 6    1  0.3701283E-005  0.2322234E+03  0.7818608E-02  0.1125085E+00
          2   -1    0    0  502    0  0.00000000000E+00  0.00000000000E+00  0.25853750503E+03  0.25853750503E+03  0.00000000000E+00 0. -1.
          1   -1    0    0  501    0 -0.00000000000E+00 -0.00000000000E+00 -0.14923827877E+03  0.14923827877E+03  0.00000000000E+00 0.  1.
          2    1    1    2  501    0  0.57961816676E+02  0.97530390593E+01  0.17519784374E+02  0.61332184110E+02  0.00000000000E+00 0. -1.
          1    1    1    2  502    0 -0.45592473080E+02  0.96219439411E+02 -0.58298560329E+02  0.12139018189E+03  0.00000000000E+00 0.  1.
         22    1    1    2    0    0  0.35711261704E+02 -0.87659527470E+02  0.38500509077E+02  0.10218500951E+03  0.00000000000E+00 0. -1.
         22    1    1    2    0    0 -0.48080605300E+02 -0.18312951000E+02  0.11157749314E+03  0.12286840829E+03  0.00000000000E+00 0. -1.
</event>
<event>
 6    1  0.3701283E-005  0.1553349E+03  0.7818608E-02  0.1194067E+00
          2   -1    0    0  502    0  0.00000000000E+00  0.00000000000E+00  0.21860916128E+03  0.21860916128E+03  0.00000000000E+00 0.  1.
          1   -1    0    0  501    0 -0.00000000000E+00 -0.00000000000E+00 -0.15441023386E+03  0.15441023386E+03  0.00000000000E+00 0.  1.
          2    1    1    2  501    0  0.10114995012E+02  0.22753679971E+02  0.43748829102E+02  0.50338882825E+02  0.00000000000E+00 0.  1.
          1    1    1    2  502    0 -0.36988257924E+02 -0.41936514242E+02 -0.11980721372E+03  0.13221411010E+03  0.00000000000E+00 0.  1.
         22    1    1    2    0    0  0.20648960209E+02 -0.36537921684E+02  0.28560501865E+01  0.42066094439E+02  0.00000000000E+00 0. -1.
         22    1    1    2    0    0  0.62243027031E+01  0.55720755956E+02  0.13740126185E+03  0.14840030777E+03  0.00000000000E+00 0.  1.
</event>
<event>
 6    1  0.3701283E-005  0.2993869E+03  0.7818608E-02  0.1085547E+00
          2   -1    0    0  502    0  0.00000000000E+00  0.00000000000E+00  0.98448494870E+02  0.98448494870E+02  0.00000000000E+00 0. -1.
          1   -1    0    0  501    0 -0.00000000000E+00 -0.00000000000E+00 -0.13602731600E+04  0.13602731600E+04  0.00000000000E+00 0.  1.
          2    1    1    2  501    0  0.23066053423E+01 -0.20475650462E+02 -0.29355752562E+02  0.35865483386E+02  0.00000000000E+00 0. -1.
          1    1    1    2  502    0  0.25139519462E+01 -0.22615954355E+03 -0.10906501513E+04  0.11138546636E+04  0.00000000000E+00 0.  1.
         22    1    1    2    0    0 -0.94837532509E+01  0.26001366107E+03 -0.13192639813E+03  0.29172181962E+03  0.00000000000E+00 0. -1.
         22    1    1    2    0    0  0.46631959625E+01 -0.13378467057E+02 -0.98923630871E+01  0.17279688215E+02  0.00000000000E+00 0.  1.
</event>
<event>
 6    1  0.3701283E-005  0.3037403E+03  0.7818608E-02  0.1083386E+00
          2   -1    0    0  502    0  0.00000000000E+00  0.00000000000E+00  0.55216545093E+03  0.55216545093E+03  0.00000000000E+00 0.  1.
          1   -1    0    0  501    0 -0.00000000000E+00 -0.00000000000E+00 -0.11230186735E+03  0.11230186735E+03  0.00000000000E+00 0.  1.
          2    1    1    2  501    0  0.74292937783E+02 -0.51863804568E+02  0.13364578825E+03  0.16146359201E+03  0.00000000000E+00 0.  1.
          1    1    1    2  502    0 -0.11248834209E+02  0.19172527818E+03  0.20149057579E+03  0.27835870868E+03  0.00000000000E+00 0.  1.
         22    1    1    2    0    0 -0.97446365891E+02 -0.12769248531E+03  0.73621810993E+02  0.17669560290E+03  0.00000000000E+00 0.  1.
         22    1    1    2    0    0  0.34402262318E+02 -0.12168988303E+02  0.31105408543E+02  0.47949414694E+02  0.00000000000E+00 0.  1.
</event>
<event>
 6    1  0.3701283E-005  0.1709747E+03  0.7818608E-02  0.1176835E+00
          2   -1    0    0  502    0  0.00000000000E+00  0.00000000000E+00  0.62232099031E+02  0.62232099031E+02  0.00000000000E+00 0.  1.
          1   -1    0    0  501    0 -0.00000000000E+00 -0.00000000000E+00 -0.22770062396E+03  0.22770062396E+03  0.00000000000E+00 0.  1.
          2    1    1    2  501    0  0.81437477378E+01 -0.36998433142E+02 -0.32680361020E+02  0.50032096484E+02  0.00000000000E+00 0.  1.
          1    1    1    2  502    0 -0.20090373015E+02  0.43540385625E+02 -0.92192256791E+02  0.10391727710E+03  0.00000000000E+00 0.  1.
         22    1    1    2    0    0  0.66723793293E+02  0.13761639883E+00 -0.45225398409E+02  0.80606576598E+02  0.00000000000E+00 0.  1.
         22    1    1    2    0    0 -0.54777168015E+02 -0.66795688814E+01  0.46294912961E+01  0.55376772801E+02  0.00000000000E+00 0. -1.
</event>
<event>
 6    1  0.3701283E-005  0.8426420E+02  0.7818608E-02  0.1329805E+00
          2   -1    0    0  502    0  0.00000000000E+00  0.00000000000E+00  0.18153603546E+03  0.18153603546E+03  0.00000000000E+00 0. -1.
          1   -1    0    0  501    0 -0.00000000000E+00 -0.00000000000E+00 -0.11440121894E+04  0.11440121894E+04  0.00000000000E+00 0.  1.
          2    1    1    2  501    0  0.52695272740E+02 -0.11305123710E+02 -0.50759344978E+01  0.54132824628E+02  0.00000000000E+00 0. -1.
          1    1    1    2  502    0 -0.19563024701E+02  0.74222717271E+02 -0.10811521532E+04  0.10838734714E+04  0.00000000000E+00 0.  1.
         22    1    1    2    0    0  0.29551515218E+02 -0.37726700030E+02  0.15952685685E+01  0.47949356916E+02  0.00000000000E+00 0. -1.
         22    1    1    2    0    0 -0.62683763257E+02 -0.25190893531E+02  0.12215666515E+03  0.13959257192E+03  0.00000000000E+00 0. -1.
</event>
<event>
 6    1  0.3701283E-005  0.3638310E+03  0.7818608E-02  0.1118302E+00
          2   -1    0    0  502    0  0.00000000000E+00  0.00000000000E+00  0.11699507984E+04  0.11699507984E+04  0.00000000000E+00 0. -1.
          1   -1    0    0  501    0 -0.00000000000E+00 -0.00000000000E+00 -0.15095712441E+03  0.15095712441E+03  0.00000000000E+00 0. -1.
          2    1    1    2  501    0  0.29321058059E+03 -0.84197890285E+02  0.15251659876E+03  0.34106163988E+03  0.00000000000E+00 0. -1.
          1    1    1    2  502    0 -0.32008083396E+03  0.55229741426E+02  0.63568866102E+03  0.71386422963E+03  0.00000000000E+00 0. -1.
         22    1    1    2    0    0  0.43016620162E+02 -0.40695957359E+02  0.84919583773E+02  0.10352741793E+03  0.00000000000E+00 0.  1.
         22    1    1    2    0    0 -0.16146366801E+02  0.69664106218E+02  0.14586883040E+03  0.16245463533E+03  0.00000000000E+00 0.  1.
</event>
<event>
 6    1  0.5002311E-005  0.6453650E+02  0.7818608E-02  0.1387709E+00
          2   -1    0    0  502    0  0.00000000000E+00  0.00000000000E+00  0.27407665363E+03  0.27407665363E+03  0.00000000000E+00 0.  1.
          1   -1    0    0  501    0 -0.00000000000E+00 -0.00000000000E+00 -0.11643708673E+04  0.11643708673E+04  0.00000000000E+00 0. -1.
          2    1    1    2  501    0  0.43807923025E+02 -0.61084416737E+00  0.77194578848E+01  0.44487046209E+02  0.00000000000E+00 0.  1.
          1    1    1    2  502    0 -0.43601108253E+02  0.17519369148E+02 -0.11303513217E+04  0.11313275809E+04  0.00000000000E+00 0. -1.
         22    1    1    2    0    0 -0.38768308950E+02 -0.38287656625E+02  0.20172972261E+03  0.20895886536E+03  0.00000000000E+00 0.  1.
         22    1    1    2    0    0  0.38561494178E+02  0.21379131645E+02  0.30607927507E+02  0.53674028445E+02  0.00000000000E+00 0.  1.
</event>
<event>
 6    1  0.3701283E-005  0.6958338E+03  0.7818608E-02  0.9724384E-01
          2   -1    0    0  502    0  0.00000000000E+00  0.00000000000E+00  0.14487734622E+04  0.14487734622E+04  0.00000000000E+00 0.  1.
          1   -1    0    0  501    0 -0.00000000000E+00 -0.00000000000E+00 -0.30647429676E+03  0.30647429676E+03  0.00000000000E+00 0.  1.
          2    1    1    2  501    0 -0.96432146010E+02 -0.33226032813E+03  0.26945505209E+03  0.43852264426E+03  0.00000000000E+00 0.  1.
          1    1    1    2  502    0  0.33202223704E+03  0.25279427423E+03  0.94335309069E+03  0.10315322412E+04  0.00000000000E+00 0.  1.
         22    1    1    2    0    0 -0.24328930477E+03  0.92619130811E+02 -0.71366229733E+02  0.26992800513E+03  0.00000000000E+00 0. -1.
         22    1    1    2    0    0  0.76992137344E+01 -0.13153076909E+02  0.85725240170E+00  0.15264868358E+02  0.00000000000E+00 0.  1.
</event>
<event>
 6    1  0.3701283E-005  0.1646815E+03  0.7818608E-02  0.1183510E+00
          2   -1    0    0  502    0  0.00000000000E+00  0.00000000000E+00  0.81414929813E+02  0.81414929813E+02  0.00000000000E+00 0. -1.
          1   -1    0    0  501    0 -0.00000000000E+00 -0.00000000000E+00 -0.19458923016E+03  0.19458923016E+03  0.00000000000E+00 0. -1.
          2    1    1    2  501    0 -0.28140995419E+02 -0.77092017520E+01  0.24313506010E+01  0.29278983598E+02  0.00000000000E+00 0. -1.
          1    1    1    2  502    0  0.43994208900E+02  0.61377783704E+02 -0.76082102659E+02  0.10719705730E+03  0.00000000000E+00 0. -1.
         22    1    1    2    0    0  0.26921580905E+02 -0.46745424121E+02 -0.68656785123E+02  0.87313574765E+02  0.00000000000E+00 0.  1.
         22    1    1    2    0    0 -0.42774794386E+02 -0.69231578310E+01  0.29133236833E+02  0.52214544310E+02  0.00000000000E+00 0. -1.
</event>
<event>
 6    1  0.3701283E-005  0.1237712E+03  0.7818608E-02  0.1284288E+00
          2   -1    0    0  502    0  0.00000000000E+00  0.00000000000E+00  0.32945982270E+02  0.32945982270E+02  0.00000000000E+00 0.  1.
          1   -1    0    0  501    0 -0.00000000000E+00 -0.00000000000E+00 -0.68695806367E+03  0.68695806367E+03  0.00000000000E+00 0.  1.
          2    1    1    2  501    0 -0.32453217688E+02 -0.30057242548E+02 -0.55134935607E+02  0.70685997852E+02  0.00000000000E+00 0.  1.
          1    1    1    2  502    0  0.64298674380E+02  0.84596055341E+02 -0.33412617245E+03  0.35061533227E+03  0.00000000000E+00 0.  1.
         22    1    1    2    0    0  0.29684786830E+01 -0.88872334809E+02 -0.17973308730E+03  0.20052702170E+03  0.00000000000E+00 0.  1.
         22    1    1    2    0    0 -0.34813935375E+02  0.34333522016E+02 -0.85017886040E+02  0.98075694120E+02  0.00000000000E+00 0. -1.
</event>
<event>
 6    1  0.5126618E-005  0.6720163E+03  0.7818608E-02  0.9766322E-01
          2   -1    0    0  502    0  0.00000000000E+00  0.00000000000E+00  0.46184607277E+03  0.46184607277E+03  0.00000000000E+00 0. -1.
          1   -1    0    0  501    0 -0.00000000000E+00 -0.00000000000E+00 -0.53996420576E+03  0.53996420576E+03  0.00000000000E+00 0.  1.
          2    1    1    2  501    0 -0.30673641278E+02  0.18972013089E+03 -0.17048954273E+03  0.25690715154E+03  0.00000000000E+00 0. -1.
          1    1    1    2  502    0 -0.34911143004E+02 -0.11896456036E+02 -0.29374211645E+03  0.29604855100E+03  0.00000000000E+00 0.  1.
         22    1    1    2    0    0 -0.10026378006E+02  0.14844689778E+02  0.12842138485E+02  0.22041179446E+02  0.00000000000E+00 0. -1.
         22    1    1    2    0    0  0.75611162288E+02 -0.19266836463E+03  0.37327138770E+03  0.42681339654E+03  0.00000000000E+00 0. -1.
</event>
<event>
 6    1  0.3701283E-005  0.9358294E+02  0.7818608E-02  0.1297732E+00
          2   -1    0    0  502    0  0.00000000000E+00  0.00000000000E+00  0.42690757213E+03  0.42690757213E+03  0.00000000000E+00 0. -1.
          1   -1    0    0  501    0 -0.00000000000E+00 -0.00000000000E+00 -0.48336012258E+02  0.48336012258E+02  0.00000000000E+00 0. -1.
          2    1    1    2  501    0 -0.39609588622E+02 -0.25676507815E+02  0.49645637220E+02  0.68504684945E+02  0.00000000000E+00 0. -1.
          1    1    1    2  502    0 -0.51002956671E+01  0.70733177281E+02  0.34179658892E+02  0.78723849411E+02  0.00000000000E+00 0. -1.
         22    1    1    2    0    0 -0.44016525922E+02 -0.31075002241E+02  0.11975434821E+03  0.13131722749E+03  0.00000000000E+00 0. -1.
         22    1    1    2    0    0  0.88726410211E+02 -0.13981667225E+02  0.17499191554E+03  0.19669782254E+03  0.00000000000E+00 0.  1.
</event>
<event>
 6    1  0.3701283E-005  0.2285191E+03  0.7818608E-02  0.1127686E+00
          2   -1    0    0  502    0  0.00000000000E+00  0.00000000000E+00  0.36891898621E+03  0.36891898621E+03  0.00000000000E+00 0. -1.
          1   -1    0    0  501    0 -0.00000000000E+00 -0.00000000000E+00 -0.10826972461E+03  0.10826972461E+03  0.00000000000E+00 0. -1.
          2    1    1    2  501    0 -0.12226449540E+02 -0.34546702522E+02  0.42744878921E+01  0.36894877290E+02  0.00000000000E+00 0. -1.
          1    1    1    2  502    0  0.15534527640E+03  0.81586002116E+01  0.17243589533E+03  0.23223448421E+03  0.00000000000E+00 0. -1.
         22    1    1    2    0    0 -0.15163441273E+02 -0.41696713040E+02  0.29254634478E+02  0.53144891269E+02  0.00000000000E+00 0.  1.
         22    1    1    2    0    0 -0.12795538559E+03  0.68084815350E+02  0.54684243905E+02  0.15491445805E+03  0.00000000000E+00 0.  1.
</event>
<event>
 6    1  0.3701283E-005  0.2379598E+03  0.7818608E-02  0.1121159E+00
          2   -1    0    0  502    0  0.00000000000E+00  0.00000000000E+00  0.55895263047E+02  0.55895263047E+02  0.00000000000E+00 0.  1.
          1   -1    0    0  501    0 -0.00000000000E+00 -0.00000000000E+00 -0.55407632079E+03  0.55407632079E+03  0.00000000000E+00 0. -1.
          2    1    1    2  501    0 -0.11140619228E+02  0.42716202467E+02 -0.18082593054E+03  0.18613652115E+03  0.00000000000E+00 0.  1.
          1    1    1    2  502    0 -0.12897825085E+02 -0.32435253701E+02 -0.29503511593E+03  0.29709277879E+03  0.00000000000E+00 0. -1.
         22    1    1    2    0    0  0.13691712778E+02  0.10966351821E+02 -0.70729418710E+02  0.72872316706E+02  0.00000000000E+00 0.  1.
         22    1    1    2    0    0  0.10346731535E+02 -0.21247300587E+02  0.48409407445E+02  0.53869967189E+02  0.00000000000E+00 0.  1.
</event>
<event>
 6    1  0.3701283E-005  0.1732315E+03  0.7818608E-02  0.1174519E+00
          2   -1    0    0  502    0  0.00000000000E+00  0.00000000000E+00  0.25580501697E+02  0.25580501697E+02  0.00000000000E+00 0. -1.
          1   -1    0    0  501    0 -0.00000000000E+00 -0.00000000000E+00 -0.82530082015E+03  0.82530082015E+03  0.00000000000E+00 0. -1.
          2    1    1    2  501    0 -0.23841638050E+02 -0.22328019226E+02 -0.87136031326E+02  0.93057251748E+02  0.00000000000E+00 0. -1.
          1    1    1    2  502    0  0.71894467475E+02  0.36629715668E+02 -0.48471653174E+03  0.49138647383E+03  0.00000000000E+00 0. -1.
         22    1    1    2    0    0 -0.36582715040E+02 -0.53691192705E+02 -0.45018467072E+02  0.79042403755E+02  0.00000000000E+00 0. -1.
         22    1    1    2    0    0 -0.11470114384E+02  0.39389496263E+02 -0.18284928832E+03  0.18739519252E+03  0.00000000000E+00 0. -1.
</event>
<event>
 6    1  0.3701283E-005  0.1826419E+03  0.7818608E-02  0.1165270E+00
          2   -1    0    0  502    0  0.00000000000E+00  0.00000000000E+00  0.73138853979E+02  0.73138853979E+02  0.00000000000E+00 0.  1.
          1   -1    0    0  501    0 -0.00000000000E+00 -0.00000000000E+00 -0.37973270805E+03  0.37973270805E+03  0.00000000000E+00 0.  1.
          2    1    1    2  501    0  0.52360236936E+01 -0.49562774418E+02 -0.24002056753E+02  0.55317115620E+02  0.00000000000E+00 0.  1.
          1    1    1    2  502    0  0.25375271279E+02  0.30850052031E+02 -0.26178265585E+03  0.26481274329E+03  0.00000000000E+00 0.  1.
         22    1    1    2    0    0  0.38981382512E+00  0.68098946578E+02 -0.28698927818E+02  0.73900249917E+02  0.00000000000E+00 0.  1.
         22    1    1    2    0    0 -0.31001108797E+02 -0.49386224191E+02  0.78897863521E+01  0.58841453204E+02  0.00000000000E+00 0. -1.
</event>
<event>
 6    1  0.3701283E-005  0.1587218E+03  0.7818608E-02  0.1248053E+00
          2   -1    0    0  502    0  0.00000000000E+00  0.00000000000E+00  0.10530299002E+03  0.10530299002E+03  0.00000000000E+00 0. -1.
          1   -1    0    0  501    0 -0.00000000000E+00 -0.00000000000E+00 -0.45376463923E+03  0.45376463923E+03  0.00000000000E+00 0. -1.
          2    1    1    2  501    0 -0.11593348915E+03 -0.48259220128E+02 -0.73499056480E+02  0.14550476809E+03  0.00000000000E+00 0. -1.
          1    1    1    2  502    0  0.13139781272E+03  0.55927797844E+02 -0.24375861036E+03  0.28250940494E+03  0.00000000000E+00 0. -1.
         22    1    1    2    0    0  0.46293527649E+02 -0.77349239441E+01  0.19815842850E+02  0.50946907448E+02  0.00000000000E+00 0. -1.
         22    1    1    2    0    0 -0.61757851219E+02  0.66346228153E-01 -0.51019825225E+02  0.80106548765E+02  0.00000000000E+00 0. -1.
</event>
<event>
 6    1  0.3701283E-005  0.1319731E+03  0.7818608E-02  0.1238836E+00
          2   -1    0    0  502    0  0.00000000000E+00  0.00000000000E+00  0.22102548502E+03  0.22102548502E+03  0.00000000000E+00 0.  1.
          1   -1    0    0  501    0 -0.00000000000E+00 -0.00000000000E+00 -0.75425762948E+03  0.75425762948E+03  0.00000000000E+00 0.  1.
          2    1    1    2  501    0 -0.14940274495E+02  0.55145959614E+02  0.33723980074E+02  0.66344521219E+02  0.00000000000E+00 0.  1.
          1    1    1    2  502    0 -0.82943262601E+02 -0.93570046774E+02 -0.69100337454E+03  0.70222546385E+03  0.00000000000E+00 0.  1.
         22    1    1    2    0    0  0.97971689301E+02 -0.86667559952E+01  0.32188969421E+02  0.10348765297E+03  0.00000000000E+00 0.  1.
         22    1    1    2    0    0 -0.88152204530E-01  0.47090843155E+02  0.91858280585E+02  0.10322547647E+03  0.00000000000E+00 0.  1.
</event>
<event>
 6    1  0.3701283E-005  0.1098751E+03  0.7818608E-02  0.1262977E+00
          2   -1    0    0  502    0  0.00000000000E+00  0.00000000000E+00  0.22053071828E+03  0.22053071828E+03  0.00000000000E+00 0. -1.
          1   -1    0    0  501    0 -0.00000000000E+00 -0.00000000000E+00 -0.13011629356E+03  0.13011629356E+03  0.00000000000E+00 0. -1.
          2    1    1    2  501    0 -0.38786340300E+02  0.21976692316E+02 -0.53227309549E+02  0.69429832787E+02  0.00000000000E+00 0. -1.
          1    1    1    2  502    0 -0.58739888776E+02  0.83808535117E+01 -0.77790551120E+01  0.59842517806E+02  0.00000000000E+00 0. -1.
         22    1    1    2    0    0  0.10414085713E+03 -0.51776683456E+02  0.15962779161E+03  0.19750234157E+03  0.00000000000E+00 0. -1.
         22    1    1    2    0    0 -0.66146280508E+01  0.21419137628E+02 -0.82070022237E+01  0.23872319671E+02  0.00000000000E+00 0. -1.
</event>
<event>
 6    1  0.3701283E-005  0.1532693E+03  0.7818608E-02  0.1196512E+00
          2   -1    0    0  502    0  0.00000000000E+00  0.00000000000E+00  0.49161603342E+02  0.49161603342E+02  0.00000000000E+00 0.  1.
          1   -1    0    0  501    0 -0.00000000000E+00 -0.00000000000E+00 -0.75031803862E+03  0.75031803862E+03  0.00000000000E+00 0.  1.
          2    1    1    2  501    0  0.27321625189E+02  0.85599654800E+01 -0.18715594106E+02  0.34205521114E+02  0.00000000000E+00 0.  1.
          1    1    1    2  502    0 -0.28398251289E+02 -0.84658626737E+01 -0.62965627278E+03  0.63035319731E+03  0.00000000000E+00 0.  1.
         22    1    1    2    0    0 -0.18521754425E+02  0.51428428727E+02 -0.57818959228E+02  0.79567397309E+02  0.00000000000E+00 0.  1.
         22    1    1    2    0    0  0.19598380526E+02 -0.51522531533E+02  0.50343908371E+01  0.55353526229E+02  0.00000000000E+00 0.  1.
</event>
<event>
 6    1  0.3701283E-005  0.9611492E+02  0.7818608E-02  0.1328106E+00
          2   -1    0    0  502    0  0.00000000000E+00  0.00000000000E+00  0.86017464378E+03  0.86017464378E+03  0.00000000000E+00 0. -1.
          1   -1    0    0  501    0 -0.00000000000E+00 -0.00000000000E+00 -0.23156867788E+02  0.23156867788E+02  0.00000000000E+00 0. -1.
          2    1    1    2  501    0 -0.23713079311E+02 -0.75907412679E+01  0.88876467918E+02  0.92298190844E+02  0.00000000000E+00 0. -1.
          1    1    1    2  502    0  0.83601798809E+02  0.30827999594E+02  0.12907064340E+03  0.15684022861E+03  0.00000000000E+00 0. -1.
         22    1    1    2    0    0 -0.89801375280E+02  0.12892893121E+02  0.41524289602E+03  0.42503785290E+03  0.00000000000E+00 0. -1.
         22    1    1    2    0    0  0.29912655782E+02 -0.36130151447E+02  0.20382776865E+03  0.20915523921E+03  0.00000000000E+00 0. -1.
</event>
<event>
 6    1  0.3701283E-005  0.3046959E+03  0.7818608E-02  0.1082916E+00
          2   -1    0    0  502    0  0.00000000000E+00  0.00000000000E+00  0.30561053884E+03  0.30561053884E+03  0.00000000000E+00 0. -1.
          1   -1    0    0  501    0 -0.00000000000E+00 -0.00000000000E+00 -0.30954375136E+03  0.30954375136E+03  0.00000000000E+00 0. -1.
          2    1    1    2  501    0 -0.43348972380E+02 -0.43290059273E+02 -0.40976913259E+02  0.73703935163E+02  0.00000000000E+00 0. -1.
          1    1    1    2  502    0 -0.26266415812E+02  0.71714992290E+01 -0.23260581214E+03  0.23419397695E+03  0.00000000000E+00 0. -1.
         22    1    1    2    0    0  0.97470496699E+02  0.13115490849E+02  0.24364176103E+03  0.26274288105E+03  0.00000000000E+00 0. -1.
         22    1    1    2    0    0 -0.27855108507E+02  0.23003069195E+02  0.26007751850E+02  0.44513497038E+02  0.00000000000E+00 0. -1.
</event>
<event>
 6    1  0.3701283E-005  0.8415127E+02  0.7818608E-02  0.1324455E+00
          2   -1    0    0  502    0  0.00000000000E+00  0.00000000000E+00  0.67707566285E+03  0.67707566285E+03  0.00000000000E+00 0. -1.
          1   -1    0    0  501    0 -0.00000000000E+00 -0.00000000000E+00 -0.68786745801E+02  0.68786745801E+02  0.00000000000E+00 0. -1.
          2    1    1    2  501    0 -0.16404401522E+02  0.27498650306E+02 -0.85189849983E+01  0.33133868826E+02  0.00000000000E+00 0. -1.
          1    1    1    2  502    0  0.93435430406E+01 -0.39575348603E+02  0.57714196752E+03  0.57857269266E+03  0.00000000000E+00 0. -1.
         22    1    1    2    0    0 -0.35323362304E+02  0.53481990477E+02  0.38748320815E+02  0.74896565982E+02  0.00000000000E+00 0.  1.
         22    1    1    2    0    0  0.42384220786E+02 -0.41405292181E+02  0.91761371416E+00  0.59259281190E+02  0.00000000000E+00 0. -1.
</event>
<event>
 6    1  0.3701283E-005  0.1718831E+03  0.7818608E-02  0.1175898E+00
          2   -1    0    0  502    0  0.00000000000E+00  0.00000000000E+00  0.35554283520E+03  0.35554283520E+03  0.00000000000E+00 0.  1.
          1   -1    0    0  501    0 -0.00000000000E+00 -0.00000000000E+00 -0.48300285306E+02  0.48300285306E+02  0.00000000000E+00 0.  1.
          2    1    1    2  501    0 -0.38500059876E+02  0.24447149205E+02  0.81370180096E+02  0.93279279176E+02  0.00000000000E+00 0.  1.
          1    1    1    2  502    0  0.23374839040E+02 -0.36404483611E+02 -0.87398152357E+01  0.44136763559E+02  0.00000000000E+00 0.  1.
         22    1    1    2    0    0  0.50293498237E+02  0.43793661196E+02  0.77166468911E+02  0.10199012036E+03  0.00000000000E+00 0.  1.
         22    1    1    2    0    0 -0.35168277401E+02 -0.31836326790E+02  0.15744571612E+03  0.16443695741E+03  0.00000000000E+00 0. -1.
</event>
<event>
 6    1  0.3701283E-005  0.1740487E+03  0.7818608E-02  0.1198403E+00
          2   -1    0    0  502    0  0.00000000000E+00  0.00000000000E+00  0.10844976194E+03  0.10844976194E+03  0.00000000000E+00 0. -1.
          1   -1    0    0  501    0 -0.00000000000E+00 -0.00000000000E+00 -0.62407098969E+03  0.62407098969E+03  0.00000000000E+00 0. -1.
          2    1    1    2  501    0 -0.81767500472E+02  0.31062766276E+02 -0.22650517919E+03  0.24280736352E+03  0.00000000000E+00 0. -1.
          1    1    1    2  502    0  0.19021987971E+03 -0.93552155572E+02 -0.11030207257E+03  0.23896057345E+03  0.00000000000E+00 0. -1.
         22    1    1    2    0    0 -0.64987419828E+02 -0.28056602018E+02 -0.10270679621E+03  0.12473661708E+03  0.00000000000E+00 0. -1.
         22    1    1    2    0    0 -0.43464959410E+02  0.90545991313E+02 -0.76107179785E+02  0.12601619759E+03  0.00000000000E+00 0.  1.
</event>
<event>
 6    1  0.3701283E-005  0.1777217E+03  0.7818608E-02  0.1171200E+00
          2   -1    0    0  502    0  0.00000000000E+00  0.00000000000E+00  0.10326156046E+03  0.10326156046E+03  0.00000000000E+00 0.  1.
          1   -1    0    0  501    0 -0.00000000000E+00 -0.00000000000E+00 -0.53040794254E+03  0.53040794254E+03  0.00000000000E+00 0.  1.
          2    1    1    2  501    0 -0.10680333898E+03 -0.95132912326E+02 -0.16048646116E+03  0.21497238995E+03  0.00000000000E+00 0.  1.
          1    1    1    2  502    0  0.58720681264E+02 -0.74136757877E+02 -0.14531702296E+03  0.17338227833E+03  0.00000000000E+00 0.  1.
         22    1    1    2    0    0  0.61414788751E+02  0.18291330602E+03 -0.11732913306E+03  0.22582112227E+03  0.00000000000E+00 0.  1.
         22    1    1    2    0    0 -0.13332131036E+02 -0.13643635822E+02 -0.40137649067E+01  0.19493712451E+02  0.00000000000E+00 0.  1.
</event>
<event>
 6    1  0.3701283E-005  0.2454159E+03  0.7818608E-02  0.1116677E+00
          2   -1    0    0  502    0  0.00000000000E+00  0.00000000000E+00  0.26841141697E+03  0.26841141697E+03  0.00000000000E+00 0.  1.
          1   -1    0    0  501    0 -0.00000000000E+00 -0.00000000000E+00 -0.49373408208E+03  0.49373408208E+03  0.00000000000E+00 0.  1.
          2    1    1    2  501    0 -0.57355562038E+02 -0.22866049282E+03 -0.15302616207E+03  0.28105566664E+03  0.00000000000E+00 0.  1.
          1    1    1    2  502    0 -0.17105731474E+02  0.13420806961E+02 -0.19256836155E+03  0.19379189348E+03  0.00000000000E+00 0.  1.
         22    1    1    2    0    0  0.85081905203E+02  0.22555918580E+03  0.12525932226E+03  0.27167218243E+03  0.00000000000E+00 0.  1.
         22    1    1    2    0    0 -0.10620611692E+02 -0.10319499945E+02 -0.49874637520E+01  0.15625756509E+02  0.00000000000E+00 0.  1.
</event>
<event>
 6    1  0.3701283E-005  0.9840517E+02  0.7818608E-02  0.1285731E+00
          2   -1    0    0  502    0  0.00000000000E+00  0.00000000000E+00  0.16874193854E+03  0.16874193854E+03  0.00000000000E+00 0.  1.
          1   -1    0    0  501    0 -0.00000000000E+00 -0.00000000000E+00 -0.85911627972E+02  0.85911627972E+02  0.00000000000E+00 0.  1.
          2    1    1    2  501    0  0.57652071612E+02  0.20222657408E+00  0.26414027532E+02  0.63415322338E+02  0.00000000000E+00 0.  1.
          1    1    1    2  502    0 -0.85867361391E+01  0.33066368620E+02 -0.90240698888E+01  0.35334835624E+02  0.00000000000E+00 0.  1.
         22    1    1    2    0    0  0.36092788686E+02  0.14865803069E+02  0.37600516692E+02  0.54198527208E+02  0.00000000000E+00 0.  1.
         22    1    1    2    0    0 -0.85158124159E+02 -0.48134398263E+02  0.27839836229E+02  0.10170488134E+03  0.00000000000E+00 0.  1.
</event>
<event>
 6    1  0.3701283E-005  0.1628591E+03  0.7818608E-02  0.1185506E+00
          2   -1    0    0  502    0  0.00000000000E+00  0.00000000000E+00  0.86720835793E+02  0.86720835793E+02  0.00000000000E+00 0. -1.
          1   -1    0    0  501    0 -0.00000000000E+00 -0.00000000000E+00 -0.14549856897E+04  0.14549856897E+04  0.00000000000E+00 0. -1.
          2    1    1    2  501    0  0.59203368722E+01  0.25259448759E+02  0.10067024966E+02  0.27828674635E+02  0.00000000000E+00 0. -1.
          1    1    1    2  502    0 -0.26513408987E+02  0.15031838751E+02 -0.13782072822E+04  0.13785442430E+04  0.00000000000E+00 0. -1.
         22    1    1    2    0    0 -0.10936914004E+01 -0.23026430793E+02  0.62625512252E+02  0.66733555733E+02  0.00000000000E+00 0. -1.
         22    1    1    2    0    0  0.21686763516E+02 -0.17264856716E+02 -0.62750108888E+02  0.68600052148E+02  0.00000000000E+00 0. -1.
</event>
<event>
 6    1  0.3701283E-005  0.9174541E+02  0.7818608E-02  0.1304143E+00
          2   -1    0    0  502    0  0.00000000000E+00  0.00000000000E+00  0.19542589890E+03  0.19542589890E+03  0.00000000000E+00 0. -1.
          1   -1    0    0  501    0 -0.00000000000E+00 -0.00000000000E+00 -0.11647944764E+04  0.11647944764E+04  0.00000000000E+00 0. -1.
          2    1    1    2  501    0  0.36760150948E+02 -0.35132473654E+02  0.52391084044E+02  0.73009760238E+02  0.00000000000E+00 0. -1.
          1    1    1    2  502    0 -0.75038474184E+01  0.19504634226E+02 -0.11243375025E+04  0.11245317061E+04  0.00000000000E+00 0. -1.
         22    1    1    2    0    0 -0.76062453291E+02  0.17030465063E+02  0.75853636270E+02  0.10876262077E+03  0.00000000000E+00 0. -1.
         22    1    1    2    0    0  0.46806149762E+02 -0.14026256350E+01  0.26724204699E+02  0.53916288179E+02  0.00000000000E+00 0. -1.
</event>
<event>
 6    1  0.3701283E-005  0.1573506E+03  0.7818608E-02  0.1191721E+00
          2   -1    0    0  502    0  0.00000000000E+00  0.00000000000E+00  0.25418055330E+03  0.25418055330E+03  0.00000000000E+00 0. -1.
          1   -1    0    0  501    0 -0.00000000000E+00 -0.00000000000E+00 -0.31989404442E+02  0.31989404442E+02  0.00000000000E+00 0. -1.
          2    1    1    2  501    0  0.21345565949E+02  0.20792735872E+02  0.73092102035E+02  0.78933050306E+02  0.00000000000E+00 0. -1.
          1    1    1    2  502    0 -0.16704471525E+02 -0.13134854573E+02  0.15040550893E+02  0.26034245615E+02  0.00000000000E+00 0. -1.
         22    1    1    2    0    0 -0.14978782361E+02 -0.36123576955E+02 -0.45083257216E+01  0.39364981059E+02  0.00000000000E+00 0. -1.
         22    1    1    2    0    0  0.10337687937E+02  0.28465695656E+02  0.13856682165E+03  0.14183768076E+03  0.00000000000E+00 0. -1.
</event>
<event>
 6    1  0.3701283E-005  0.2355754E+03  0.7818608E-02  0.1122776E+00
          2   -1    0    0  502    0  0.00000000000E+00  0.00000000000E+00  0.62122786774E+02  0.62122786774E+02  0.00000000000E+00 0. -1.
          1   -1    0    0  501    0 -0.00000000000E+00 -0.00000000000E+00 -0.71224256172E+03  0.71224256172E+03  0.00000000000E+00 0.  1.
          2    1    1    2  501    0 -0.22800210849E+02 -0.16526239150E+02 -0.11125401490E+03  0.11476245913E+03  0.00000000000E+00 0. -1.
          1    1    1    2  502    0  0.15468121328E+03  0.58592505558E+02 -0.38887999941E+03  0.42259556717E+03  0.00000000000E+00 0.  1.
         22    1    1    2    0    0 -0.27459511217E+02 -0.41086724544E+01 -0.11823781094E+03  0.12145404844E+03  0.00000000000E+00 0.  1.
         22    1    1    2    0    0 -0.10442149121E+03 -0.37957593954E+02 -0.31747949693E+02  0.11555327375E+03  0.00000000000E+00 0. -1.
</event>
<event>
 6    1  0.3701283E-005  0.6070002E+02  0.7818608E-02  0.1423393E+00
          2   -1    0    0  502    0  0.00000000000E+00  0.00000000000E+00  0.93268197502E+02  0.93268197502E+02  0.00000000000E+00 0.  1.
          1   -1    0    0  501    0 -0.00000000000E+00 -0.00000000000E+00 -0.20164871950E+03  0.20164871950E+03  0.00000000000E+00 0. -1.
          2    1    1    2  501    0  0.28320892491E+02 -0.12014150117E+02 -0.52353135473E+01  0.31206109377E+02  0.00000000000E+00 0.  1.
          1    1    1    2  502    0 -0.49435516872E+02  0.81455323541E+01 -0.12598732622E+03  0.13558401968E+03  0.00000000000E+00 0. -1.
         22    1    1    2    0    0  0.22697321481E+02 -0.34997952207E+02 -0.37660090667E+02  0.56198821074E+02  0.00000000000E+00 0.  1.
         22    1    1    2    0    0 -0.15826970999E+01  0.38866569970E+02  0.60502208438E+02  0.71927966864E+02  0.00000000000E+00 0.  1.
</event>
<event>
 6    1  0.3701283E-005  0.5337547E+02  0.7818608E-02  0.1430787E+00
          2   -1    0    0  502    0  0.00000000000E+00  0.00000000000E+00  0.14401200715E+03  0.14401200715E+03  0.00000000000E+00 0.  1.
          1   -1    0    0  501    0 -0.00000000000E+00 -0.00000000000E+00 -0.11419309763E+03  0.11419309763E+03  0.00000000000E+00 0.  1.
          2    1    1    2  501    0  0.22618841090E+02  0.77441186169E-01  0.52280650431E+02  0.56963886621E+02  0.00000000000E+00 0.  1.
          1    1    1    2  502    0 -0.16803874772E+02  0.26103081712E+02 -0.56811060293E+02  0.64739768720E+02  0.00000000000E+00 0.  1.
         22    1    1    2    0    0  0.26183091887E+02  0.17258595185E+02  0.66622057341E+02  0.73633633163E+02  0.00000000000E+00 0.  1.
         22    1    1    2    0    0 -0.31998058206E+02 -0.43439118084E+02 -0.32272737958E+02  0.62867816283E+02  0.00000000000E+00 0.  1.
</event>
<event>
 6    1  0.3701283E-005  0.3871032E+03  0.7818608E-02  0.1048339E+00
          2   -1    0    0  502    0  0.00000000000E+00  0.00000000000E+00  0.12060439660E+04  0.12060439660E+04  0.00000000000E+00 0. -1.
          1   -1    0    0  501    0 -0.00000000000E+00 -0.00000000000E+00 -0.12087445735E+03  0.12087445735E+03  0.00000000000E+00 0. -1.
          2    1    1    2  501    0  0.13961658716E+03  0.14293235034E+03  0.18570133163E+03  0.27277725850E+03  0.00000000000E+00 0. -1.
          1    1    1    2  502    0 -0.26873903197E+03 -0.10463347411E+03  0.78736045901E+03  0.83851375875E+03  0.00000000000E+00 0. -1.
         22    1    1    2    0    0  0.14574028473E+03 -0.58243509225E+02  0.10457578724E+03  0.18859647992E+03  0.00000000000E+00 0.  1.
         22    1    1    2    0    0 -0.16617839929E+02  0.19944632995E+02  0.75319307857E+01  0.27030926188E+02  0.00000000000E+00 0. -1.
</event>
<event>
 6    1  0.3701283E-005  0.1949113E+03  0.7818608E-02  0.1155808E+00
          2   -1    0    0  502    0  0.00000000000E+00  0.00000000000E+00  0.71962086727E+03  0.71962086727E+03  0.00000000000E+00 0. -1.
          1   -1    0    0  501    0 -0.00000000000E+00 -0.00000000000E+00 -0.14656935953E+03  0.14656935953E+03  0.00000000000E+00 0. -1.
          2    1    1    2  501    0  0.14229604831E+03  0.10340813661E+03  0.87377913864E+02  0.19640852302E+03  0.00000000000E+00 0. -1.
          1    1    1    2  502    0 -0.39057078053E+02  0.25201676186E+02 -0.65532353997E+02  0.80343445589E+02  0.00000000000E+00 0. -1.
         22    1    1    2    0    0 -0.11627764225E+03 -0.14509457843E+03  0.51546418813E+03  0.54797468557E+03  0.00000000000E+00 0. -1.
         22    1    1    2    0    0  0.13038671991E+02  0.16484765637E+02  0.35741759740E+02  0.41463572624E+02  0.00000000000E+00 0. -1.
</event>
<event>
 6    1  0.3701283E-005  0.6366878E+02  0.7818608E-02  0.1386803E+00
          2   -1    0    0  502    0  0.00000000000E+00  0.00000000000E+00  0.30352014927E+03  0.30352014927E+03  0.00000000000E+00 0.  1.
          1   -1    0    0  501    0 -0.00000000000E+00 -0.00000000000E+00 -0.18923974220E+03  0.18923974220E+03  0.00000000000E+00 0.  1.
          2    1    1    2  501    0  0.16945669064E+02 -0.10902257494E+02  0.42313327156E+02  0.46866113275E+02  0.00000000000E+00 0.  1.
          1    1    1    2  502    0 -0.42379955049E+01  0.45832848333E+02 -0.16832631535E+03  0.17450604297E+03  0.00000000000E+00 0.  1.
         22    1    1    2    0    0  0.43885536978E+02 -0.79463843224E+01  0.17608607443E+03  0.18164633491E+03  0.00000000000E+00 0.  1.
         22    1    1    2    0    0 -0.56593210537E+02 -0.26984206516E+02  0.64207320836E+02  0.89741400308E+02  0.00000000000E+00 0.  1.
</event>
<event>
 6    1  0.3701283E-005  0.2040984E+03  0.7818608E-02  0.1146327E+00
          2   -1    0    0  502    0  0.00000000000E+00  0.00000000000E+00  0.48859582079E+03  0.48859582079E+03  0.00000000000E+00 0. -1.
          1   -1    0    0  501    0 -0.00000000000E+00 -0.00000000000E+00 -0.95831274699E+02  0.95831274699E+02  0.00000000000E+00 0. -1.
          2    1    1    2  501    0 -0.33016552312E+02 -0.11823471824E+02  0.17607151343E+02  0.39241546746E+02  0.00000000000E+00 0. -1.
          1    1    1    2  502    0  0.91723147124E+02 -0.33957588072E+02 -0.40216892254E+02  0.10575278686E+03  0.00000000000E+00 0. -1.
         22    1    1    2    0    0 -0.18417502032E+01 -0.36080377221E+02  0.57246444332E+02  0.67692991165E+02  0.00000000000E+00 0. -1.
         22    1    1    2    0    0 -0.56864844609E+02  0.81861437116E+02  0.35812784267E+03  0.37173977072E+03  0.00000000000E+00 0.  1.
</event>
<event>
 6    1  0.3701283E-005  0.9278596E+02  0.7818608E-02  0.1301974E+00
          2   -1    0    0  502    0  0.00000000000E+00  0.00000000000E+00  0.40017407484E+02  0.40017407484E+02  0.00000000000E+00 0. -1.
          1   -1    0    0  501    0 -0.00000000000E+00 -0.00000000000E+00 -0.52722282778E+03  0.52722282778E+03  0.00000000000E+00 0. -1.
          2    1    1    2  501    0  0.88029584754E+01  0.22726496006E+02 -0.21491536277E+03  0.21629285438E+03  0.00000000000E+00 0. -1.
          1    1    1    2  502    0 -0.49916911634E+02  0.98383325703E+01 -0.18045540807E+03  0.18749038684E+03  0.00000000000E+00 0. -1.
         22    1    1    2    0    0 -0.35400285174E+02 -0.18168412573E+02 -0.73332090010E+02  0.83431809468E+02  0.00000000000E+00 0.  1.
         22    1    1    2    0    0  0.76514238333E+02 -0.14396416003E+02 -0.18502559443E+02  0.80025184581E+02  0.00000000000E+00 0. -1.
</event>
<event>
 6    1  0.4280520E-005  0.6970155E+02  0.7818608E-02  0.1361616E+00
          2   -1    0    0  502    0  0.00000000000E+00  0.00000000000E+00  0.63222903655E+02  0.63222903655E+02  0.00000000000E+00 0.  1.
          1   -1    0    0  501    0 -0.00000000000E+00 -0.00000000000E+00 -0.71199374193E+03  0.71199374193E+03  0.00000000000E+00 0. -1.
          2    1    1    2  501    0 -0.35085409638E+02 -0.78304465389E+01 -0.11891610538E+03  0.12423100250E+03  0.00000000000E+00 0.  1.
          1    1    1    2  502    0 -0.24522903946E+02  0.31986065087E+02 -0.51185445439E+03  0.51343886068E+03  0.00000000000E+00 0. -1.
         22    1    1    2    0    0  0.70486608105E+02 -0.17278942893E+02  0.36719368141E+02  0.81334099775E+02  0.00000000000E+00 0.  1.
         22    1    1    2    0    0 -0.10878294520E+02 -0.68766756552E+01 -0.54719646647E+02  0.56212682634E+02  0.00000000000E+00 0. -1.
</event>
<event>
 6    1  0.3701283E-005  0.8881180E+02  0.7818608E-02  0.1308332E+00
          2   -1    0    0  502    0  0.00000000000E+00  0.00000000000E+00  0.28892177133E+03  0.28892177133E+03  0.00000000000E+00 0.  1.
          1   -1    0    0  501    0 -0.00000000000E+00 -0.00000000000E+00 -0.66556633551E+02  0.66556633551E+02  0.00000000000E+00 0. -1.
          2    1    1    2  501    0 -0.41171451432E+02  0.19509866244E+02  0.64436567978E+02  0.78916377176E+02  0.00000000000E+00 0.  1.
          1    1    1    2  502    0 -0.44085387747E+02 -0.39332901080E+02  0.15723084638E+01  0.59102205323E+02  0.00000000000E+00 0. -1.
         22    1    1    2    0    0 -0.29718955945E+02 -0.85157765549E+01  0.47105701260E+02  0.56344315454E+02  0.00000000000E+00 0. -1.
         22    1    1    2    0    0  0.11497579512E+03  0.28338811391E+02  0.10925056008E+03  0.16111550693E+03  0.00000000000E+00 0.  1.
</event>
<event>
 6    1  0.3701283E-005  0.5440581E+02  0.7818608E-02  0.1439940E+00
          2   -1    0    0  502    0  0.00000000000E+00  0.00000000000E+00  0.54560578879E+02  0.54560578879E+02  0.00000000000E+00 0. -1.
          1   -1    0    0  501    0 -0.00000000000E+00 -0.00000000000E+00 -0.76420923165E+03  0.76420923165E+03  0.00000000000E+00 0. -1.
          2    1    1    2  501    0  0.18586924191E+02 -0.89458819342E+01 -0.20087328820E+02  0.28792417988E+02  0.00000000000E+00 0. -1.
          1    1    1    2  502    0 -0.21555435800E+02  0.45154004016E+02 -0.65026759514E+03  0.65218974707E+03  0.00000000000E+00 0. -1.
         22    1    1    2    0    0 -0.38323139709E+02  0.17332317608E+02  0.21165349159E+02  0.47085499635E+02  0.00000000000E+00 0.  1.
         22    1    1    2    0    0  0.41291651318E+02 -0.53540439690E+02 -0.60459077970E+02  0.90702145838E+02  0.00000000000E+00 0. -1.
</event>
<event>
 6    1  0.3701283E-005  0.4869086E+03  0.7818608E-02  0.1017254E+00
          2   -1    0    0  502    0  0.00000000000E+00  0.00000000000E+00  0.21563714128E+04  0.21563714128E+04  0.00000000000E+00 0. -1.
          1   -1    0    0  501    0 -0.00000000000E+00 -0.00000000000E+00 -0.97939126802E+02  0.97939126802E+02  0.00000000000E+00 0. -1.
          2    1    1    2  501    0  0.17388684411E+03 -0.14929265167E+03  0.26458233280E+03  0.35004105649E+03  0.00000000000E+00 0. -1.
          1    1    1    2  502    0 -0.68527172137E+02  0.34152758303E+03  0.13532399544E+04  0.13973530110E+04  0.00000000000E+00 0. -1.
         22    1    1    2    0    0  0.18339472627E+02 -0.53945608776E+02  0.55993791848E+02  0.79885979295E+02  0.00000000000E+00 0.  1.
         22    1    1    2    0    0 -0.12369914460E+03 -0.13828932259E+03  0.38461620700E+03  0.42703049282E+03  0.00000000000E+00 0. -1.
</event>
<event>
 6    1  0.3701283E-005  0.8587266E+02  0.7818608E-02  0.1317889E+00
          2   -1    0    0  502    0  0.00000000000E+00  0.00000000000E+00  0.17839893568E+03  0.17839893568E+03  0.00000000000E+00 0.  1.
          1   -1    0    0  501    0 -0.00000000000E+00 -0.00000000000E+00 -0.33018587203E+03  0.33018587203E+03  0.00000000000E+00 0.  1.
          2    1    1    2  501    0 -0.34445967432E+02  0.69370508673E+01 -0.17574382684E+02  0.39287482405E+02  0.00000000000E+00 0.  1.
          1    1    1    2  502    0  0.94789341580E+01  0.35419480163E+02 -0.27247511323E+03  0.27493104062E+03  0.00000000000E+00 0.  1.
         22    1    1    2    0    0  0.43707578482E+02 -0.71789859600E+02  0.13538783837E+03  0.15935495956E+03  0.00000000000E+00 0.  1.
         22    1    1    2    0    0 -0.18740545209E+02  0.29433328569E+02  0.28747212031E+01  0.35011325130E+02  0.00000000000E+00 0.  1.
</event>
<event>
 6    1  0.3701283E-005  0.9810727E+02  0.7818608E-02  0.1288363E+00
          2   -1    0    0  502    0  0.00000000000E+00  0.00000000000E+00  0.10394827499E+03  0.10394827499E+03  0.00000000000E+00 0. -1.
          1   -1    0    0  501    0 -0.00000000000E+00 -0.00000000000E+00 -0.39798055991E+03  0.39798055991E+03  0.00000000000E+00 0. -1.
          2    1    1    2  501    0 -0.40679978103E+02 -0.81134505001E+02 -0.23161797997E+03  0.24876606916E+03  0.00000000000E+00 0. -1.
          1    1    1    2  502    0  0.76817844970E+02  0.21594177224E+02 -0.70243548322E+02  0.10630825874E+03  0.00000000000E+00 0. -1.
         22    1    1    2    0    0  0.23120111328E+02 -0.12117844941E+02 -0.35666641903E+02  0.44198315109E+02  0.00000000000E+00 0.  1.
         22    1    1    2    0    0 -0.59257978195E+02  0.71658172718E+02  0.43495885275E+02  0.10265619189E+03  0.00000000000E+00 0.  1.
</event>
<event>
 6    1  0.3701283E-005  0.2778143E+03  0.7818608E-02  0.1096889E+00
          2   -1    0    0  502    0  0.00000000000E+00  0.00000000000E+00  0.56698318614E+03  0.56698318614E+03  0.00000000000E+00 0.  1.
          1   -1    0    0  501    0 -0.00000000000E+00 -0.00000000000E+00 -0.10959764567E+03  0.10959764567E+03  0.00000000000E+00 0. -1.
          2    1    1    2  501    0  0.11743539357E+03 -0.22549540446E+02  0.24927209371E+03  0.27647084862E+03  0.00000000000E+00 0.  1.
          1    1    1    2  502    0 -0.42099034857E+02 -0.42654608244E+02 -0.62830905239E+02  0.86830104189E+02  0.00000000000E+00 0. -1.
         22    1    1    2    0    0  0.24799555987E+02  0.48834190045E+02  0.11263007552E+03  0.12524108753E+03  0.00000000000E+00 0.  1.
         22    1    1    2    0    0 -0.10013591470E+03  0.16369958645E+02  0.15831427647E+03  0.18803879146E+03  0.00000000000E+00 0.  1.
</event>
<event>
 6    1  0.3701283E-005  0.9057348E+02  0.7818608E-02  0.1303224E+00
          2   -1    0    0  502    0  0.00000000000E+00  0.00000000000E+00  0.47648436408E+03  0.47648436408E+03  0.00000000000E+00 0.  1.
          1   -1    0    0  501    0 -0.00000000000E+00 -0.00000000000E+00 -0.52510177836E+02  0.52510177836E+02  0.00000000000E+00 0.  1.
          2    1    1    2  501    0  0.41045512720E+02 -0.48361800146E+02  0.22184974059E+03  0.23073990819E+03  0.00000000000E+00 0.  1.
          1    1    1    2  502    0  0.84809318644E+01  0.65120777457E+02  0.17626522803E+02  0.67995118707E+02  0.00000000000E+00 0.  1.
         22    1    1    2    0    0  0.32156369911E+02 -0.12831790750E+02  0.12343823525E+03  0.12820173518E+03  0.00000000000E+00 0. -1.
         22    1    1    2    0    0 -0.81682814496E+02 -0.39271865615E+01  0.61059687591E+02  0.10205777985E+03  0.00000000000E+00 0.  1.
</event>
<event>
 6    1  0.3701283E-005  0.9013515E+02  0.7818608E-02  0.1326068E+00
          2   -1    0    0  502    0  0.00000000000E+00  0.00000000000E+00  0.48451120819E+02  0.48451120819E+02  0.00000000000E+00 0.  1.
          1   -1    0    0  501    0 -0.00000000000E+00 -0.00000000000E+00 -0.14859201888E+04  0.14859201888E+04  0.00000000000E+00 0. -1.
          2    1    1    2  501    0  0.20283294604E+02  0.87479836979E+02 -0.64964929462E+02  0.11083580639E+03  0.00000000000E+00 0.  1.
          1    1    1    2  502    0 -0.45321097861E+01 -0.81908520412E+02 -0.12224286334E+04  0.12251780725E+04  0.00000000000E+00 0. -1.
         22    1    1    2    0    0  0.21841036287E+02  0.39850059667E+02 -0.10214517999E+02  0.46576759221E+02  0.00000000000E+00 0.  1.
         22    1    1    2    0    0 -0.37592221104E+02 -0.45421376235E+02 -0.13986098715E+03  0.15178067147E+03  0.00000000000E+00 0. -1.
</event>
<event>
 6    1  0.3701283E-005  0.3715568E+03  0.7818608E-02  0.1054099E+00
          2   -1    0    0  502    0  0.00000000000E+00  0.00000000000E+00  0.70473897969E+03  0.70473897969E+03  0.00000000000E+00 0.  1.
          1   -1    0    0  501    0 -0.00000000000E+00 -0.00000000000E+00 -0.53415501440E+03  0.53415501440E+03  0.00000000000E+00 0. -1.
          2    1    1    2  501    0 -0.16326809882E+02  0.14037746580E+03  0.36972606980E+03  0.39581531592E+03  0.00000000000E+00 0.  1.
          1    1    1    2  502    0 -0.38541042616E+00  0.36273723828E+02 -0.48445611491E+03  0.48581237001E+03  0.00000000000E+00 0. -1.
         22    1    1    2    0    0  0.38068642207E+02 -0.18670311081E+03  0.26311004019E+03  0.32486022587E+03  0.00000000000E+00 0.  1.
         22    1    1    2    0    0 -0.21356421899E+02  0.10051921185E+02  0.22203970216E+02  0.32406082287E+02  0.00000000000E+00 0. -1.
</event>
<event>
 6    1  0.3701283E-005  0.1579979E+03  0.7818608E-02  0.1192026E+00
          2   -1    0    0  502    0  0.00000000000E+00  0.00000000000E+00  0.29519312754E+02  0.29519312754E+02  0.00000000000E+00 0.  1.
          1   -1    0    0  501    0 -0.00000000000E+00 -0.00000000000E+00 -0.14818083264E+04  0.14818083264E+04  0.00000000000E+00 0. -1.
          2    1    1    2  501    0  0.12594298743E+03 -0.24080300263E+02 -0.29674265417E+03  0.32326103963E+03  0.00000000000E+00 0.  1.
          1    1    1    2  502    0  0.27003192500E+02  0.37930071906E+02 -0.51022272253E+03  0.51234274597E+03  0.00000000000E+00 0. -1.
         22    1    1    2    0    0  0.17654789559E+02 -0.98146789998E+01 -0.23887332650E+02  0.31282969478E+02  0.00000000000E+00 0.  1.
         22    1    1    2    0    0 -0.17060096949E+03 -0.40350926440E+01 -0.62143630426E+03  0.64444088403E+03  0.00000000000E+00 0. -1.
</event>
<event>
 6    1  0.3701283E-005  0.1317938E+03  0.7818608E-02  0.1227332E+00
          2   -1    0    0  502    0  0.00000000000E+00  0.00000000000E+00  0.12626581014E+04  0.12626581014E+04  0.00000000000E+00 0.  1.
          1   -1    0    0  501    0 -0.00000000000E+00 -0.00000000000E+00 -0.12509713744E+04  0.12509713744E+04  0.00000000000E+00 0.  1.
          2    1    1    2  501    0 -0.84446286713E+02 -0.75844513294E+02  0.50985498205E+03  0.52233673837E+03  0.00000000000E+00 0.  1.
          1    1    1    2  502    0  0.70653653192E+01  0.29857536219E+02 -0.12364339681E+04  0.12368145978E+04  0.00000000000E+00 0.  1.
         22    1    1    2    0    0  0.93598255872E+02  0.69688287730E+02  0.67482380938E+03  0.68483886035E+03  0.00000000000E+00 0.  1.
         22    1    1    2    0    0 -0.16217334478E+02 -0.23701310655E+02  0.63441903700E+02  0.69639279214E+02  0.00000000000E+00 0.  1.
</event>
<event>
 6    1  0.3701283E-005  0.6672572E+02  0.7818608E-02  0.1373576E+00
          2   -1    0    0  502    0  0.00000000000E+00  0.00000000000E+00  0.23148559035E+03  0.23148559035E+03  0.00000000000E+00 0.  1.
          1   -1    0    0  501    0 -0.00000000000E+00 -0.00000000000E+00 -0.16360847537E+03  0.16360847537E+03  0.00000000000E+00 0.  1.
          2    1    1    2  501    0  0.20994106978E+01 -0.27512473579E+02 -0.65041961083E+02  0.70652674608E+02  0.00000000000E+00 0.  1.
          1    1    1    2  502    0 -0.15974662601E+02 -0.24452168059E+02 -0.71446692203E+02  0.77186321293E+02  0.00000000000E+00 0.  1.
         22    1    1    2    0    0  0.52753432333E+01 -0.13493376622E+02 -0.13379653042E+02  0.19720942534E+02  0.00000000000E+00 0.  1.
         22    1    1    2    0    0  0.85999086699E+01  0.65458018260E+02  0.21774542130E+03  0.22753412729E+03  0.00000000000E+00 0.  1.
</event>
<event>
 6    1  0.3701283E-005  0.1584243E+03  0.7818608E-02  0.1190487E+00
          2   -1    0    0  502    0  0.00000000000E+00  0.00000000000E+00  0.97922956015E+03  0.97922956015E+03  0.00000000000E+00 0. -1.
          1   -1    0    0  501    0 -0.00000000000E+00 -0.00000000000E+00 -0.68845311007E+02  0.68845311007E+02  0.00000000000E+00 0. -1.
          2    1    1    2  501    0  0.27317320931E+02  0.12121668064E+00  0.11258924533E+01  0.27340781813E+02  0.00000000000E+00 0. -1.
          1    1    1    2  502    0 -0.59924641533E+02 -0.28840634574E+01  0.88571128016E+03  0.88774081369E+03  0.00000000000E+00 0. -1.
         22    1    1    2    0    0 -0.25542408593E+01  0.43617638335E+02 -0.33088328226E+02  0.54807481105E+02  0.00000000000E+00 0. -1.
         22    1    1    2    0    0  0.35161561461E+02 -0.40854791558E+02  0.56635404755E+02  0.78185794550E+02  0.00000000000E+00 0. -1.
</event>
<event>
 6    1  0.3701283E-005  0.2089589E+03  0.7818608E-02  0.1142393E+00
          2   -1    0    0  502    0  0.00000000000E+00  0.00000000000E+00  0.55325890853E+02  0.55325890853E+02  0.00000000000E+00 0. -1.
          1   -1    0    0  501    0 -0.00000000000E+00 -0.00000000000E+00 -0.14676245772E+04  0.14676245772E+04  0.00000000000E+00 0.  1.
          2    1    1    2  501    0  0.38643779392E+02  0.42540735923E+02 -0.10271330931E+03  0.11769910708E+03  0.00000000000E+00 0. -1.
          1    1    1    2  502    0 -0.48264501375E+02 -0.28573881710E+02 -0.12674645782E+04  0.12687050035E+04  0.00000000000E+00 0.  1.
         22    1    1    2    0    0 -0.18245472781E+02  0.41858205058E+02 -0.56372678104E+02  0.72545747252E+02  0.00000000000E+00 0. -1.
         22    1    1    2    0    0  0.27866194764E+02 -0.55825059272E+02  0.14251879253E+02  0.64000610275E+02  0.00000000000E+00 0. -1.
</event>
<event>
 6    1  0.3701283E-005  0.3670757E+03  0.7818608E-02  0.1055817E+00
          2   -1    0    0  502    0  0.00000000000E+00  0.00000000000E+00  0.43170529262E+03  0.43170529262E+03  0.00000000000E+00 0. -1.
          1   -1    0    0  501    0 -0.00000000000E+00 -0.00000000000E+00 -0.51107775722E+03  0.51107775722E+03  0.00000000000E+00 0.  1.
          2    1    1    2  501    0  0.41712322352E+02 -0.79924042064E+02 -0.27964454709E+02  0.94391636616E+02  0.00000000000E+00 0. -1.
          1    1    1    2  502    0 -0.75174910133E+02 -0.18409090423E+02 -0.42895313506E+03  0.43587951753E+03  0.00000000000E+00 0.  1.
         22    1    1    2    0    0  0.46191550123E+02  0.11037746102E+03  0.37638868975E+03  0.39494972968E+03  0.00000000000E+00 0. -1.
         22    1    1    2    0    0 -0.12728962342E+02 -0.12044328531E+02  0.11564354175E+01  0.17562166009E+02  0.00000000000E+00 0. -1.
</event>
<event>
 6    1  0.3701283E-005  0.9836341E+02  0.7818608E-02  0.1288817E+00
          2   -1    0    0  502    0  0.00000000000E+00  0.00000000000E+00  0.33903269506E+03  0.33903269506E+03  0.00000000000E+00 0.  1.
          1   -1    0    0  501    0 -0.00000000000E+00 -0.00000000000E+00 -0.29629188992E+03  0.29629188992E+03  0.00000000000E+00 0.  1.
          2    1    1    2  501    0  0.77543693509E+02  0.18206971835E+02  0.27759415096E+02  0.84351072031E+02  0.00000000000E+00 0.  1.
          1    1    1    2  502    0 -0.22927686031E+02  0.59134279226E+00 -0.25036786187E+03  0.25141617834E+03  0.00000000000E+00 0.  1.
         22    1    1    2    0    0 -0.72263007486E+02 -0.47308841862E+02  0.24627460239E+03  0.26098131840E+03  0.00000000000E+00 0.  1.
         22    1    1    2    0    0  0.17647000008E+02  0.28510527235E+02  0.19074649512E+02  0.38576016208E+02  0.00000000000E+00 0. -1.
</event>
<event>
 6    1  0.3701283E-005  0.1164398E+03  0.7818608E-02  0.1252682E+00
          2   -1    0    0  502    0  0.00000000000E+00  0.00000000000E+00  0.65182281931E+03  0.65182281931E+03  0.00000000000E+00 0. -1.
          1   -1    0    0  501    0 -0.00000000000E+00 -0.00000000000E+00 -0.29908313992E+03  0.29908313992E+03  0.00000000000E+00 0. -1.
          2    1    1    2  501    0  0.79318977920E+02 -0.15711794506E+01  0.26233330943E+03  0.27406702483E+03  0.00000000000E+00 0. -1.
          1    1    1    2  502    0 -0.26592338403E+01 -0.29410173854E+02 -0.27846429170E+03  0.28002569811E+03  0.00000000000E+00 0. -1.
         22    1    1    2    0    0 -0.10597203600E+03  0.29397109074E+02  0.33165989023E+03  0.34941743692E+03  0.00000000000E+00 0. -1.
         22    1    1    2    0    0  0.29312291920E+02  0.15842442310E+01  0.37210771432E+02  0.47395799370E+02  0.00000000000E+00 0. -1.
</event>
<event>
 6    1  0.3701283E-005  0.4618660E+03  0.7818608E-02  0.1024241E+00
          2   -1    0    0  502    0  0.00000000000E+00  0.00000000000E+00  0.26335601311E+03  0.26335601311E+03  0.00000000000E+00 0.  1.
          1   -1    0    0  501    0 -0.00000000000E+00 -0.00000000000E+00 -0.94481595525E+03  0.94481595525E+03  0.00000000000E+00 0. -1.
          2    1    1    2  501    0  0.18890343749E+03  0.14481820312E+03  0.98974274804E+02  0.25778426586E+03  0.00000000000E+00 0.  1.
          1    1    1    2  502    0 -0.12428015591E+03 -0.28208525507E+01 -0.73297506788E+03  0.74344197117E+03  0.00000000000E+00 0. -1.
         22    1    1    2    0    0 -0.65117729544E+02 -0.16540068439E+03 -0.38484119591E+02  0.18187559638E+03  0.00000000000E+00 0.  1.
         22    1    1    2    0    0  0.49444796782E+00  0.23403333816E+02 -0.89750294652E+01  0.25070134950E+02  0.00000000000E+00 0. -1.
</event>
<event>
 6    1  0.3701283E-005  0.2102998E+03  0.7818608E-02  0.1141329E+00
          2   -1    0    0  502    0  0.00000000000E+00  0.00000000000E+00  0.14115700231E+03  0.14115700231E+03  0.00000000000E+00 0.  1.
          1   -1    0    0  501    0 -0.00000000000E+00 -0.00000000000E+00 -0.70308683753E+03  0.70308683753E+03  0.00000000000E+00 0.  1.
          2    1    1    2  501    0  0.43507618001E+02 -0.73608534310E+01 -0.78607853232E+01  0.44820608354E+02  0.00000000000E+00 0.  1.
          1    1    1    2  502    0 -0.70347443877E+02  0.10162738116E+03 -0.61504392760E+03  0.62734035446E+03  0.00000000000E+00 0.  1.
         22    1    1    2    0    0  0.38841518080E+02 -0.88769480579E+02  0.94932433130E+02  0.13564973671E+03  0.00000000000E+00 0.  1.
         22    1    1    2    0    0 -0.12001692204E+02 -0.54970471523E+01 -0.33957555428E+02  0.36433140323E+02  0.00000000000E+00 0.  1.
</event>
<event>
 6    1  0.3701283E-005  0.1233923E+03  0.7818608E-02  0.1238741E+00
          2   -1    0    0  502    0  0.00000000000E+00  0.00000000000E+00  0.69283764712E+02  0.69283764712E+02  0.00000000000E+00 0. -1.
          1   -1    0    0  501    0 -0.00000000000E+00 -0.00000000000E+00 -0.65530716485E+03  0.65530716485E+03  0.00000000000E+00 0. -1.
          2    1    1    2  501    0 -0.94136546155E+02 -0.29557998058E+02 -0.60571483017E+01  0.98853698043E+02  0.00000000000E+00 0. -1.
          1    1    1    2  502    0 -0.11733362429E+02  0.57793515757E+02 -0.23370819050E+03  0.24103377473E+03  0.00000000000E+00 0. -1.
         22    1    1    2    0    0  0.12862979309E+03 -0.27964661960E+02 -0.33366168199E+03  0.35868895163E+03  0.00000000000E+00 0. -1.
         22    1    1    2    0    0 -0.22759884510E+02 -0.27085573959E+00 -0.12596379341E+02  0.26014505151E+02  0.00000000000E+00 0.  1.
</event>
<event>
 6    1  0.3701283E-005  0.1071102E+03  0.7818608E-02  0.1269596E+00
          2   -1    0    0  502    0  0.00000000000E+00  0.00000000000E+00  0.22465132341E+03  0.22465132341E+03  0.00000000000E+00 0.  1.
          1   -1    0    0  501    0 -0.00000000000E+00 -0.00000000000E+00 -0.71886859770E+02  0.71886859770E+02  0.00000000000E+00 0.  1.
          2    1    1    2  501    0  0.18332394268E+02  0.23572411948E+02 -0.90727720922E+01  0.31209781769E+02  0.00000000000E+00 0.  1.
          1    1    1    2  502    0 -0.47700974749E+02 -0.59083892663E+02  0.45146220656E+02  0.88342914847E+02  0.00000000000E+00 0.  1.
         22    1    1    2    0    0  0.71717397511E+02  0.45214997949E+02  0.98291454666E+02  0.12980366407E+03  0.00000000000E+00 0. -1.
         22    1    1    2    0    0 -0.42348817030E+02 -0.97035172342E+01  0.18399560409E+02  0.47181822494E+02  0.00000000000E+00 0.  1.
</event>
<event>
 6    1  0.3701283E-005  0.8649855E+02  0.7818608E-02  0.1314307E+00
          2   -1    0    0  502    0  0.00000000000E+00  0.00000000000E+00  0.10782495915E+03  0.10782495915E+03  0.00000000000E+00 0.  1.
          1   -1    0    0  501    0 -0.00000000000E+00 -0.00000000000E+00 -0.22002810204E+04  0.22002810204E+04  0.00000000000E+00 0.  1.
          2    1    1    2  501    0  0.17527237288E+02 -0.36268321332E+02  0.40757178201E+02  0.57303950597E+02  0.00000000000E+00 0.  1.
          1    1    1    2  502    0 -0.80946214946E+02  0.21916730761E+02 -0.21037821449E+04  0.21054529075E+04  0.00000000000E+00 0.  1.
         22    1    1    2    0    0  0.58556856316E+02  0.57845321130E+02 -0.50718698507E+02  0.96681813059E+02  0.00000000000E+00 0. -1.
         22    1    1    2    0    0  0.48621213423E+01 -0.43493730559E+02  0.21287603922E+02  0.48667308356E+02  0.00000000000E+00 0.  1.
</event>
<event>
 6    1  0.4797553E-005  0.7496056E+02  0.7818608E-02  0.1349937E+00
          2   -1    0    0  502    0  0.00000000000E+00  0.00000000000E+00  0.41902131011E+03  0.41902131011E+03  0.00000000000E+00 0.  1.
          1   -1    0    0  501    0 -0.00000000000E+00 -0.00000000000E+00 -0.77457758938E+03  0.77457758938E+03  0.00000000000E+00 0.  1.
          2    1    1    2  501    0 -0.47985615538E+02  0.16534521138E+02  0.10452971934E+01  0.50765168512E+02  0.00000000000E+00 0.  1.
          1    1    1    2  502    0  0.64066226414E+02  0.38595724859E+02 -0.73647126113E+03  0.74025943413E+03  0.00000000000E+00 0.  1.
         22    1    1    2    0    0 -0.20715364771E+02  0.12410694095E+02  0.93098359877E+01  0.25880971999E+02  0.00000000000E+00 0. -1.
         22    1    1    2    0    0  0.46347538947E+01 -0.67540940093E+02  0.37055984868E+03  0.37669332485E+03  0.00000000000E+00 0.  1.
</event>
<event>
 6    1  0.3701283E-005  0.1012083E+03  0.7818608E-02  0.1303223E+00
          2   -1    0    0  502    0  0.00000000000E+00  0.00000000000E+00  0.43976362923E+03  0.43976362923E+03  0.00000000000E+00 0.  1.
          1   -1    0    0  501    0 -0.00000000000E+00 -0.00000000000E+00 -0.23867027788E+03  0.23867027788E+03  0.00000000000E+00 0.  1.
          2    1    1    2  501    0 -0.54688651044E+02  0.42778962149E+01  0.54425945506E+02  0.77274397398E+02  0.00000000000E+00 0.  1.
          1    1    1    2  502    0  0.90629527364E+02  0.18595503011E+02 -0.20483137255E+03  0.22475630167E+03  0.00000000000E+00 0.  1.
         22    1    1    2    0    0 -0.28255019096E+02  0.39512886666E+02  0.55286297283E+02  0.73594761934E+02  0.00000000000E+00 0. -1.
         22    1    1    2    0    0 -0.76858572243E+01 -0.62386285892E+02  0.29621248111E+03  0.30280844610E+03  0.00000000000E+00 0.  1.
</event>
<event>
 6    1  0.3701283E-005  0.1794644E+03  0.7818608E-02  0.1168322E+00
          2   -1    0    0  502    0  0.00000000000E+00  0.00000000000E+00  0.63872004532E+02  0.63872004532E+02  0.00000000000E+00 0. -1.
          1   -1    0    0  501    0 -0.00000000000E+00 -0.00000000000E+00 -0.30834599859E+03  0.30834599859E+03  0.00000000000E+00 0. -1.
          2    1    1    2  501    0 -0.29945038921E+02 -0.14653165916E+02 -0.35034647167E+02  0.48361628689E+02  0.00000000000E+00 0. -1.
          1    1    1    2  502    0  0.96872082106E+02 -0.24684191762E+02 -0.10455160377E+03  0.14465319722E+03  0.00000000000E+00 0. -1.
         22    1    1    2    0    0 -0.36027518540E+01  0.61064444819E+02 -0.92838874487E+02  0.11117959731E+03  0.00000000000E+00 0. -1.
         22    1    1    2    0    0 -0.63324291331E+02 -0.21727087141E+02 -0.12048868639E+02  0.68023579909E+02  0.00000000000E+00 0. -1.
</event>
<event>
 6    1  0.3701283E-005  0.8773043E+02  0.7818608E-02  0.1364386E+00
          2   -1    0    0  502    0  0.00000000000E+00  0.00000000000E+00  0.15582720859E+03  0.15582720859E+03  0.00000000000E+00 0.  1.
          1   -1    0    0  501    0 -0.00000000000E+00 -0.00000000000E+00 -0.34467668059E+03  0.34467668059E+03  0.00000000000E+00 0.  1.
          2    1    1    2  501    0 -0.34083748573E+02 -0.12861363880E+02 -0.14286904537E+02  0.39130962662E+02  0.00000000000E+00 0.  1.
          1    1    1    2  502    0  0.82271627627E+02  0.43645013284E+02 -0.27326443342E+03  0.28869873305E+03  0.00000000000E+00 0.  1.
         22    1    1    2    0    0 -0.34137172287E+02 -0.82333457365E+00 -0.26468027744E+02  0.43203945471E+02  0.00000000000E+00 0. -1.
         22    1    1    2    0    0 -0.14050706767E+02 -0.29960314831E+02  0.12516989370E+03  0.12947024799E+03  0.00000000000E+00 0.  1.
</event>
<event>
 6    1  0.4296633E-005  0.5807222E+03  0.7818608E-02  0.9946229E-01
          2   -1    0    0  502    0  0.00000000000E+00  0.00000000000E+00  0.99657164937E+03  0.99657164937E+03  0.00000000000E+00 0.  1.
          1   -1    0    0  501    0 -0.00000000000E+00 -0.00000000000E+00 -0.24550543319E+03  0.24550543319E+03  0.00000000000E+00 0.  1.
          2    1    1    2  501    0  0.11652485886E+03 -0.11878817555E+02 -0.28457832340E+02  0.12053629022E+03  0.00000000000E+00 0.  1.
          1    1    1    2  502    0  0.38917631768E+02  0.36079632939E+02 -0.15614593725E+03  0.16491778466E+03  0.00000000000E+00 0.  1.
         22    1    1    2    0    0  0.27556051756E+01  0.14658511135E+02  0.13317091167E+02  0.19995255080E+02  0.00000000000E+00 0.  1.
         22    1    1    2    0    0 -0.15819809580E+03 -0.38859326518E+02  0.92235289460E+03  0.93662775260E+03  0.00000000000E+00 0.  1.
</event>
<event>
 6    1  0.5114980E-005  0.2160830E+03  0.7818608E-02  0.1136837E+00
          2   -1    0    0  502    0  0.00000000000E+00  0.00000000000E+00  0.74965416737E+03  0.74965416737E+03  0.00000000000E+00 0.  1.
          1   -1    0    0  501    0 -0.00000000000E+00 -0.00000000000E+00 -0.50110597193E+03  0.50110597193E+03  0.00000000000E+00 0. -1.
          2    1    1    2  501    0  0.58223276951E+02 -0.26669681103E+01  0.76784315890E+02  0.96399656972E+02  0.00000000000E+00 0.  1.
          1    1    1    2  502    0 -0.51879251561E+02  0.23404986570E+02 -0.48383211771E+03  0.48716811089E+03  0.00000000000E+00 0. -1.
         22    1    1    2    0    0 -0.61613077798E+02  0.57108026030E+01  0.29386972497E+03  0.30031350266E+03  0.00000000000E+00 0.  1.
         22    1    1    2    0    0  0.55269052408E+02 -0.26448821062E+02  0.36172627229E+03  0.36687886878E+03  0.00000000000E+00 0.  1.
</event>
<event>
 6    1  0.3701283E-005  0.1899513E+03  0.7818608E-02  0.1158505E+00
          2   -1    0    0  502    0  0.00000000000E+00  0.00000000000E+00  0.50362853560E+03  0.50362853560E+03  0.00000000000E+00 0.  1.
          1   -1    0    0  501    0 -0.00000000000E+00 -0.00000000000E+00 -0.85344202284E+02  0.85344202284E+02  0.00000000000E+00 0.  1.
          2    1    1    2  501    0  0.10598072304E+02 -0.28155535584E+02  0.66597001736E+02  0.73076767586E+02  0.00000000000E+00 0.  1.
          1    1    1    2  502    0 -0.10052137269E+03  0.12493749633E+00 -0.27660845501E+02  0.10425777837E+03  0.00000000000E+00 0.  1.
         22    1    1    2    0    0  0.10364483330E+03  0.60738527895E+02  0.24767521972E+03  0.27527156538E+03  0.00000000000E+00 0.  1.
         22    1    1    2    0    0 -0.13721532919E+02 -0.32707929808E+02  0.13167295735E+03  0.13636662655E+03  0.00000000000E+00 0. -1.
</event>
<event>
 6    1  0.3701283E-005  0.1073474E+03  0.7818608E-02  0.1269316E+00
          2   -1    0    0  502    0  0.00000000000E+00  0.00000000000E+00  0.79568407908E+03  0.79568407908E+03  0.00000000000E+00 0. -1.
          1   -1    0    0  501    0 -0.00000000000E+00 -0.00000000000E+00 -0.14037131599E+03  0.14037131599E+03  0.00000000000E+00 0. -1.
          2    1    1    2  501    0  0.98365459235E+02  0.18519792417E+02  0.18379887315E+03  0.20928633986E+03  0.00000000000E+00 0. -1.
          1    1    1    2  502    0 -0.31375445976E+02 -0.88378356207E+02 -0.98286101884E+02  0.13585032308E+03  0.00000000000E+00 0. -1.
         22    1    1    2    0    0 -0.85799814366E+02  0.56213343273E+02  0.55251844665E+03  0.56195923517E+03  0.00000000000E+00 0. -1.
         22    1    1    2    0    0  0.18809801106E+02  0.13645220518E+02  0.17281545169E+02  0.28959496958E+02  0.00000000000E+00 0. -1.
</event>
<event>
 6    1  0.3701283E-005  0.9758313E+02  0.7818608E-02  0.1289629E+00
          2   -1    0    0  502    0  0.00000000000E+00  0.00000000000E+00  0.65640506014E+03  0.65640506014E+03  0.00000000000E+00 0. -1.
          1   -1    0    0  501    0 -0.00000000000E+00 -0.00000000000E+00 -0.10585195738E+03  0.10585195738E+03  0.00000000000E+00 0.  1.
          2    1    1    2  501    0 -0.97450478012E+01  0.45977898226E+02  0.64288794368E+02  0.79636562980E+02  0.00000000000E+00 0. -1.
          1    1    1    2  502    0  0.28713803648E+02  0.13260347850E+01 -0.87819600055E+02  0.92404128923E+02  0.00000000000E+00 0.  1.
         22    1    1    2    0    0 -0.85536252521E+01  0.43316002851E+02  0.14638988062E+03  0.15290336084E+03  0.00000000000E+00 0.  1.
         22    1    1    2    0    0 -0.10415130594E+02 -0.90619935862E+02  0.42769402783E+03  0.43731296478E+03  0.00000000000E+00 0. -1.
</event>
<event>
 6    1  0.3701283E-005  0.1641021E+03  0.7818608E-02  0.1184142E+00
          2   -1    0    0  502    0  0.00000000000E+00  0.00000000000E+00  0.12004540397E+03  0.12004540397E+03  0.00000000000E+00 0.  1.
          1   -1    0    0  501    0 -0.00000000000E+00 -0.00000000000E+00 -0.16468669248E+03  0.16468669248E+03  0.00000000000E+00 0.  1.
          2    1    1    2  501    0 -0.20574576269E+02 -0.60411623218E+00  0.72301817474E+01  0.21816362510E+02  0.00000000000E+00 0.  1.
          1    1    1    2  502    0 -0.30063403716E+02 -0.55067849954E+02 -0.94315034034E+02  0.11327666126E+03  0.00000000000E+00 0.  1.
         22    1    1    2    0    0  0.83865666774E+02  0.63456742391E+02  0.47030985452E+02  0.11520469526E+03  0.00000000000E+00 0.  1.
         22    1    1    2    0    0 -0.33227686789E+02 -0.77847762053E+01 -0.45874216747E+01  0.34434377409E+02  0.00000000000E+00 0.  1.
</event>
<event>
 6    1  0.5905662E-005  0.2240901E+03  0.7818608E-02  0.1130870E+00
          2   -1    0    0  502    0  0.00000000000E+00  0.00000000000E+00  0.58628792081E+03  0.58628792081E+03  0.00000000000E+00 0.  1.
          1   -1    0    0  501    0 -0.00000000000E+00 -0.00000000000E+00 -0.15563500923E+04  0.15563500923E+04  0.00000000000E+00 0.  1.
          2    1    1    2  501    0 -0.60749858472E+02  0.42870691541E+02  0.97598784973E+02  0.12269459779E+03  0.00000000000E+00 0.  1.
          1    1    1    2  502    0  0.69014892029E+02 -0.31701195023E+02 -0.15339634114E+04  0.15358423645E+04  0.00000000000E+00 0.  1.
         22    1    1    2    0    0 -0.45115688208E+02 -0.44604804217E+02  0.37302591110E+03  0.37838253690E+03  0.00000000000E+00 0.  1.
         22    1    1    2    0    0  0.36850654651E+02  0.33435307699E+02  0.93276543846E+02  0.10571851390E+03  0.00000000000E+00 0.  1.
</event>
<event>
 6    1  0.3701283E-005  0.2317515E+03  0.7818608E-02  0.1125413E+00
          2   -1    0    0  502    0  0.00000000000E+00  0.00000000000E+00  0.11821325041E+04  0.11821325041E+04  0.00000000000E+00 0. -1.
          1   -1    0    0  501    0 -0.00000000000E+00 -0.00000000000E+00 -0.59607312393E+02  0.59607312393E+02  0.00000000000E+00 0. -1.
          2    1    1    2  501    0  0.63691481260E+00  0.52559457574E+02  0.63144871613E+02  0.82159461123E+02  0.00000000000E+00 0. -1.
          1    1    1    2  502    0 -0.10302172317E+03  0.11395392907E+02  0.94276050761E+03  0.94844119751E+03  0.00000000000E+00 0. -1.
         22    1    1    2    0    0  0.21739068321E+02 -0.87926215808E+02  0.73242908004E+02  0.11648231664E+03  0.00000000000E+00 0.  1.
         22    1    1    2    0    0  0.80645740039E+02  0.23971365327E+02  0.43376904433E+02  0.94656841170E+02  0.00000000000E+00 0. -1.
</event>
<event>
 6    1  0.3701283E-005  0.1883579E+03  0.7818608E-02  0.1159951E+00
          2   -1    0    0  502    0  0.00000000000E+00  0.00000000000E+00  0.11076330425E+03  0.11076330425E+03  0.00000000000E+00 0. -1.
          1   -1    0    0  501    0 -0.00000000000E+00 -0.00000000000E+00 -0.14326153528E+03  0.14326153528E+03  0.00000000000E+00 0. -1.
          2    1    1    2  501    0  0.33899405302E+02  0.45195924485E+01  0.14865329147E+02  0.37290406358E+02  0.00000000000E+00 0. -1.
          1    1    1    2  502    0 -0.12285268249E+02  0.61446792659E+02  0.12100466274E+01  0.62674559088E+02  0.00000000000E+00 0. -1.
         22    1    1    2    0    0 -0.55152823180E+02 -0.80667766980E+02 -0.59995317900E+01  0.97903610331E+02  0.00000000000E+00 0. -1.
         22    1    1    2    0    0  0.33538686128E+02  0.14701381872E+02 -0.42574075012E+02  0.56156263758E+02  0.00000000000E+00 0.  1.
</event>
<event>
 6    1  0.3701283E-005  0.2827281E+03  0.7818608E-02  0.1094208E+00
          2   -1    0    0  502    0  0.00000000000E+00  0.00000000000E+00  0.98964475675E+02  0.98964475675E+02  0.00000000000E+00 0. -1.
          1   -1    0    0  501    0 -0.00000000000E+00 -0.00000000000E+00 -0.54661953285E+03  0.54661953285E+03  0.00000000000E+00 0. -1.
          2    1    1    2  501    0 -0.10749726568E+03 -0.61260013688E+02 -0.10506040076E+03  0.16231493836E+03  0.00000000000E+00 0. -1.
          1    1    1    2  502    0  0.93577218225E+02  0.15388736980E+03 -0.14317756956E+03  0.23008223482E+03  0.00000000000E+00 0. -1.
         22    1    1    2    0    0 -0.36881935905E+02  0.15866741702E+01 -0.14775414836E+02  0.39763143922E+02  0.00000000000E+00 0.  1.
         22    1    1    2    0    0  0.50801983363E+02 -0.94214030283E+02 -0.18464167202E+03  0.21342369142E+03  0.00000000000E+00 0. -1.
</event>
<event>
 6    1  0.3701283E-005  0.1395651E+03  0.7818608E-02  0.1265578E+00
          2   -1    0    0  502    0  0.00000000000E+00  0.00000000000E+00  0.12409462492E+03  0.12409462492E+03  0.00000000000E+00 0. -1.
          1   -1    0    0  501    0 -0.00000000000E+00 -0.00000000000E+00 -0.53190389360E+03  0.53190389360E+03  0.00000000000E+00 0.  1.
          2    1    1    2  501    0  0.40889171097E+02 -0.33940416542E+02 -0.55500182158E+02  0.76838443553E+02  0.00000000000E+00 0. -1.
          1    1    1    2  502    0 -0.42209168938E+02  0.14085378509E+03 -0.38402940493E+03  0.41121768756E+03  0.00000000000E+00 0.  1.
         22    1    1    2    0    0  0.40738120996E+01 -0.48662039149E+02  0.78995885302E+02  0.92870554503E+02  0.00000000000E+00 0. -1.
         22    1    1    2    0    0 -0.27538142589E+01 -0.58251329401E+02 -0.47275566890E+02  0.75071832898E+02  0.00000000000E+00 0. -1.
</event>
<event>
 6    1  0.3717116E-005  0.1892313E+03  0.7818608E-02  0.1160019E+00
          2   -1    0    0  502    0  0.00000000000E+00  0.00000000000E+00  0.62648321960E+03  0.62648321960E+03  0.00000000000E+00 0. -1.
          1   -1    0    0  501    0 -0.00000000000E+00 -0.00000000000E+00 -0.13152535929E+04  0.13152535929E+04  0.00000000000E+00 0.  1.
          2    1    1    2  501    0 -0.17744073371E+03 -0.27539535344E+02  0.29666802678E+03  0.34677883168E+03  0.00000000000E+00 0. -1.
          1    1    1    2  502    0  0.30027791252E+02 -0.59487905143E+01 -0.12583210159E+04  0.12586933048E+04  0.00000000000E+00 0.  1.
         22    1    1    2    0    0 -0.19052724389E+02 -0.28670322700E+01  0.63250518181E+02  0.66119998721E+02  0.00000000000E+00 0. -1.
         22    1    1    2    0    0  0.16646566685E+03  0.36355358128E+02  0.20963209768E+03  0.27014467731E+03  0.00000000000E+00 0.  1.
</event>
<event>
 6    1  0.3701283E-005  0.3318206E+03  0.7818608E-02  0.1070334E+00
          2   -1    0    0  502    0  0.00000000000E+00  0.00000000000E+00  0.21813734906E+04  0.21813734906E+04  0.00000000000E+00 0. -1.
          1   -1    0    0  501    0 -0.00000000000E+00 -0.00000000000E+00 -0.53164819833E+02  0.53164819833E+02  0.00000000000E+00 0. -1.
          2    1    1    2  501    0  0.12841749577E+03  0.57441587678E+02  0.14981772596E+03  0.20551384437E+03  0.00000000000E+00 0. -1.
          1    1    1    2  502    0 -0.21487488322E+03 -0.13040088528E+03  0.15296006584E+04  0.15501141185E+04  0.00000000000E+00 0. -1.
         22    1    1    2    0    0  0.80212372913E+02  0.39433204910E+02  0.43152813021E+03  0.44068756459E+03  0.00000000000E+00 0.  1.
         22    1    1    2    0    0  0.62450145317E+01  0.33526092694E+02  0.17262156167E+02  0.38222782909E+02  0.00000000000E+00 0. -1.
</event>
<event>
 6    1  0.3701283E-005  0.2541571E+03  0.7818608E-02  0.1110705E+00
          2   -1    0    0  502    0  0.00000000000E+00  0.00000000000E+00  0.56871668916E+02  0.56871668916E+02  0.00000000000E+00 0. -1.
          1   -1    0    0  501    0 -0.00000000000E+00 -0.00000000000E+00 -0.10727680696E+04  0.10727680696E+04  0.00000000000E+00 0.  1.
          2    1    1    2  501    0  0.54423296396E+02  0.90505726654E+02 -0.60135494878E+02  0.12152966507E+03  0.00000000000E+00 0. -1.
          1    1    1    2  502    0 -0.23289854252E+02 -0.23886880087E+02 -0.78668403609E+03  0.78739111818E+03  0.00000000000E+00 0.  1.
         22    1    1    2    0    0  0.46941313344E+02 -0.21864346427E+02 -0.57723520905E+02  0.77547027079E+02  0.00000000000E+00 0. -1.
         22    1    1    2    0    0 -0.78074755488E+02 -0.44754500140E+02 -0.11135334878E+03  0.14317192816E+03  0.00000000000E+00 0. -1.
</event>
<event>
 6    1  0.3701283E-005  0.2622481E+03  0.7818608E-02  0.1105800E+00
          2   -1    0    0  502    0  0.00000000000E+00  0.00000000000E+00  0.11054675278E+03  0.11054675278E+03  0.00000000000E+00 0.  1.
          1   -1    0    0  501    0 -0.00000000000E+00 -0.00000000000E+00 -0.13530727646E+04  0.13530727646E+04  0.00000000000E+00 0.  1.
          2    1    1    2  501    0  0.14024425819E+02  0.19299212062E+02 -0.68149774876E+02  0.72204819240E+02  0.00000000000E+00 0.  1.
          1    1    1    2  502    0 -0.13642455546E+03  0.73518677547E+02 -0.11850585151E+04  0.11951486684E+04  0.00000000000E+00 0.  1.
         22    1    1    2    0    0  0.64350647556E+02  0.25730540992E+01  0.46006143043E+02  0.79146646461E+02  0.00000000000E+00 0.  1.
         22    1    1    2    0    0  0.58049482086E+02 -0.95390943708E+02 -0.35323864855E+02  0.11711938328E+03  0.00000000000E+00 0.  1.
</event>
<event>
 6    1  0.3701283E-005  0.2581037E+03  0.7818608E-02  0.1108288E+00
          2   -1    0    0  502    0  0.00000000000E+00  0.00000000000E+00  0.47790512957E+03  0.47790512957E+03  0.00000000000E+00 0.  1.
          1   -1    0    0  501    0 -0.00000000000E+00 -0.00000000000E+00 -0.13036344078E+03  0.13036344078E+03  0.00000000000E+00 0. -1.
          2    1    1    2  501    0  0.58931434568E+02 -0.80287967952E+01  0.26268635645E+02  0.65018587934E+02  0.00000000000E+00 0.  1.
          1    1    1    2  502    0  0.45180711677E+02  0.31070909326E+01 -0.89726565538E+02  0.10050774739E+03  0.00000000000E+00 0. -1.
         22    1    1    2    0    0  0.30188747261E+02 -0.39394869810E-01  0.71696724882E+02  0.77793202608E+02  0.00000000000E+00 0.  1.
         22    1    1    2    0    0 -0.13430089351E+03  0.49611007324E+01  0.33930289381E+03  0.36494903242E+03  0.00000000000E+00 0.  1.
</event>
<event>
 6    1  0.3701283E-005  0.7754012E+02  0.7818608E-02  0.1338152E+00
          2   -1    0    0  502    0  0.00000000000E+00  0.00000000000E+00  0.50297899666E+03  0.50297899666E+03  0.00000000000E+00 0.  1.
          1   -1    0    0  501    0 -0.00000000000E+00 -0.00000000000E+00 -0.80801154945E+02  0.80801154945E+02  0.00000000000E+00 0.  1.
          2    1    1    2  501    0 -0.31569832686E+02 -0.54625482151E+01  0.93869780656E+02  0.99186841311E+02  0.00000000000E+00 0.  1.
          1    1    1    2  502    0  0.25250232352E+02  0.77121536015E+01 -0.66198878714E+02  0.71269510241E+02  0.00000000000E+00 0.  1.
         22    1    1    2    0    0  0.61225049270E+02 -0.52472690137E+00  0.13756359885E+03  0.15057398755E+03  0.00000000000E+00 0.  1.
         22    1    1    2    0    0 -0.54905448936E+02 -0.17248784849E+01  0.25694334093E+03  0.26274981251E+03  0.00000000000E+00 0.  1.
</event>
<event>
 6    1  0.3701283E-005  0.7979508E+02  0.7818608E-02  0.1370918E+00
          2   -1    0    0  502    0  0.00000000000E+00  0.00000000000E+00  0.18284522997E+03  0.18284522997E+03  0.00000000000E+00 0. -1.
          1   -1    0    0  501    0 -0.00000000000E+00 -0.00000000000E+00 -0.46689204661E+03  0.46689204661E+03  0.00000000000E+00 0. -1.
          2    1    1    2  501    0 -0.25736332945E+02  0.87654540459E+01  0.29292495441E+02  0.39965513975E+02  0.00000000000E+00 0. -1.
          1    1    1    2  502    0  0.58167395485E+02 -0.45648602846E+02 -0.42613606058E+03  0.43250339070E+03  0.00000000000E+00 0. -1.
         22    1    1    2    0    0  0.39452808509E+02 -0.46148542852E+00  0.81275011853E+02  0.90345805767E+02  0.00000000000E+00 0. -1.
         22    1    1    2    0    0 -0.71883871050E+02  0.37344634228E+02  0.31521736652E+02  0.86922566140E+02  0.00000000000E+00 0.  1.
</event>
<event>
 6    1  0.3701283E-005  0.7856562E+02  0.7818608E-02  0.1334074E+00
          2   -1    0    0  502    0  0.00000000000E+00  0.00000000000E+00  0.36421852543E+03  0.36421852543E+03  0.00000000000E+00 0. -1.
          1   -1    0    0  501    0 -0.00000000000E+00 -0.00000000000E+00 -0.60334747970E+02  0.60334747970E+02  0.00000000000E+00 0. -1.
          2    1    1    2  501    0 -0.37138068809E+02 -0.10414467053E+02  0.40115843034E+02  0.55650499919E+02  0.00000000000E+00 0. -1.
          1    1    1    2  502    0 -0.62584798181E+02  0.12717772425E+02  0.16835163273E+03  0.18005796550E+03  0.00000000000E+00 0. -1.
         22    1    1    2    0    0 -0.26166981380E+02 -0.49865851746E+01  0.46833566826E+02  0.53879123303E+02  0.00000000000E+00 0.  1.
         22    1    1    2    0    0  0.12588984837E+03  0.26832798024E+01  0.48582734877E+02  0.13496568468E+03  0.00000000000E+00 0. -1.
</event>
<event>
 6    1  0.3701283E-005  0.1012195E+03  0.7818608E-02  0.1278975E+00
          2   -1    0    0  502    0  0.00000000000E+00  0.00000000000E+00  0.69695112884E+02  0.69695112884E+02  0.00000000000E+00 0.  1.
          1   -1    0    0  501    0 -0.00000000000E+00 -0.00000000000E+00 -0.27659093308E+03  0.27659093308E+03  0.00000000000E+00 0.  1.
          2    1    1    2  501    0 -0.22721390006E+02 -0.31974657182E+02 -0.82383313625E+02  0.91245003313E+02  0.00000000000E+00 0.  1.
          1    1    1    2  502    0 -0.56959487730E+02 -0.25977091079E+02 -0.21508256673E+02  0.66195147922E+02  0.00000000000E+00 0.  1.
         22    1    1    2    0    0  0.10334431065E+03  0.74458208301E+02 -0.71271755286E+02  0.14595798857E+03  0.00000000000E+00 0.  1.
         22    1    1    2    0    0 -0.23663432912E+02 -0.16506460040E+02 -0.31732494615E+02  0.42887906159E+02  0.00000000000E+00 0.  1.
</event>
<event>
 6    1  0.3701283E-005  0.2980080E+03  0.7818608E-02  0.1086241E+00
          2   -1    0    0  502    0  0.00000000000E+00  0.00000000000E+00  0.80103946237E+02  0.80103946237E+02  0.00000000000E+00 0. -1.
          1   -1    0    0  501    0 -0.00000000000E+00 -0.00000000000E+00 -0.82115642006E+03  0.82115642006E+03  0.00000000000E+00 0. -1.
          2    1    1    2  501    0  0.11757530375E+03 -0.19893883385E+02 -0.16717207165E+03  0.20534415061E+03  0.00000000000E+00 0. -1.
          1    1    1    2  502    0 -0.77737630590E+02 -0.72337967710E+02 -0.51865678072E+03  0.52941550503E+03  0.00000000000E+00 0. -1.
         22    1    1    2    0    0 -0.46435899407E+02  0.11679322748E+03 -0.27083273254E+02  0.12857081484E+03  0.00000000000E+00 0. -1.
         22    1    1    2    0    0  0.65982262493E+01 -0.24561376388E+02 -0.28140348195E+02  0.37929895811E+02  0.00000000000E+00 0.  1.
</event>
<event>
 6    1  0.3701283E-005  0.6704138E+02  0.7818608E-02  0.1374951E+00
          2   -1    0    0  502    0  0.00000000000E+00  0.00000000000E+00  0.23919861187E+03  0.23919861187E+03  0.00000000000E+00 0. -1.
          1   -1    0    0  501    0 -0.00000000000E+00 -0.00000000000E+00 -0.99108838500E+02  0.99108838500E+02  0.00000000000E+00 0. -1.
          2    1    1    2  501    0 -0.38039891681E+02 -0.17326101421E+02 -0.46542403871E+02  0.62557353745E+02  0.00000000000E+00 0. -1.
          1    1    1    2  502    0  0.65785823182E+01  0.53266341357E+02  0.64491828370E+01  0.54057125582E+02  0.00000000000E+00 0. -1.
         22    1    1    2    0    0 -0.24045031288E+02 -0.49536544293E+01 -0.57318736723E+01  0.25210247870E+02  0.00000000000E+00 0. -1.
         22    1    1    2    0    0  0.55506340651E+02 -0.30986585507E+02  0.18591486808E+03  0.19648272317E+03  0.00000000000E+00 0. -1.
</event>
<event>
 6    1  0.3701283E-005  0.4456309E+03  0.7818608E-02  0.1029033E+00
          2   -1    0    0  502    0  0.00000000000E+00  0.00000000000E+00  0.77232069868E+03  0.77232069868E+03  0.00000000000E+00 0. -1.
          1   -1    0    0  501    0 -0.00000000000E+00 -0.00000000000E+00 -0.10628220568E+04  0.10628220568E+04  0.00000000000E+00 0. -1.
          2    1    1    2  501    0  0.18903164463E+03  0.71252131674E+02  0.39817001701E+03  0.44648537645E+03  0.00000000000E+00 0. -1.
          1    1    1    2  502    0 -0.73218987441E+01  0.19950052449E+02 -0.99841704146E+03  0.99864318126E+03  0.00000000000E+00 0. -1.
         22    1    1    2    0    0 -0.18969779257E+03 -0.10117422727E+03  0.30997564489E+03  0.37723517492E+03  0.00000000000E+00 0.  1.
         22    1    1    2    0    0  0.79880466874E+01  0.99720431491E+01 -0.22997855119E+00  0.12779022834E+02  0.00000000000E+00 0. -1.
</event>
<event>
 6    1  0.3701283E-005  0.9482665E+02  0.7818608E-02  0.1300216E+00
          2   -1    0    0  502    0  0.00000000000E+00  0.00000000000E+00  0.30043126907E+03  0.30043126907E+03  0.00000000000E+00 0. -1.
          1   -1    0    0  501    0 -0.00000000000E+00 -0.00000000000E+00 -0.54014071020E+03  0.54014071020E+03  0.00000000000E+00 0. -1.
          2    1    1    2  501    0  0.77259481195E+02  0.14431952143E+02  0.47600537818E+02  0.91886451002E+02  0.00000000000E+00 0. -1.
          1    1    1    2  502    0 -0.67598532123E+02  0.48086096051E+02 -0.49312237455E+03  0.50005150781E+03  0.00000000000E+00 0. -1.
         22    1    1    2    0    0 -0.65572646687E+02 -0.47153964349E+02  0.13231117489E+03  0.15501456496E+03  0.00000000000E+00 0. -1.
         22    1    1    2    0    0  0.55911697615E+02 -0.15364083845E+02  0.73501220714E+02  0.93619455505E+02  0.00000000000E+00 0. -1.
</event>
<event>
 6    1  0.3701283E-005  0.3090897E+03  0.7818608E-02  0.1080783E+00
          2   -1    0    0  502    0  0.00000000000E+00  0.00000000000E+00  0.84571647304E+03  0.84571647304E+03  0.00000000000E+00 0. -1.
          1   -1    0    0  501    0 -0.00000000000E+00 -0.00000000000E+00 -0.10473699892E+03  0.10473699892E+03  0.00000000000E+00 0. -1.
          2    1    1    2  501    0 -0.35546137258E+02  0.11835077756E+03  0.57753441757E+02  0.13640342539E+03  0.00000000000E+00 0. -1.
          1    1    1    2  502    0  0.92900710614E+02 -0.22921528809E+03  0.50246305555E+03  0.56003509936E+03  0.00000000000E+00 0. -1.
         22    1    1    2    0    0 -0.27164242443E+02  0.13431513029E+03  0.15945928875E+03  0.21025155186E+03  0.00000000000E+00 0. -1.
         22    1    1    2    0    0 -0.30190330914E+02 -0.23450619760E+02  0.21303688059E+02  0.43763395352E+02  0.00000000000E+00 0. -1.
</event>
<event>
 6    1  0.3701283E-005  0.2984664E+03  0.7818608E-02  0.1086010E+00
          2   -1    0    0  502    0  0.00000000000E+00  0.00000000000E+00  0.71927110503E+02  0.71927110503E+02  0.00000000000E+00 0. -1.
          1   -1    0    0  501    0 -0.00000000000E+00 -0.00000000000E+00 -0.65100269003E+03  0.65100269003E+03  0.00000000000E+00 0. -1.
          2    1    1    2  501    0 -0.52016918380E+02  0.43826610731E+01 -0.24760685595E+03  0.25304964459E+03  0.00000000000E+00 0. -1.
          1    1    1    2  502    0  0.10554396617E+02 -0.23712748256E+02 -0.33872754982E+03  0.33972053621E+03  0.00000000000E+00 0. -1.
         22    1    1    2    0    0  0.74023834549E+01 -0.22273832094E+02 -0.47769184652E+02  0.53224185098E+02  0.00000000000E+00 0. -1.
         22    1    1    2    0    0  0.34060138308E+02  0.41603919277E+02  0.55028010886E+02  0.76935434637E+02  0.00000000000E+00 0. -1.
</event>
<event>
 6    1  0.3701283E-005  0.2223470E+03  0.7818608E-02  0.1132145E+00
          2   -1    0    0  502    0  0.00000000000E+00  0.00000000000E+00  0.12709612614E+04  0.12709612614E+04  0.00000000000E+00 0. -1.
          1   -1    0    0  501    0 -0.00000000000E+00 -0.00000000000E+00 -0.45326477620E+03  0.45326477620E+03  0.00000000000E+00 0. -1.
          2    1    1    2  501    0 -0.30230230381E+02 -0.76476583728E+02  0.69166068328E+03  0.69653214964E+03  0.00000000000E+00 0. -1.
          1    1    1    2  502    0  0.11210136864E+02  0.31418128415E+02 -0.44290819856E+03  0.44416262597E+03  0.00000000000E+00 0. -1.
         22    1    1    2    0    0 -0.24983738635E+02 -0.30867501461E+02  0.13122643741E+03  0.13710349272E+03  0.00000000000E+00 0. -1.
         22    1    1    2    0    0  0.44003832153E+02  0.75925956774E+02  0.43771756312E+03  0.44642776932E+03  0.00000000000E+00 0.  1.
</event>
<event>
 6    1  0.3701283E-005  0.6971606E+02  0.7818608E-02  0.1366008E+00
          2   -1    0    0  502    0  0.00000000000E+00  0.00000000000E+00  0.86067782894E+02  0.86067782894E+02  0.00000000000E+00 0. -1.
          1   -1    0    0  501    0 -0.00000000000E+00 -0.00000000000E+00 -0.25029160121E+03  0.25029160121E+03  0.00000000000E+00 0. -1.
          2    1    1    2  501    0 -0.94583340151E+01 -0.22991905512E+02  0.47947237388E+02  0.54009493374E+02  0.00000000000E+00 0. -1.
          1    1    1    2  502    0  0.15367662793E+02  0.21100761514E+02 -0.12512963460E+03  0.12782344328E+03  0.00000000000E+00 0. -1.
         22    1    1    2    0    0 -0.16468454264E+02 -0.40227375836E+02  0.13081187958E+02  0.45393493266E+02  0.00000000000E+00 0. -1.
         22    1    1    2    0    0  0.10559125486E+02  0.42118519835E+02 -0.10012260905E+03  0.10913295418E+03  0.00000000000E+00 0.  1.
</event>
<event>
 6    1  0.3701283E-005  0.1855503E+03  0.7818608E-02  0.1162537E+00
          2   -1    0    0  502    0  0.00000000000E+00  0.00000000000E+00  0.52573417768E+03  0.52573417768E+03  0.00000000000E+00 0.  1.
          1   -1    0    0  501    0 -0.00000000000E+00 -0.00000000000E+00 -0.11054705414E+04  0.11054705414E+04  0.00000000000E+00 0. -1.
          2    1    1    2  501    0 -0.43219019246E+02 -0.34321389866E+02  0.14451537451E+03  0.15469497373E+03  0.00000000000E+00 0.  1.
          1    1    1    2  502    0  0.12053553247E+02  0.44766548661E+02 -0.10885899571E+04  0.10895767191E+04  0.00000000000E+00 0. -1.
         22    1    1    2    0    0  0.55393636845E+02 -0.28713731650E+02  0.34577984479E+03  0.35136396294E+03  0.00000000000E+00 0.  1.
         22    1    1    2    0    0 -0.24228170846E+02  0.18268572854E+02  0.18558374094E+02  0.35569063324E+02  0.00000000000E+00 0.  1.
</event>
<event>
 6    1  0.3701283E-005  0.2601564E+03  0.7818608E-02  0.1107049E+00
          2   -1    0    0  502    0  0.00000000000E+00  0.00000000000E+00  0.26632181706E+02  0.26632181706E+02  0.00000000000E+00 0. -1.
          1   -1    0    0  501    0 -0.00000000000E+00 -0.00000000000E+00 -0.84337457759E+03  0.84337457759E+03  0.00000000000E+00 0. -1.
          2    1    1    2  501    0 -0.22327316773E+02 -0.69951694736E+02 -0.37866478744E+03  0.38571851125E+03  0.00000000000E+00 0. -1.
          1    1    1    2  502    0 -0.35562846631E+02 -0.17349786471E+02 -0.10505520272E+03  0.11226008538E+03  0.00000000000E+00 0. -1.
         22    1    1    2    0    0  0.48181475590E+02  0.10719375075E+03 -0.32922118488E+03  0.34956908239E+03  0.00000000000E+00 0. -1.
         22    1    1    2    0    0  0.97086878147E+01 -0.19892269547E+02 -0.38012208395E+01  0.22459080272E+02  0.00000000000E+00 0. -1.
</event>
<event>
 6    1  0.3701283E-005  0.3000113E+03  0.7818608E-02  0.1108641E+00
          2   -1    0    0  502    0  0.00000000000E+00  0.00000000000E+00  0.65302985034E+03  0.65302985034E+03  0.00000000000E+00 0. -1.
          1   -1    0    0  501    0 -0.00000000000E+00 -0.00000000000E+00 -0.31058999957E+03  0.31058999957E+03  0.00000000000E+00 0. -1.
          2    1    1    2  501    0  0.34518722766E+02  0.23518474185E+03  0.24473214994E+03  0.34117038300E+03  0.00000000000E+00 0. -1.
          1    1    1    2  502    0  0.12213339502E+03 -0.28762972545E+03 -0.10618888034E+03  0.33003560937E+03  0.00000000000E+00 0. -1.
         22    1    1    2    0    0 -0.16246127519E+03  0.11575877174E+02  0.13258133211E+03  0.21001303887E+03  0.00000000000E+00 0. -1.
         22    1    1    2    0    0  0.58091574034E+01  0.40869106419E+02  0.71315249060E+02  0.82400818672E+02  0.00000000000E+00 0. -1.
</event>
<event>
 6    1  0.3701283E-005  0.9000679E+02  0.7818608E-02  0.1307008E+00
          2   -1    0    0  502    0  0.00000000000E+00  0.00000000000E+00  0.38916246680E+03  0.38916246680E+03  0.00000000000E+00 0. -1.
          1   -1    0    0  501    0 -0.00000000000E+00 -0.00000000000E+00 -0.49808472921E+02  0.49808472921E+02  0.00000000000E+00 0. -1.
          2    1    1    2  501    0  0.37570465892E+02 -0.26007664725E+02  0.60957609671E+02  0.76182469825E+02  0.00000000000E+00 0. -1.
          1    1    1    2  502    0 -0.25667442748E+02  0.50390577990E+01 -0.23036237900E+02  0.34855099732E+02  0.00000000000E+00 0. -1.
         22    1    1    2    0    0 -0.36926794695E+02  0.67130175753E+02  0.17588824240E+03  0.19185078180E+03  0.00000000000E+00 0. -1.
         22    1    1    2    0    0  0.25023771551E+02 -0.46161568827E+02  0.12554437971E+03  0.13608258837E+03  0.00000000000E+00 0. -1.
</event>
<event>
 6    1  0.3701283E-005  0.1723357E+03  0.7818608E-02  0.1175434E+00
          2   -1    0    0  502    0  0.00000000000E+00  0.00000000000E+00  0.18884177581E+03  0.18884177581E+03  0.00000000000E+00 0. -1.
          1   -1    0    0  501    0 -0.00000000000E+00 -0.00000000000E+00 -0.71778541552E+02  0.71778541552E+02  0.00000000000E+00 0. -1.
          2    1    1    2  501    0  0.23082143153E+02 -0.92442915492E+01 -0.94433670329E+01  0.26597357758E+02  0.00000000000E+00 0. -1.
          1    1    1    2  502    0 -0.20602728687E+02  0.33630735951E+01 -0.28299105361E+02  0.35165637455E+02  0.00000000000E+00 0. -1.
         22    1    1    2    0    0  0.13043149213E+01  0.37647461752E+02 -0.30493488048E+01  0.37793268473E+02  0.00000000000E+00 0.  1.
         22    1    1    2    0    0 -0.37837293873E+01 -0.31766243798E+02  0.15785505546E+03  0.16106405367E+03  0.00000000000E+00 0. -1.
</event>
<event>
 6    1  0.3701283E-005  0.3485612E+03  0.7818608E-02  0.1063207E+00
          2   -1    0    0  502    0  0.00000000000E+00  0.00000000000E+00  0.21348895203E+03  0.21348895203E+03  0.00000000000E+00 0.  1.
          1   -1    0    0  501    0 -0.00000000000E+00 -0.00000000000E+00 -0.29350587653E+03  0.29350587653E+03  0.00000000000E+00 0. -1.
          2    1    1    2  501    0  0.40415426680E+02 -0.12343515413E+03 -0.85374276191E+02  0.15542976235E+03  0.00000000000E+00 0.  1.
          1    1    1    2  502    0  0.38993679963E+02  0.95283985865E+02 -0.11773319732E+03  0.15639901148E+03  0.00000000000E+00 0. -1.
         22    1    1    2    0    0 -0.11188401371E+03  0.30119809357E+02  0.78448143996E+02  0.13992621890E+03  0.00000000000E+00 0.  1.
         22    1    1    2    0    0  0.32474907061E+02 -0.19686410873E+01  0.44642405015E+02  0.55239835825E+02  0.00000000000E+00 0.  1.
</event>
<event>
 6    1  0.3701283E-005  0.1626997E+03  0.7818608E-02  0.1185682E+00
          2   -1    0    0  502    0  0.00000000000E+00  0.00000000000E+00  0.79189879578E+03  0.79189879578E+03  0.00000000000E+00 0. -1.
          1   -1    0    0  501    0 -0.00000000000E+00 -0.00000000000E+00 -0.33200018177E+03  0.33200018177E+03  0.00000000000E+00 0. -1.
          2    1    1    2  501    0 -0.24119419348E+02  0.46532549665E+01  0.76309534075E+02  0.80165729350E+02  0.00000000000E+00 0. -1.
          1    1    1    2  502    0 -0.72415998500E+01  0.34157383841E+02 -0.32269157671E+03  0.32457513971E+03  0.00000000000E+00 0. -1.
         22    1    1    2    0    0  0.12343652651E+02  0.45309796877E+02  0.18960623836E+03  0.19533527351E+03  0.00000000000E+00 0. -1.
         22    1    1    2    0    0  0.19017366547E+02 -0.84120435684E+02  0.51667441829E+03  0.52382283498E+03  0.00000000000E+00 0. -1.
</event>
<event>
 6    1  0.3701283E-005  0.2238344E+03  0.7818608E-02  0.1131056E+00
          2   -1    0    0  502    0  0.00000000000E+00  0.00000000000E+00  0.87414520637E+03  0.87414520637E+03  0.00000000000E+00 0. -1.
          1   -1    0    0  501    0 -0.00000000000E+00 -0.00000000000E+00 -0.41345663686E+02  0.41345663686E+02  0.00000000000E+00 0.  1.
          2    1    1    2  501    0 -0.50801397964E+02 -0.26983308452E+02  0.46686369065E+03  0.47039407588E+03  0.00000000000E+00 0. -1.
          1    1    1    2  502    0  0.62623869826E+02 -0.36313203472E+02  0.23962377097E+02  0.76253480803E+02  0.00000000000E+00 0.  1.
         22    1    1    2    0    0 -0.33106097583E+01  0.96439141239E+02  0.19041181030E+03  0.21346691922E+03  0.00000000000E+00 0.  1.
         22    1    1    2    0    0 -0.85118621035E+01 -0.33142629314E+02  0.15156166463E+03  0.15537639416E+03  0.00000000000E+00 0. -1.
</event>
<event>
 6    1  0.3701283E-005  0.8298316E+02  0.7818608E-02  0.1328047E+00
          2   -1    0    0  502    0  0.00000000000E+00  0.00000000000E+00  0.74223881567E+03  0.74223881567E+03  0.00000000000E+00 0.  1.
          1   -1    0    0  501    0 -0.00000000000E+00 -0.00000000000E+00 -0.66379409702E+03  0.66379409702E+03  0.00000000000E+00 0. -1.
          2    1    1    2  501    0 -0.61493335648E+01 -0.19433459416E+02  0.58998530471E+02  0.62420351215E+02  0.00000000000E+00 0.  1.
          1    1    1    2  502    0 -0.49640739969E+02  0.66498127427E+02 -0.65140454820E+03  0.65666893442E+03  0.00000000000E+00 0. -1.
         22    1    1    2    0    0 -0.26962712228E+02 -0.58173636792E+02  0.30952564120E+03  0.31609695100E+03  0.00000000000E+00 0.  1.
         22    1    1    2    0    0  0.82752785762E+02  0.11108968781E+02  0.36132509517E+03  0.37084667606E+03  0.00000000000E+00 0.  1.
</event>
<event>
 6    1  0.3714658E-005  0.7650630E+03  0.7818608E-02  0.1040287E+00
          2   -1    0    0  502    0  0.00000000000E+00  0.00000000000E+00  0.16250122292E+04  0.16250122292E+04  0.00000000000E+00 0. -1.
          1   -1    0    0  501    0 -0.00000000000E+00 -0.00000000000E+00 -0.51353475614E+03  0.51353475614E+03  0.00000000000E+00 0. -1.
          2    1    1    2  501    0  0.68219199051E+03 -0.22025243648E+03  0.72685675758E+03  0.10208906865E+04  0.00000000000E+00 0. -1.
          1    1    1    2  502    0 -0.70974918732E+03  0.27369145535E+03  0.60102636056E+02  0.76306175929E+03  0.00000000000E+00 0. -1.
         22    1    1    2    0    0  0.37770706378E+02  0.89872749547E+01  0.20188470861E+02  0.43760389933E+02  0.00000000000E+00 0. -1.
         22    1    1    2    0    0 -0.10213509568E+02 -0.62426293826E+02  0.30432960861E+03  0.31083414969E+03  0.00000000000E+00 0.  1.
</event>
<event>
 6    1  0.3701283E-005  0.2314760E+03  0.7818608E-02  0.1160389E+00
          2   -1    0    0  502    0  0.00000000000E+00  0.00000000000E+00  0.18785385795E+03  0.18785385795E+03  0.00000000000E+00 0.  1.
          1   -1    0    0  501    0 -0.00000000000E+00 -0.00000000000E+00 -0.12819503831E+04  0.12819503831E+04  0.00000000000E+00 0.  1.
          2    1    1    2  501    0 -0.57591779359E+02 -0.20334528756E+02 -0.27175369057E+02  0.66849134570E+02  0.00000000000E+00 0.  1.
          1    1    1    2  502    0  0.19033382279E+03  0.12743291670E+03 -0.11536957393E+04  0.11762142539E+04  0.00000000000E+00 0.  1.
         22    1    1    2    0    0 -0.24577029867E+02 -0.97405659788E+02  0.48895881159E+02  0.11172600481E+03  0.00000000000E+00 0.  1.
         22    1    1    2    0    0 -0.10816501356E+03 -0.96927281585E+01  0.37878701998E+02  0.11501484775E+03  0.00000000000E+00 0.  1.
</event>
<event>
 6    1  0.3701283E-005  0.2522579E+03  0.7818608E-02  0.1231077E+00
          2   -1    0    0  502    0  0.00000000000E+00  0.00000000000E+00  0.23671869374E+03  0.23671869374E+03  0.00000000000E+00 0.  1.
          1   -1    0    0  501    0 -0.00000000000E+00 -0.00000000000E+00 -0.79598719191E+03  0.79598719191E+03  0.00000000000E+00 0. -1.
          2    1    1    2  501    0 -0.12239627755E+02  0.54462269557E+02  0.26135978193E+02  0.61636325726E+02  0.00000000000E+00 0.  1.
          1    1    1    2  502    0  0.18652506011E+03 -0.14034204940E+03 -0.68238781153E+03  0.72120774692E+03  0.00000000000E+00 0. -1.
         22    1    1    2    0    0 -0.18756495889E+03  0.95688000732E+02  0.99961971282E+02  0.23308625654E+03  0.00000000000E+00 0.  1.
         22    1    1    2    0    0  0.13279526527E+02 -0.98082208859E+01 -0.29786361085E+01  0.16775556467E+02  0.00000000000E+00 0. -1.
</event>
<event>
 6    1  0.6869854E-005  0.9500700E+03  0.7818608E-02  0.9365069E-01
          2   -1    0    0  502    0  0.00000000000E+00  0.00000000000E+00  0.24081012211E+03  0.24081012211E+03  0.00000000000E+00 0. -1.
          1   -1    0    0  501    0 -0.00000000000E+00 -0.00000000000E+00 -0.31619002843E+04  0.31619002843E+04  0.00000000000E+00 0.  1.
          2    1    1    2  501    0  0.13569866807E+03 -0.15216199943E+02 -0.87999420148E+03  0.89052538195E+03  0.00000000000E+00 0. -1.
          1    1    1    2  502    0  0.46934831424E+02 -0.11980188240E+02 -0.22235293212E+04  0.22240568890E+04  0.00000000000E+00 0.  1.
         22    1    1    2    0    0 -0.18575728073E+03  0.36955826471E+02  0.19504960728E+03  0.27187469495E+03  0.00000000000E+00 0. -1.
         22    1    1    2    0    0  0.31237812377E+01 -0.97594382889E+01 -0.12616246806E+02  0.16253440510E+02  0.00000000000E+00 0. -1.
</event>
<event>
 6    1  0.3701283E-005  0.9093472E+02  0.7818608E-02  0.1302469E+00
          2   -1    0    0  502    0  0.00000000000E+00  0.00000000000E+00  0.53557350200E+03  0.53557350200E+03  0.00000000000E+00 0. -1.
          1   -1    0    0  501    0 -0.00000000000E+00 -0.00000000000E+00 -0.11399560088E+03  0.11399560088E+03  0.00000000000E+00 0. -1.
          2    1    1    2  501    0 -0.28971813911E+02 -0.15992883466E+02  0.53846173403E+02  0.63202442302E+02  0.00000000000E+00 0. -1.
          1    1    1    2  502    0 -0.11358548365E+02 -0.59499533491E+02 -0.87054029431E+02  0.10605477428E+03  0.00000000000E+00 0. -1.
         22    1    1    2    0    0 -0.25984490146E+02 -0.23558131252E+02  0.11457844178E+03  0.11982653545E+03  0.00000000000E+00 0. -1.
         22    1    1    2    0    0  0.66314852422E+02  0.99050548208E+02  0.34020731536E+03  0.36048535085E+03  0.00000000000E+00 0. -1.
</event>
<event>
 6    1  0.3701283E-005  0.2247324E+03  0.7818608E-02  0.1130403E+00
          2   -1    0    0  502    0  0.00000000000E+00  0.00000000000E+00  0.31629061940E+03  0.31629061940E+03  0.00000000000E+00 0. -1.
          1   -1    0    0  501    0 -0.00000000000E+00 -0.00000000000E+00 -0.21359718670E+03  0.21359718670E+03  0.00000000000E+00 0. -1.
          2    1    1    2  501    0 -0.38304182400E+02  0.69823542455E+02  0.86409105090E+02  0.11751200327E+03  0.00000000000E+00 0. -1.
          1    1    1    2  502    0  0.32754017529E+02  0.11686774579E+01 -0.17193336302E+03  0.17502934837E+03  0.00000000000E+00 0. -1.
         22    1    1    2    0    0  0.11354899534E+02  0.25900602899E+02  0.32627114819E+01  0.28467881203E+02  0.00000000000E+00 0. -1.
         22    1    1    2    0    0 -0.58047346622E+01 -0.96892822812E+02  0.18495497914E+03  0.20887857326E+03  0.00000000000E+00 0. -1.
</event>
<event>
 6    1  0.3701283E-005  0.3135030E+03  0.7818608E-02  0.1116591E+00
          2   -1    0    0  502    0  0.00000000000E+00  0.00000000000E+00  0.95396264848E+03  0.95396264848E+03  0.00000000000E+00 0.  1.
          1   -1    0    0  501    0 -0.00000000000E+00 -0.00000000000E+00 -0.10360757256E+04  0.10360757256E+04  0.00000000000E+00 0.  1.
          2    1    1    2  501    0 -0.10299467779E+03  0.24492598194E+03  0.72939821845E+03  0.77628500009E+03  0.00000000000E+00 0.  1.
          1    1    1    2  502    0  0.19125349627E+02 -0.31037565811E+03 -0.94966120013E+03  0.99927735048E+03  0.00000000000E+00 0.  1.
         22    1    1    2    0    0  0.10925090859E+03  0.40984278345E+02  0.65714118226E+02  0.13391720365E+03  0.00000000000E+00 0.  1.
         22    1    1    2    0    0 -0.25381580429E+02  0.24465397830E+02  0.72435786340E+02  0.80558819870E+02  0.00000000000E+00 0. -1.
</event>
<event>
 6    1  0.3701283E-005  0.1163081E+03  0.7818608E-02  0.1250309E+00
          2   -1    0    0  502    0  0.00000000000E+00  0.00000000000E+00  0.17828045893E+03  0.17828045893E+03  0.00000000000E+00 0.  1.
          1   -1    0    0  501    0 -0.00000000000E+00 -0.00000000000E+00 -0.20042026951E+03  0.20042026951E+03  0.00000000000E+00 0. -1.
          2    1    1    2  501    0  0.46156279350E+02  0.63910889423E+02  0.63284035132E+02  0.10109338758E+03  0.00000000000E+00 0.  1.
          1    1    1    2  502    0  0.16691288718E+02 -0.14523562862E+02 -0.12013899235E+03  0.12215936509E+03  0.00000000000E+00 0. -1.
         22    1    1    2    0    0 -0.76024507585E+02 -0.84243480494E+02  0.19223046638E+02  0.11509220339E+03  0.00000000000E+00 0.  1.
         22    1    1    2    0    0  0.13176939517E+02  0.34856153932E+02  0.15492099989E+02  0.40355772376E+02  0.00000000000E+00 0.  1.
</event>
<event>
 6    1  0.3701283E-005  0.1150850E+03  0.7818608E-02  0.1257536E+00
          2   -1    0    0  502    0  0.00000000000E+00  0.00000000000E+00  0.42336551252E+02  0.42336551252E+02  0.00000000000E+00 0.  1.
          1   -1    0    0  501    0 -0.00000000000E+00 -0.00000000000E+00 -0.38932960052E+03  0.38932960052E+03  0.00000000000E+00 0. -1.
          2    1    1    2  501    0 -0.28068424154E+02  0.15730275449E+02 -0.72032607213E+02  0.78892170093E+02  0.00000000000E+00 0.  1.
          1    1    1    2  502    0 -0.42713498613E+01 -0.74491523625E+02 -0.12868676430E+03  0.14875320107E+03  0.00000000000E+00 0. -1.
         22    1    1    2    0    0  0.64342979303E+02  0.80824655277E+02 -0.10859474438E+03  0.14988483043E+03  0.00000000000E+00 0.  1.
         22    1    1    2    0    0 -0.32003205288E+02 -0.22063407101E+02 -0.37678933366E+02  0.54135950174E+02  0.00000000000E+00 0.  1.
</event>
<event>
 6    1  0.3701283E-005  0.2367427E+03  0.7818608E-02  0.1121982E+00
          2   -1    0    0  502    0  0.00000000000E+00  0.00000000000E+00  0.29458464717E+03  0.29458464717E+03  0.00000000000E+00 0. -1.
          1   -1    0    0  501    0 -0.00000000000E+00 -0.00000000000E+00 -0.42246127148E+03  0.42246127148E+03  0.00000000000E+00 0. -1.
          2    1    1    2  501    0  0.68782555088E+02 -0.34654282234E+02  0.73959004413E+02  0.10677964926E+03  0.00000000000E+00 0. -1.
          1    1    1    2  502    0 -0.15075543182E+03 -0.30206062284E+02 -0.35630796410E+03  0.38806567963E+03  0.00000000000E+00 0. -1.
         22    1    1    2    0    0  0.24896473909E+02 -0.14044360278E+02  0.11264259477E+03  0.11621287633E+03  0.00000000000E+00 0.  1.
         22    1    1    2    0    0  0.57076402823E+02  0.78904704796E+02  0.41829740619E+02  0.10598771343E+03  0.00000000000E+00 0. -1.
</event>
<event>
 6    1  0.3701283E-005  0.2601077E+03  0.7818608E-02  0.1107079E+00
          2   -1    0    0  502    0  0.00000000000E+00  0.00000000000E+00  0.43192048170E+02  0.43192048170E+02  0.00000000000E+00 0.  1.
          1   -1    0    0  501    0 -0.00000000000E+00 -0.00000000000E+00 -0.15083010404E+04  0.15083010404E+04  0.00000000000E+00 0.  1.
          2    1    1    2  501    0 -0.43452510621E+02  0.54413777471E+02 -0.26572141282E+03  0.27469410094E+03  0.00000000000E+00 0.  1.
          1    1    1    2  502    0  0.29921691255E+02  0.91729582516E+01 -0.11144795732E+04  0.11149189073E+04  0.00000000000E+00 0.  1.
         22    1    1    2    0    0  0.16525954228E+02 -0.98076369177E+02 -0.45342719536E+02  0.10930710667E+03  0.00000000000E+00 0.  1.
         22    1    1    2    0    0 -0.29951348633E+01  0.34489633454E+02 -0.39565286608E+02  0.52572973598E+02  0.00000000000E+00 0.  1.
</event>
<event>
 6    1  0.3701283E-005  0.2777980E+03  0.7818608E-02  0.1096898E+00
          2   -1    0    0  502    0  0.00000000000E+00  0.00000000000E+00  0.15221354901E+04  0.15221354901E+04  0.00000000000E+00 0.  1.
          1   -1    0    0  501    0 -0.00000000000E+00 -0.00000000000E+00 -0.29013975488E+02  0.29013975488E+02  0.00000000000E+00 0.  1.
          2    1    1    2  501    0 -0.61025979478E+02 -0.63749100812E+02  0.30208231605E+03  0.31470914142E+03  0.00000000000E+00 0.  1.
          1    1    1    2  502    0  0.12976063644E+03 -0.57672357996E+02  0.54153984215E+03  0.55984759023E+03  0.00000000000E+00 0.  1.
         22    1    1    2    0    0 -0.10851039386E+02 -0.26724601279E+02  0.71226403644E+02  0.76844973456E+02  0.00000000000E+00 0. -1.
         22    1    1    2    0    0 -0.57883617571E+02  0.14814606009E+03  0.57827295277E+03  0.59974776049E+03  0.00000000000E+00 0.  1.
</event>
<event>
 6    1  0.3701283E-005  0.1770899E+03  0.7818608E-02  0.1170650E+00
          2   -1    0    0  502    0  0.00000000000E+00  0.00000000000E+00  0.17714583349E+03  0.17714583349E+03  0.00000000000E+00 0.  1.
          1   -1    0    0  501    0 -0.00000000000E+00 -0.00000000000E+00 -0.14267458682E+03  0.14267458682E+03  0.00000000000E+00 0.  1.
          2    1    1    2  501    0  0.32473847594E+02  0.37099098836E+01 -0.53325228843E+01  0.33117216206E+02  0.00000000000E+00 0.  1.
          1    1    1    2  502    0 -0.10783538317E+02 -0.17615547946E+02 -0.97056247212E+02  0.99229568935E+02  0.00000000000E+00 0.  1.
         22    1    1    2    0    0 -0.88481041496E+01  0.52434627912E+02  0.97878712295E+01  0.54069229461E+02  0.00000000000E+00 0.  1.
         22    1    1    2    0    0 -0.12842205128E+02 -0.38528989849E+02  0.12707214554E+03  0.13340440571E+03  0.00000000000E+00 0.  1.
</event>
<event>
 6    1  0.3701283E-005  0.3458253E+03  0.7818608E-02  0.1064342E+00
          2   -1    0    0  502    0  0.00000000000E+00  0.00000000000E+00  0.77832271660E+03  0.77832271660E+03  0.00000000000E+00 0. -1.
          1   -1    0    0  501    0 -0.00000000000E+00 -0.00000000000E+00 -0.56864663285E+03  0.56864663285E+03  0.00000000000E+00 0. -1.
          2    1    1    2  501    0  0.21210892744E+02  0.56650448256E+02  0.74690035280E+01  0.60950482133E+02  0.00000000000E+00 0. -1.
          1    1    1    2  502    0  0.87710317364E+02  0.23945896963E+02 -0.52613984050E+03  0.53393785922E+03  0.00000000000E+00 0. -1.
         22    1    1    2    0    0 -0.17262090418E+02  0.27885326619E+02  0.55985294467E+02  0.64883930236E+02  0.00000000000E+00 0. -1.
         22    1    1    2    0    0 -0.91659119690E+02 -0.10848167184E+03  0.67236162625E+03  0.68719707785E+03  0.00000000000E+00 0. -1.
</event>
<event>
 6    1  0.3701283E-005  0.1681681E+03  0.7818608E-02  0.1237771E+00
          2   -1    0    0  502    0  0.00000000000E+00  0.00000000000E+00  0.56150037020E+03  0.56150037020E+03  0.00000000000E+00 0.  1.
          1   -1    0    0  501    0 -0.00000000000E+00 -0.00000000000E+00 -0.17261203822E+03  0.17261203822E+03  0.00000000000E+00 0.  1.
          2    1    1    2  501    0 -0.87388998118E+02  0.66787829111E+01  0.18325025751E+03  0.20313074610E+03  0.00000000000E+00 0.  1.
          1    1    1    2  502    0  0.16373193609E+03  0.64924258303E+01 -0.10069894440E+03  0.19232934225E+03  0.00000000000E+00 0.  1.
         22    1    1    2    0    0  0.42680905027E+01 -0.48389867738E+02  0.16654379947E+03  0.17348381203E+03  0.00000000000E+00 0.  1.
         22    1    1    2    0    0 -0.80611028470E+02  0.35218658997E+02  0.13979321941E+03  0.16516850803E+03  0.00000000000E+00 0. -1.
</event>
<event>
 6    1  0.3701283E-005  0.2407344E+03  0.7818608E-02  0.1119493E+00
          2   -1    0    0  502    0  0.00000000000E+00  0.00000000000E+00  0.34500507988E+03  0.34500507988E+03  0.00000000000E+00 0. -1.
          1   -1    0    0  501    0 -0.00000000000E+00 -0.00000000000E+00 -0.36130325959E+03  0.36130325959E+03  0.00000000000E+00 0. -1.
          2    1    1    2  501    0  0.69868188740E+02  0.18469709576E+03 -0.83980997686E+02  0.21458655352E+03  0.00000000000E+00 0. -1.
          1    1    1    2  502    0 -0.15913594715E+01  0.41715260090E+02 -0.14410277944E+03  0.15002768542E+03  0.00000000000E+00 0. -1.
         22    1    1    2    0    0  0.28700022016E+01  0.13550247269E+02  0.37540917964E-01  0.13850903328E+02  0.00000000000E+00 0.  1.
         22    1    1    2    0    0 -0.71146831470E+02 -0.23996260311E+03  0.21174805649E+03  0.32784319720E+03  0.00000000000E+00 0. -1.
</event>
<event>
 6    1  0.3701283E-005  0.2859638E+03  0.7818608E-02  0.1092475E+00
          2   -1    0    0  502    0  0.00000000000E+00  0.00000000000E+00  0.49760421827E+03  0.49760421827E+03  0.00000000000E+00 0.  1.
          1   -1    0    0  501    0 -0.00000000000E+00 -0.00000000000E+00 -0.26911098461E+03  0.26911098461E+03  0.00000000000E+00 0. -1.
          2    1    1    2  501    0  0.87787551348E+02 -0.77591095092E+02  0.96045114480E+02  0.15149817235E+03  0.00000000000E+00 0.  1.
          1    1    1    2  502    0 -0.32462235703E+02  0.27841861437E+02 -0.22585343750E+03  0.22986679018E+03  0.00000000000E+00 0. -1.
         22    1    1    2    0    0  0.70630605706E+01  0.10305598450E+02 -0.58485524112E+01  0.13794845028E+02  0.00000000000E+00 0.  1.
         22    1    1    2    0    0 -0.62388376215E+02  0.39443635205E+02  0.36415010909E+03  0.37155539533E+03  0.00000000000E+00 0.  1.
</event>
<event>
 6    1  0.3701283E-005  0.8620504E+02  0.7818608E-02  0.1314299E+00
          2   -1    0    0  502    0  0.00000000000E+00  0.00000000000E+00  0.40585516052E+03  0.40585516052E+03  0.00000000000E+00 0. -1.
          1   -1    0    0  501    0 -0.00000000000E+00 -0.00000000000E+00 -0.21176389623E+03  0.21176389623E+03  0.00000000000E+00 0.  1.
          2    1    1    2  501    0 -0.48333688243E+02  0.33610230148E+02  0.10171638284E+01  0.58879772519E+02  0.00000000000E+00 0. -1.
          1    1    1    2  502    0  0.35515355437E+01  0.32874404200E+02 -0.16729135319E+03  0.17052781799E+03  0.00000000000E+00 0.  1.
         22    1    1    2    0    0  0.56111678787E+02 -0.64807842092E+02  0.36567432225E+03  0.37558792159E+03  0.00000000000E+00 0. -1.
         22    1    1    2    0    0 -0.11329526088E+02 -0.16767922554E+01 -0.53088685935E+01  0.12623544645E+02  0.00000000000E+00 0. -1.
</event>
<event>
 6    1  0.4046864E-005  0.3913301E+03  0.7818608E-02  0.1113401E+00
          2   -1    0    0  502    0  0.00000000000E+00  0.00000000000E+00  0.45912606514E+03  0.45912606514E+03  0.00000000000E+00 0.  1.
          1   -1    0    0  501    0 -0.00000000000E+00 -0.00000000000E+00 -0.17413931007E+04  0.17413931007E+04  0.00000000000E+00 0. -1.
          2    1    1    2  501    0  0.31381266180E+03 -0.15819268801E+03 -0.11135146999E+03  0.36864951257E+03  0.00000000000E+00 0.  1.
          1    1    1    2  502    0 -0.32103990944E+03  0.23134556729E+03 -0.14586510332E+04  0.15113736241E+04  0.00000000000E+00 0. -1.
         22    1    1    2    0    0  0.83538685908E+01 -0.81385561393E+01 -0.10232650320E+02  0.15515487393E+02  0.00000000000E+00 0.  1.
         22    1    1    2    0    0 -0.11266209482E+01 -0.65014323139E+02  0.29796811800E+03  0.30498054173E+03  0.00000000000E+00 0.  1.
</event>
<event>
 6    1  0.3701283E-005  0.1850449E+03  0.7818608E-02  0.1163008E+00
          2   -1    0    0  502    0  0.00000000000E+00  0.00000000000E+00  0.13235904548E+03  0.13235904548E+03  0.00000000000E+00 0.  1.
          1   -1    0    0  501    0 -0.00000000000E+00 -0.00000000000E+00 -0.67338409697E+03  0.67338409697E+03  0.00000000000E+00 0.  1.
          2    1    1    2  501    0  0.19079689286E+02 -0.44316325812E+02 -0.70496649625E+01  0.48761347939E+02  0.00000000000E+00 0.  1.
          1    1    1    2  502    0  0.44939438688E+01  0.21608695163E+02 -0.60841044272E+03  0.60881064220E+03  0.00000000000E+00 0.  1.
         22    1    1    2    0    0  0.13934759627E+02 -0.12817160742E+02 -0.27794128765E+02  0.33629908253E+02  0.00000000000E+00 0.  1.
         22    1    1    2    0    0 -0.37508392782E+02  0.35524791392E+02  0.10222918497E+03  0.11454124406E+03  0.00000000000E+00 0.  1.
</event>
<event>
 6    1  0.3701283E-005  0.7152658E+02  0.7818608E-02  0.1356317E+00
          2   -1    0    0  502    0  0.00000000000E+00  0.00000000000E+00  0.14862661819E+03  0.14862661819E+03  0.00000000000E+00 0.  1.
          1   -1    0    0  501    0 -0.00000000000E+00 -0.00000000000E+00 -0.43665681801E+03  0.43665681801E+03  0.00000000000E+00 0.  1.
          2    1    1    2  501    0  0.39739063617E+02  0.25214765551E+02 -0.65846515675E+02  0.80936649335E+02  0.00000000000E+00 0.  1.
          1    1    1    2  502    0 -0.13262649629E+02  0.18006583194E+02 -0.33161155485E+03  0.33236479691E+03  0.00000000000E+00 0.  1.
         22    1    1    2    0    0  0.12128035222E+02  0.15869721786E+02 -0.17625925609E+02  0.26638516504E+02  0.00000000000E+00 0. -1.
         22    1    1    2    0    0 -0.38604449210E+02 -0.59091070531E+02  0.12705379632E+03  0.14534347345E+03  0.00000000000E+00 0.  1.
</event>
<event>
 6    1  0.3701283E-005  0.1556592E+03  0.7818608E-02  0.1225405E+00
          2   -1    0    0  502    0  0.00000000000E+00  0.00000000000E+00  0.73563801241E+03  0.73563801241E+03  0.00000000000E+00 0.  1.
          1   -1    0    0  501    0 -0.00000000000E+00 -0.00000000000E+00 -0.10562492277E+03  0.10562492277E+03  0.00000000000E+00 0. -1.
          2    1    1    2  501    0  0.76009950906E+02 -0.59683476861E+02  0.31084832303E+03  0.32552466877E+03  0.00000000000E+00 0.  1.
          1    1    1    2  502    0 -0.13395754928E+03 -0.21334594028E+02 -0.24891971519E+02  0.13791084133E+03  0.00000000000E+00 0. -1.
         22    1    1    2    0    0 -0.16852071879E+02  0.77204088027E+02  0.20822318501E+03  0.22271362399E+03  0.00000000000E+00 0. -1.
         22    1    1    2    0    0  0.74799670253E+02  0.38139828625E+01  0.13583355312E+03  0.15511380109E+03  0.00000000000E+00 0. -1.
</event>
<event>
 6    1  0.3701283E-005  0.9506811E+02  0.7818608E-02  0.1309609E+00
          2   -1    0    0  502    0  0.00000000000E+00  0.00000000000E+00  0.78334749648E+03  0.78334749648E+03  0.00000000000E+00 0. -1.
          1   -1    0    0  501    0 -0.00000000000E+00 -0.00000000000E+00 -0.64117729663E+03  0.64117729663E+03  0.00000000000E+00 0.  1.
          2    1    1    2  501    0  0.15166496537E+02 -0.55838438360E+02  0.26653174184E+03  0.27274002864E+03  0.00000000000E+00 0. -1.
          1    1    1    2  502    0  0.18517878713E+02  0.89516578483E+02 -0.62605192819E+03  0.63269040331E+03  0.00000000000E+00 0.  1.
         22    1    1    2    0    0 -0.63443975086E+02  0.23039472177E+02  0.29902675498E+03  0.30655008636E+03  0.00000000000E+00 0.  1.
         22    1    1    2    0    0  0.29759599836E+02 -0.56717612301E+02  0.20266363123E+03  0.21254427480E+03  0.00000000000E+00 0.  1.
</event>
<event>
 6    1  0.3701283E-005  0.7415342E+02  0.7818608E-02  0.1350381E+00
          2   -1    0    0  502    0  0.00000000000E+00  0.00000000000E+00  0.17875928795E+03  0.17875928795E+03  0.00000000000E+00 0. -1.
          1   -1    0    0  501    0 -0.00000000000E+00 -0.00000000000E+00 -0.19974173558E+04  0.19974173558E+04  0.00000000000E+00 0. -1.
          2    1    1    2  501    0  0.40902502393E+01 -0.23109443042E+02  0.16844291994E+02  0.28887829228E+02  0.00000000000E+00 0. -1.
          1    1    1    2  502    0  0.18511564355E+02  0.19275476104E+02 -0.19668101929E+04  0.19669917531E+04  0.00000000000E+00 0. -1.
         22    1    1    2    0    0 -0.15189868013E+02  0.58450026535E+02  0.36306456182E+02  0.70464859701E+02  0.00000000000E+00 0. -1.
         22    1    1    2    0    0 -0.74119465813E+01 -0.54616059597E+02  0.95001376878E+02  0.10983220168E+03  0.00000000000E+00 0. -1.
</event>
<event>
 6    1  0.3701283E-005  0.2330486E+03  0.7818608E-02  0.1124512E+00
          2   -1    0    0  502    0  0.00000000000E+00  0.00000000000E+00  0.69869363428E+02  0.69869363428E+02  0.00000000000E+00 0.  1.
          1   -1    0    0  501    0 -0.00000000000E+00 -0.00000000000E+00 -0.12924381870E+04  0.12924381870E+04  0.00000000000E+00 0.  1.
          2    1    1    2  501    0 -0.87260561140E+01 -0.27461206014E+02 -0.11756672318E+03  0.12104625682E+03  0.00000000000E+00 0.  1.
          1    1    1    2  502    0  0.37339075350E+02 -0.37242104214E+02 -0.10956909959E+04  0.10969594065E+04  0.00000000000E+00 0.  1.
         22    1    1    2    0    0 -0.11192803318E+02 -0.14232482270E+02 -0.50449828809E+02  0.53600630823E+02  0.00000000000E+00 0.  1.
         22    1    1    2    0    0 -0.17420215918E+02  0.78935792498E+02  0.41138724335E+02  0.90701256331E+02  0.00000000000E+00 0.  1.
</event>
<event>
 6    1  0.3701283E-005  0.2134240E+03  0.7818608E-02  0.1138883E+00
          2   -1    0    0  502    0  0.00000000000E+00  0.00000000000E+00  0.27836884217E+03  0.27836884217E+03  0.00000000000E+00 0. -1.
          1   -1    0    0  501    0 -0.00000000000E+00 -0.00000000000E+00 -0.10591145660E+03  0.10591145660E+03  0.00000000000E+00 0. -1.
          2    1    1    2  501    0 -0.21783443012E+02  0.13140950670E+02 -0.38547885492E+02  0.46185955115E+02  0.00000000000E+00 0. -1.
          1    1    1    2  502    0  0.74404711805E+01  0.82041704812E+02  0.14810223554E+03  0.16947116012E+03  0.00000000000E+00 0. -1.
         22    1    1    2    0    0 -0.35515224784E+02 -0.38033604768E+02 -0.20467477863E+02  0.55917831978E+02  0.00000000000E+00 0. -1.
         22    1    1    2    0    0  0.49858196616E+02 -0.57149050715E+02  0.83370513385E+02  0.11270535156E+03  0.00000000000E+00 0. -1.
</event>
<event>
 6    1  0.3701283E-005  0.6379759E+02  0.7818608E-02  0.1384271E+00
          2   -1    0    0  502    0  0.00000000000E+00  0.00000000000E+00  0.59136959036E+02  0.59136959036E+02  0.00000000000E+00 0.  1.
          1   -1    0    0  501    0 -0.00000000000E+00 -0.00000000000E+00 -0.17528900044E+04  0.17528900044E+04  0.00000000000E+00 0.  1.
          2    1    1    2  501    0  0.22539146997E+02 -0.61426951963E+02 -0.23031469327E+03  0.23942878171E+03  0.00000000000E+00 0.  1.
          1    1    1    2  502    0 -0.20438570057E+02  0.16628798380E+02 -0.14424814590E+04  0.14427220840E+04  0.00000000000E+00 0.  1.
         22    1    1    2    0    0 -0.36737406770E+00  0.61085903794E+02  0.35798996458E+02  0.70803889395E+02  0.00000000000E+00 0.  1.
         22    1    1    2    0    0 -0.17332028721E+01 -0.16287750211E+02 -0.56755889530E+02  0.59072208317E+02  0.00000000000E+00 0. -1.
</event>
<event>
 6    1  0.3701283E-005  0.1611230E+03  0.7818608E-02  0.1187435E+00
          2   -1    0    0  502    0  0.00000000000E+00  0.00000000000E+00  0.37153568281E+03  0.37153568281E+03  0.00000000000E+00 0.  1.
          1   -1    0    0  501    0 -0.00000000000E+00 -0.00000000000E+00 -0.25178749248E+03  0.25178749248E+03  0.00000000000E+00 0. -1.
          2    1    1    2  501    0 -0.11198577810E+02  0.22166621463E+02  0.89823341666E+02  0.93193347188E+02  0.00000000000E+00 0.  1.
          1    1    1    2  502    0  0.94700903608E+01 -0.69585889903E+02 -0.22880024041E+03  0.23933538956E+03  0.00000000000E+00 0. -1.
         22    1    1    2    0    0  0.18872637148E+02  0.27422294627E+01 -0.73590816104E+01  0.20441436777E+02  0.00000000000E+00 0.  1.
         22    1    1    2    0    0 -0.17144149699E+02  0.44677038977E+02  0.26608417068E+03  0.27035300177E+03  0.00000000000E+00 0. -1.
</event>
<event>
 6    1  0.3701283E-005  0.5462138E+02  0.7818608E-02  0.1425156E+00
          2   -1    0    0  502    0  0.00000000000E+00  0.00000000000E+00  0.21815736983E+02  0.21815736983E+02  0.00000000000E+00 0. -1.
          1   -1    0    0  501    0 -0.00000000000E+00 -0.00000000000E+00 -0.18327592467E+04  0.18327592467E+04  0.00000000000E+00 0. -1.
          2    1    1    2  501    0  0.10734252345E+02 -0.18315128968E+02 -0.10307604338E+03  0.10523943577E+03  0.00000000000E+00 0. -1.
          1    1    1    2  502    0 -0.85830367284E+01  0.21601997640E+02 -0.15413737868E+04  0.15415490474E+04  0.00000000000E+00 0. -1.
         22    1    1    2    0    0 -0.32185328856E+02  0.37186876613E+02 -0.20400794865E+02  0.53244263700E+02  0.00000000000E+00 0. -1.
         22    1    1    2    0    0  0.30034113239E+02 -0.40473745285E+02 -0.14609288465E+03  0.15454223681E+03  0.00000000000E+00 0. -1.
</event>
<event>
 6    1  0.3701283E-005  0.2036586E+03  0.7818608E-02  0.1146688E+00
          2   -1    0    0  502    0  0.00000000000E+00  0.00000000000E+00  0.10137928573E+03  0.10137928573E+03  0.00000000000E+00 0.  1.
          1   -1    0    0  501    0 -0.00000000000E+00 -0.00000000000E+00 -0.25208110693E+03  0.25208110693E+03  0.00000000000E+00 0.  1.
          2    1    1    2  501    0 -0.24666574946E+01  0.45439309722E+02 -0.52535701397E+02  0.69504065986E+02  0.00000000000E+00 0.  1.
          1    1    1    2  502    0  0.31520544835E+02 -0.71677548073E+02 -0.12594638328E+03  0.14830275488E+03  0.00000000000E+00 0.  1.
         22    1    1    2    0    0 -0.51404440319E+02  0.27031644145E+02  0.68126798832E+02  0.89523108685E+02  0.00000000000E+00 0.  1.
         22    1    1    2    0    0  0.22350552978E+02 -0.79340579376E+00 -0.40346535353E+02  0.46130463104E+02  0.00000000000E+00 0. -1.
</event>
<event>
 6    1  0.4070777E-005  0.1753255E+03  0.7818608E-02  0.1172405E+00
          2   -1    0    0  502    0  0.00000000000E+00  0.00000000000E+00  0.19406691049E+03  0.19406691049E+03  0.00000000000E+00 0. -1.
          1   -1    0    0  501    0 -0.00000000000E+00 -0.00000000000E+00 -0.53376619885E+03  0.53376619885E+03  0.00000000000E+00 0.  1.
          2    1    1    2  501    0  0.13341375837E+02  0.19225004824E+02 -0.50661442176E+01  0.23942826419E+02  0.00000000000E+00 0. -1.
          1    1    1    2  502    0  0.27069245309E+02 -0.52044243646E+01 -0.49370465454E+03  0.49447357461E+03  0.00000000000E+00 0.  1.
         22    1    1    2    0    0 -0.32822860124E+02 -0.42193539265E+02  0.62339434980E+01  0.53819113277E+02  0.00000000000E+00 0. -1.
         22    1    1    2    0    0 -0.75877610226E+01  0.28172958805E+02  0.15283756690E+03  0.15559759503E+03  0.00000000000E+00 0.  1.
</event>
<event>
 6    1  0.3701283E-005  0.4405610E+03  0.7818608E-02  0.1030575E+00
          2   -1    0    0  502    0  0.00000000000E+00  0.00000000000E+00  0.10807690481E+04  0.10807690481E+04  0.00000000000E+00 0. -1.
          1   -1    0    0  501    0 -0.00000000000E+00 -0.00000000000E+00 -0.20444522065E+03  0.20444522065E+03  0.00000000000E+00 0. -1.
          2    1    1    2  501    0  0.40708850984E+02 -0.89101754828E+02 -0.11155141831E+03  0.14845892425E+03  0.00000000000E+00 0. -1.
          1    1    1    2  502    0 -0.77173675716E+02  0.27189676813E+03  0.78629345468E+03  0.83554833828E+03  0.00000000000E+00 0. -1.
         22    1    1    2    0    0  0.64648864760E+02 -0.77060409608E+02  0.45039140156E+02  0.11021028350E+03  0.00000000000E+00 0.  1.
         22    1    1    2    0    0 -0.28184040029E+02 -0.10573460370E+03  0.15654265096E+03  0.19099672275E+03  0.00000000000E+00 0. -1.
</event>
<event>
 6    1  0.3701283E-005  0.7408249E+02  0.7818608E-02  0.1364851E+00
          2   -1    0    0  502    0  0.00000000000E+00  0.00000000000E+00  0.61388809350E+03  0.61388809350E+03  0.00000000000E+00 0. -1.
          1   -1    0    0  501    0 -0.00000000000E+00 -0.00000000000E+00 -0.75449947709E+02  0.75449947709E+02  0.00000000000E+00 0. -1.
          2    1    1    2  501    0 -0.10138999997E+02  0.39742871855E+02  0.15014170142E+03  0.15564326420E+03  0.00000000000E+00 0. -1.
          1    1    1    2  502    0  0.40901722990E+02 -0.52887299392E+02 -0.45074367373E+02  0.80633218804E+02  0.00000000000E+00 0. -1.
         22    1    1    2    0    0 -0.20554757981E+02 -0.50508694738E+02  0.30014038983E+03  0.30505389675E+03  0.00000000000E+00 0. -1.
         22    1    1    2    0    0 -0.10207965013E+02  0.63653122275E+02  0.13323042192E+03  0.14800766145E+03  0.00000000000E+00 0. -1.
</event>
<event>
 6    1  0.3701283E-005  0.9160231E+02  0.7818608E-02  0.1339839E+00
          2   -1    0    0  502    0  0.00000000000E+00  0.00000000000E+00  0.56855863725E+02  0.56855863725E+02  0.00000000000E+00 0. -1.
          1   -1    0    0  501    0 -0.00000000000E+00 -0.00000000000E+00 -0.36248945075E+04  0.36248945075E+04  0.00000000000E+00 0.  1.
          2    1    1    2  501    0 -0.30221805633E+02  0.14882363074E+02 -0.17695897908E+03  0.18013695496E+03  0.00000000000E+00 0. -1.
          1    1    1    2  502    0  0.93723811279E+02  0.10486972234E+02 -0.33559616579E+04  0.33572865202E+04  0.00000000000E+00 0.  1.
         22    1    1    2    0    0 -0.36241503438E+02 -0.25187714805E+02  0.42981778773E+02  0.61606013140E+02  0.00000000000E+00 0. -1.
         22    1    1    2    0    0 -0.27260502208E+02 -0.18162050270E+00 -0.78099785610E+02  0.82720882968E+02  0.00000000000E+00 0.  1.
</event>
<event>
 6    1  0.3701283E-005  0.5677105E+03  0.7818608E-02  0.9974758E-01
          2   -1    0    0  502    0  0.00000000000E+00  0.00000000000E+00  0.14352090899E+04  0.14352090899E+04  0.00000000000E+00 0. -1.
          1   -1    0    0  501    0 -0.00000000000E+00 -0.00000000000E+00 -0.13096297928E+03  0.13096297928E+03  0.00000000000E+00 0. -1.
          2    1    1    2  501    0 -0.18300003016E+03 -0.28171179764E+03  0.38784701189E+03  0.51310413426E+03  0.00000000000E+00 0. -1.
          1    1    1    2  502    0  0.10574568121E+03  0.24481829660E+03  0.23449754017E+03  0.35511581744E+03  0.00000000000E+00 0. -1.
         22    1    1    2    0    0 -0.27597208077E+02  0.94572081368E+01  0.60458574969E+02  0.67128860907E+02  0.00000000000E+00 0. -1.
         22    1    1    2    0    0  0.10485155702E+03  0.27436292901E+02  0.62144298360E+03  0.63082325658E+03  0.00000000000E+00 0. -1.
</event>
<event>
 6    1  0.3701283E-005  0.5464637E+03  0.7818608E-02  0.1002316E+00
          2   -1    0    0  502    0  0.00000000000E+00  0.00000000000E+00  0.65777488081E+03  0.65777488081E+03  0.00000000000E+00 0. -1.
          1   -1    0    0  501    0 -0.00000000000E+00 -0.00000000000E+00 -0.42493768807E+03  0.42493768807E+03  0.00000000000E+00 0. -1.
          2    1    1    2  501    0 -0.25519264924E+03 -0.28411647049E+03 -0.40734115881E+02  0.38406343906E+03  0.00000000000E+00 0. -1.
          1    1    1    2  502    0  0.31849941972E+03  0.35748653790E+03  0.24135685952E+03  0.53618246781E+03  0.00000000000E+00 0. -1.
         22    1    1    2    0    0 -0.25922727347E+02 -0.82467416331E+02  0.67950984562E+02  0.10995544030E+03  0.00000000000E+00 0.  1.
         22    1    1    2    0    0 -0.37384043139E+02  0.90973489166E+01 -0.35736535461E+02  0.52511221710E+02  0.00000000000E+00 0.  1.
</event>
<event>
 6    1  0.3701283E-005  0.4405284E+02  0.7818608E-02  0.1503152E+00
          2   -1    0    0  502    0  0.00000000000E+00  0.00000000000E+00  0.42426535262E+02  0.42426535262E+02  0.00000000000E+00 0.  1.
          1   -1    0    0  501    0 -0.00000000000E+00 -0.00000000000E+00 -0.34496653218E+03  0.34496653218E+03  0.00000000000E+00 0. -1.
          2    1    1    2  501    0 -0.44461314818E+01  0.24537254919E+02 -0.64416978591E+02  0.69075263987E+02  0.00000000000E+00 0.  1.
          1    1    1    2  502    0  0.69089143490E+01 -0.34451973486E+02 -0.18200627303E+03  0.18536708175E+03  0.00000000000E+00 0. -1.
         22    1    1    2    0    0  0.14966611601E+02  0.36851096609E+02 -0.82386019578E+02  0.91484747396E+02  0.00000000000E+00 0.  1.
         22    1    1    2    0    0 -0.17429394468E+02 -0.26936378042E+02  0.26269274286E+02  0.41465974305E+02  0.00000000000E+00 0.  1.
</event>
<event>
 6    1  0.3701283E-005  0.7705232E+02  0.7818608E-02  0.1341596E+00
          2   -1    0    0  502    0  0.00000000000E+00  0.00000000000E+00  0.10631949900E+03  0.10631949900E+03  0.00000000000E+00 0. -1.
          1   -1    0    0  501    0 -0.00000000000E+00 -0.00000000000E+00 -0.10078962158E+04  0.10078962158E+04  0.00000000000E+00 0. -1.
          2    1    1    2  501    0  0.25965669511E+01 -0.33156768294E+02  0.54067866105E+01  0.33694907405E+02  0.00000000000E+00 0. -1.
          1    1    1    2  502    0  0.50225047153E+02  0.37534977095E+02 -0.94197263524E+03  0.94405713567E+03  0.00000000000E+00 0. -1.
         22    1    1    2    0    0 -0.46160449241E+02  0.47694220109E+02 -0.10253443029E+02  0.67161438340E+02  0.00000000000E+00 0.  1.
         22    1    1    2    0    0 -0.66611648634E+01 -0.52072428911E+02  0.45242574867E+02  0.69302233374E+02  0.00000000000E+00 0. -1.
</event>
<event>
 6    1  0.3701283E-005  0.8425559E+02  0.7818608E-02  0.1318590E+00
          2   -1    0    0  502    0  0.00000000000E+00  0.00000000000E+00  0.62451365915E+02  0.62451365915E+02  0.00000000000E+00 0. -1.
          1   -1    0    0  501    0 -0.00000000000E+00 -0.00000000000E+00 -0.64233946635E+03  0.64233946635E+03  0.00000000000E+00 0. -1.
          2    1    1    2  501    0 -0.75808632519E+02 -0.12811767646E+02 -0.13139359296E+03  0.15223457697E+03  0.00000000000E+00 0. -1.
          1    1    1    2  502    0  0.15399782620E+02  0.27785382509E+02 -0.41020685382E+03  0.41143510266E+03  0.00000000000E+00 0. -1.
         22    1    1    2    0    0 -0.19551572889E+02 -0.37703618540E+01 -0.55152808479E+02  0.58637120615E+02  0.00000000000E+00 0.  1.
         22    1    1    2    0    0  0.79960422787E+02 -0.11203253009E+02  0.16865154821E+02  0.82484032015E+02  0.00000000000E+00 0. -1.
</event>
<event>
 6    1  0.3701283E-005  0.1745232E+03  0.7818608E-02  0.1173211E+00
          2   -1    0    0  502    0  0.00000000000E+00  0.00000000000E+00  0.70702652756E+02  0.70702652756E+02  0.00000000000E+00 0.  1.
          1   -1    0    0  501    0 -0.00000000000E+00 -0.00000000000E+00 -0.22363485653E+03  0.22363485653E+03  0.00000000000E+00 0.  1.
          2    1    1    2  501    0 -0.20685519401E+02  0.78809226312E+01 -0.69043413525E+02  0.72505121237E+02  0.00000000000E+00 0.  1.
          1    1    1    2  502    0  0.40584449309E+02 -0.50671233757E+02 -0.42362071848E+01  0.65058565212E+02  0.00000000000E+00 0.  1.
         22    1    1    2    0    0 -0.73961674391E+02  0.26539276188E+02 -0.46396001777E+02  0.91253774937E+02  0.00000000000E+00 0.  1.
         22    1    1    2    0    0  0.54062744483E+02  0.16251034938E+02 -0.33256581284E+02  0.65520047896E+02  0.00000000000E+00 0.  1.
</event>
<event>
 6    1  0.3701283E-005  0.1814060E+03  0.7818608E-02  0.1166449E+00
          2   -1    0    0  502    0  0.00000000000E+00  0.00000000000E+00  0.95845488569E+02  0.95845488569E+02  0.00000000000E+00 0. -1.
          1   -1    0    0  501    0 -0.00000000000E+00 -0.00000000000E+00 -0.30977070532E+03  0.30977070532E+03  0.00000000000E+00 0. -1.
          2    1    1    2  501    0 -0.27531703720E+02 -0.24225116303E+02 -0.35992959720E+02  0.51384278909E+02  0.00000000000E+00 0. -1.
          1    1    1    2  502    0  0.20293234421E+02  0.15498007000E+02 -0.22254545296E+03  0.22400554059E+03  0.00000000000E+00 0. -1.
         22    1    1    2    0    0 -0.40615079526E+02  0.60450153379E+01 -0.23217051080E+02  0.47171584203E+02  0.00000000000E+00 0. -1.
         22    1    1    2    0    0  0.47853548825E+02  0.26820939646E+01  0.67830247007E+02  0.83054790182E+02  0.00000000000E+00 0. -1.
</event>
<event>
 6    1  0.3701283E-005  0.2561483E+03  0.7818608E-02  0.1109480E+00
          2   -1    0    0  502    0  0.00000000000E+00  0.00000000000E+00  0.12419035975E+03  0.12419035975E+03  0.00000000000E+00 0.  1.
          1   -1    0    0  501    0 -0.00000000000E+00 -0.00000000000E+00 -0.23324716284E+03  0.23324716284E+03  0.00000000000E+00 0.  1.
          2    1    1    2  501    0  0.56801550441E+02 -0.60256374504E+01  0.54214180919E+02  0.78752154586E+02  0.00000000000E+00 0.  1.
          1    1    1    2  502    0 -0.43374783386E+02  0.68967366921E+02 -0.46313816656E+02  0.93716802907E+02  0.00000000000E+00 0.  1.
         22    1    1    2    0    0 -0.29226996636E+02 -0.68488516962E+02 -0.13875966343E+03  0.15747742214E+03  0.00000000000E+00 0.  1.
         22    1    1    2    0    0  0.15800229580E+02  0.55467874920E+01  0.21802496078E+02  0.27491142965E+02  0.00000000000E+00 0. -1.
</event>
<event>
 6    1  0.3701283E-005  0.2081743E+03  0.7818608E-02  0.1143020E+00
          2   -1    0    0  502    0  0.00000000000E+00  0.00000000000E+00  0.10441228800E+03  0.10441228800E+03  0.00000000000E+00 0.  1.
          1   -1    0    0  501    0 -0.00000000000E+00 -0.00000000000E+00 -0.10554704501E+04  0.10554704501E+04  0.00000000000E+00 0. -1.
          2    1    1    2  501    0  0.40189826420E+02 -0.63375492211E+02 -0.15346961242E+02  0.76597678686E+02  0.00000000000E+00 0.  1.
          1    1    1    2  502    0 -0.16974008623E+02  0.32032111689E+02 -0.95101778773E+03  0.95170846678E+03  0.00000000000E+00 0. -1.
         22    1    1    2    0    0  0.20805609853E+02 -0.34685856232E+02  0.30650180491E+02  0.50748552571E+02  0.00000000000E+00 0. -1.
         22    1    1    2    0    0 -0.44021427651E+02  0.66029236754E+02 -0.15343593641E+02  0.80828040088E+02  0.00000000000E+00 0. -1.
</event>
<event>
 6    1  0.3701283E-005  0.2253223E+03  0.7818608E-02  0.1129976E+00
          2   -1    0    0  502    0  0.00000000000E+00  0.00000000000E+00  0.33530682222E+03  0.33530682222E+03  0.00000000000E+00 0. -1.
          1   -1    0    0  501    0 -0.00000000000E+00 -0.00000000000E+00 -0.88258723376E+02  0.88258723376E+02  0.00000000000E+00 0. -1.
          2    1    1    2  501    0  0.11223124772E+02  0.34916453820E+02 -0.81758069457E+01  0.37576070792E+02  0.00000000000E+00 0. -1.
          1    1    1    2  502    0 -0.10961233132E+03 -0.10456121260E+02  0.38796152679E+02  0.11674474340E+03  0.00000000000E+00 0. -1.
         22    1    1    2    0    0  0.26511757787E+02  0.45264475933E+02  0.38487219675E+02  0.65061602814E+02  0.00000000000E+00 0. -1.
         22    1    1    2    0    0  0.71877448763E+02 -0.69724808492E+02  0.17794053344E+03  0.20418312859E+03  0.00000000000E+00 0. -1.
</event>
<event>
 6    1  0.3701283E-005  0.2044828E+03  0.7818608E-02  0.1146011E+00
          2   -1    0    0  502    0  0.00000000000E+00  0.00000000000E+00  0.13958590263E+03  0.13958590263E+03  0.00000000000E+00 0.  1.
          1   -1    0    0  501    0 -0.00000000000E+00 -0.00000000000E+00 -0.11389425441E+03  0.11389425441E+03  0.00000000000E+00 0.  1.
          2    1    1    2  501    0  0.24763596693E+02  0.33694913289E+02 -0.20550247672E+02  0.46592870508E+02  0.00000000000E+00 0.  1.
          1    1    1    2  502    0  0.41800905094E+02  0.22951570935E+02  0.54576181244E+01  0.47998706968E+02  0.00000000000E+00 0.  1.
         22    1    1    2    0    0 -0.80606424325E+02 -0.44281366825E+02  0.75804959737E+02  0.11918316580E+03  0.00000000000E+00 0.  1.
         22    1    1    2    0    0  0.14041922538E+02 -0.12365117399E+02 -0.35020681963E+02  0.39705413762E+02  0.00000000000E+00 0.  1.
</event>
<event>
 6    1  0.3701283E-005  0.1062912E+03  0.7818608E-02  0.1271072E+00
          2   -1    0    0  502    0  0.00000000000E+00  0.00000000000E+00  0.20968273638E+03  0.20968273638E+03  0.00000000000E+00 0. -1.
          1   -1    0    0  501    0 -0.00000000000E+00 -0.00000000000E+00 -0.17396986340E+03  0.17396986340E+03  0.00000000000E+00 0.  1.
          2    1    1    2  501    0  0.20526269471E+02 -0.23405481978E+02  0.55913926429E+02  0.63996183431E+02  0.00000000000E+00 0. -1.
          1    1    1    2  502    0  0.10800491075E+02 -0.71483767360E+02 -0.11302244766E+03  0.13416651325E+03  0.00000000000E+00 0.  1.
         22    1    1    2    0    0 -0.30660283840E+02  0.11900714340E+03  0.10196733322E+03  0.15968747675E+03  0.00000000000E+00 0. -1.
         22    1    1    2    0    0 -0.66647670606E+00 -0.24117894064E+02 -0.91459390001E+01  0.25802426349E+02  0.00000000000E+00 0. -1.
</event>
<event>
 6    1  0.3701283E-005  0.2023365E+03  0.7818608E-02  0.1147783E+00
          2   -1    0    0  502    0  0.00000000000E+00  0.00000000000E+00  0.22440473508E+03  0.22440473508E+03  0.00000000000E+00 0.  1.
          1   -1    0    0  501    0 -0.00000000000E+00 -0.00000000000E+00 -0.21806835450E+03  0.21806835450E+03  0.00000000000E+00 0.  1.
          2    1    1    2  501    0  0.10738454621E+02  0.27010914981E+02  0.11364394883E+03  0.11730239146E+03  0.00000000000E+00 0.  1.
          1    1    1    2  502    0  0.26272648935E+02 -0.59928183528E+02 -0.16489697956E+03  0.17740533569E+03  0.00000000000E+00 0.  1.
         22    1    1    2    0    0 -0.44449283890E+02  0.42100947436E-02 -0.30184202913E+02  0.53729181657E+02  0.00000000000E+00 0. -1.
         22    1    1    2    0    0  0.74381803329E+01  0.32913058452E+02  0.87773614218E+02  0.94036180783E+02  0.00000000000E+00 0.  1.
</event>
<event>
 6    1  0.3701283E-005  0.7365568E+02  0.7818608E-02  0.1356799E+00
          2   -1    0    0  502    0  0.00000000000E+00  0.00000000000E+00  0.79747637630E+02  0.79747637630E+02  0.00000000000E+00 0. -1.
          1   -1    0    0  501    0 -0.00000000000E+00 -0.00000000000E+00 -0.62321069895E+03  0.62321069895E+03  0.00000000000E+00 0. -1.
          2    1    1    2  501    0 -0.34110174183E+01 -0.23827971044E+02 -0.20138460466E+02  0.31384149404E+02  0.00000000000E+00 0. -1.
          1    1    1    2  502    0  0.33462313454E+02  0.35229317327E+02 -0.54138168269E+03  0.54355768560E+03  0.00000000000E+00 0. -1.
         22    1    1    2    0    0 -0.31772078160E+02 -0.65053050830E+02  0.39025019981E+01  0.72502371649E+02  0.00000000000E+00 0. -1.
         22    1    1    2    0    0  0.17207821241E+01  0.53651704547E+02  0.14154579832E+02  0.55514129933E+02  0.00000000000E+00 0. -1.
</event>
<event>
 6    1  0.6709675E-005  0.9850891E+02  0.7818608E-02  0.1313333E+00
          2   -1    0    0  502    0  0.00000000000E+00  0.00000000000E+00  0.31006425337E+03  0.31006425337E+03  0.00000000000E+00 0. -1.
          1   -1    0    0  501    0 -0.00000000000E+00 -0.00000000000E+00 -0.12316502966E+04  0.12316502966E+04  0.00000000000E+00 0. -1.
          2    1    1    2  501    0 -0.22189555254E+02  0.62859107088E+02 -0.11740671167E+03  0.13501103530E+03  0.00000000000E+00 0. -1.
          1    1    1    2  502    0 -0.28924866647E+02 -0.90704305094E+02 -0.10873595176E+04  0.10915194178E+04  0.00000000000E+00 0. -1.
         22    1    1    2    0    0  0.55784418375E+02  0.10219273180E+02  0.29016698491E+03  0.29565725766E+03  0.00000000000E+00 0. -1.
         22    1    1    2    0    0 -0.46699964736E+01  0.17625924826E+02 -0.69867989039E+01  0.19526839272E+02  0.00000000000E+00 0. -1.
</event>
<event>
 6    1  0.4264639E-005  0.9496031E+03  0.7818608E-02  0.9365615E-01
          2   -1    0    0  502    0  0.00000000000E+00  0.00000000000E+00  0.77311550308E+03  0.77311550308E+03  0.00000000000E+00 0. -1.
          1   -1    0    0  501    0 -0.00000000000E+00 -0.00000000000E+00 -0.11132757938E+04  0.11132757938E+04  0.00000000000E+00 0. -1.
          2    1    1    2  501    0  0.32360651677E+03  0.20645636776E+03 -0.71913584823E+02  0.39053421511E+03  0.00000000000E+00 0. -1.
          1    1    1    2  502    0  0.37131884172E+02 -0.39047438690E+03 -0.75447323965E+03  0.85034045710E+03  0.00000000000E+00 0. -1.
         22    1    1    2    0    0 -0.35898131649E+03  0.15235952618E+03  0.46707824660E+03  0.60847604658E+03  0.00000000000E+00 0. -1.
         22    1    1    2    0    0 -0.17570844551E+01  0.31658492965E+02  0.19148287164E+02  0.37040578072E+02  0.00000000000E+00 0. -1.
</event>
<event>
 6    1  0.3701283E-005  0.1652489E+03  0.7818608E-02  0.1185232E+00
          2   -1    0    0  502    0  0.00000000000E+00  0.00000000000E+00  0.80661271913E+03  0.80661271913E+03  0.00000000000E+00 0. -1.
          1   -1    0    0  501    0 -0.00000000000E+00 -0.00000000000E+00 -0.16393644189E+03  0.16393644189E+03  0.00000000000E+00 0.  1.
          2    1    1    2  501    0 -0.13046975847E+03 -0.71104250947E+02  0.26003729337E+03  0.29949551970E+03  0.00000000000E+00 0. -1.
          1    1    1    2  502    0  0.70340300146E+01  0.42119599454E+02 -0.12565264049E+03  0.13271067891E+03  0.00000000000E+00 0.  1.
         22    1    1    2    0    0 -0.25751295151E+02  0.50647849351E+01  0.77490235327E+02  0.81813921917E+02  0.00000000000E+00 0.  1.
         22    1    1    2    0    0  0.14918702361E+03  0.23919866557E+02  0.43080138902E+03  0.45652904049E+03  0.00000000000E+00 0. -1.
</event>
<event>
 6    1  0.3701283E-005  0.7586628E+02  0.7818608E-02  0.1348013E+00
          2   -1    0    0  502    0  0.00000000000E+00  0.00000000000E+00  0.17044881196E+03  0.17044881196E+03  0.00000000000E+00 0.  1.
          1   -1    0    0  501    0 -0.00000000000E+00 -0.00000000000E+00 -0.50096455349E+03  0.50096455349E+03  0.00000000000E+00 0. -1.
          2    1    1    2  501    0 -0.33797475510E+02 -0.88841016886E+01  0.35599016597E+02  0.49884733099E+02  0.00000000000E+00 0.  1.
          1    1    1    2  502    0  0.37870234289E+02 -0.33138937817E+02 -0.45886099611E+03  0.46161212895E+03  0.00000000000E+00 0. -1.
         22    1    1    2    0    0 -0.53051118715E+02  0.50715380055E+00  0.80909455596E+01  0.53666952606E+02  0.00000000000E+00 0. -1.
         22    1    1    2    0    0  0.48978359937E+02  0.41515885706E+02  0.84655292424E+02  0.10624955079E+03  0.00000000000E+00 0. -1.
</event>
<event>
 6    1  0.3701283E-005  0.7044889E+02  0.7818608E-02  0.1362942E+00
          2   -1    0    0  502    0  0.00000000000E+00  0.00000000000E+00  0.13688339562E+03  0.13688339562E+03  0.00000000000E+00 0.  1.
          1   -1    0    0  501    0 -0.00000000000E+00 -0.00000000000E+00 -0.10791233856E+04  0.10791233856E+04  0.00000000000E+00 0. -1.
          2    1    1    2  501    0  0.17568546295E+02  0.32873028476E+02  0.81591540520E+01  0.38155754677E+02  0.00000000000E+00 0.  1.
          1    1    1    2  502    0 -0.59002395876E+02 -0.43616644494E+01 -0.10251625025E+04  0.10268682795E+04  0.00000000000E+00 0. -1.
         22    1    1    2    0    0  0.34563141665E+02 -0.60939970614E+02  0.90368389056E+02  0.11434481414E+03  0.00000000000E+00 0.  1.
         22    1    1    2    0    0  0.68707079151E+01  0.32428606587E+02 -0.15605030647E+02  0.36637932991E+02  0.00000000000E+00 0. -1.
</event>
<event>
 6    1  0.3701283E-005  0.1609374E+03  0.7818608E-02  0.1187643E+00
          2   -1    0    0  502    0  0.00000000000E+00  0.00000000000E+00  0.27474918807E+03  0.27474918807E+03  0.00000000000E+00 0.  1.
          1   -1    0    0  501    0 -0.00000000000E+00 -0.00000000000E+00 -0.29744991141E+03  0.29744991141E+03  0.00000000000E+00 0.  1.
          2    1    1    2  501    0 -0.15666932675E+02  0.17960046981E+02  0.60120681031E+02  0.64672346135E+02  0.00000000000E+00 0.  1.
          1    1    1    2  502    0 -0.66958685609E+01 -0.71639297374E+02 -0.26873638270E+03  0.27820184573E+03  0.00000000000E+00 0.  1.
         22    1    1    2    0    0 -0.20268900522E+02 -0.10352909086E+02  0.13539156081E+03  0.13729124442E+03  0.00000000000E+00 0.  1.
         22    1    1    2    0    0  0.42631701758E+02  0.64032159479E+02  0.50523417517E+02  0.92033663188E+02  0.00000000000E+00 0. -1.
</event>
<event>
 6    1  0.3701283E-005  0.1478184E+03  0.7818608E-02  0.1230174E+00
          2   -1    0    0  502    0  0.00000000000E+00  0.00000000000E+00  0.29494360500E+03  0.29494360500E+03  0.00000000000E+00 0. -1.
          1   -1    0    0  501    0 -0.00000000000E+00 -0.00000000000E+00 -0.97839562140E+03  0.97839562140E+03  0.00000000000E+00 0.  1.
          2    1    1    2  501    0  0.60514891588E+02  0.80760298060E+02 -0.31641011053E+02  0.10576120001E+03  0.00000000000E+00 0. -1.
          1    1    1    2  502    0 -0.14365443027E+03 -0.55825025498E+02 -0.87970270256E+03  0.89310126732E+03  0.00000000000E+00 0.  1.
         22    1    1    2    0    0  0.75819248524E+02 -0.35199674350E+02  0.24171895609E+03  0.25576479283E+03  0.00000000000E+00 0. -1.
         22    1    1    2    0    0  0.73202901607E+01  0.10264401788E+02 -0.13827258882E+02  0.18711966233E+02  0.00000000000E+00 0. -1.
</event>
<event>
 6    1  0.3701283E-005  0.2417574E+03  0.7818608E-02  0.1118628E+00
          2   -1    0    0  502    0  0.00000000000E+00  0.00000000000E+00  0.56725772212E+02  0.56725772212E+02  0.00000000000E+00 0. -1.
          1   -1    0    0  501    0 -0.00000000000E+00 -0.00000000000E+00 -0.69174076700E+03  0.69174076700E+03  0.00000000000E+00 0.  1.
          2    1    1    2  501    0 -0.42459486387E+02 -0.41258251829E+01  0.33682048503E+01  0.42792233193E+02  0.00000000000E+00 0. -1.
          1    1    1    2  502    0  0.78969060279E+02 -0.98182802683E+02 -0.36450799901E+03  0.38567091745E+03  0.00000000000E+00 0.  1.
         22    1    1    2    0    0 -0.16100658964E+02 -0.84464526864E+01  0.53249028265E+01  0.18945405041E+02  0.00000000000E+00 0. -1.
         22    1    1    2    0    0 -0.20408914928E+02  0.11075508055E+03 -0.27920010345E+03  0.30105798352E+03  0.00000000000E+00 0.  1.
</event>
<event>
 6    1  0.3701283E-005  0.7043384E+02  0.7818608E-02  0.1366866E+00
          2   -1    0    0  502    0  0.00000000000E+00  0.00000000000E+00  0.31321415520E+03  0.31321415520E+03  0.00000000000E+00 0.  1.
          1   -1    0    0  501    0 -0.00000000000E+00 -0.00000000000E+00 -0.16393359746E+03  0.16393359746E+03  0.00000000000E+00 0. -1.
          2    1    1    2  501    0 -0.62359845228E+02 -0.54963075733E+01  0.61912455727E+02  0.88046078095E+02  0.00000000000E+00 0.  1.
          1    1    1    2  502    0  0.35347589738E+02  0.83870861107E+01 -0.13132054731E+03  0.13625300532E+03  0.00000000000E+00 0. -1.
         22    1    1    2    0    0  0.56260025682E+02  0.84241452663E+01  0.21364069313E+03  0.22108483095E+03  0.00000000000E+00 0. -1.
         22    1    1    2    0    0 -0.29247770192E+02 -0.11314923804E+02  0.50479561932E+01  0.31763838301E+02  0.00000000000E+00 0. -1.
</event>
<event>
 6    1  0.4276944E-005  0.1321722E+03  0.7818608E-02  0.1263181E+00
          2   -1    0    0  502    0  0.00000000000E+00  0.00000000000E+00  0.81453585172E+03  0.81453585172E+03  0.00000000000E+00 0. -1.
          1   -1    0    0  501    0 -0.00000000000E+00 -0.00000000000E+00 -0.12739529103E+04  0.12739529103E+04  0.00000000000E+00 0.  1.
          2    1    1    2  501    0 -0.10603433121E+03 -0.23830680454E+02  0.27767693853E+03  0.29818729503E+03  0.00000000000E+00 0. -1.
          1    1    1    2  502    0  0.11206785276E+03  0.31472722849E+02 -0.12537477792E+04  0.12591398770E+04  0.00000000000E+00 0.  1.
         22    1    1    2    0    0  0.47673665823E+02 -0.36835411556E+02  0.30318449319E+03  0.30911237903E+03  0.00000000000E+00 0. -1.
         22    1    1    2    0    0 -0.53707187375E+02  0.29193369161E+02  0.21346928894E+03  0.22204921098E+03  0.00000000000E+00 0.  1.
</event>
<event>
 6    1  0.3701283E-005  0.8661928E+02  0.7818608E-02  0.1345787E+00
          2   -1    0    0  502    0  0.00000000000E+00  0.00000000000E+00  0.22140487766E+03  0.22140487766E+03  0.00000000000E+00 0.  1.
          1   -1    0    0  501    0 -0.00000000000E+00 -0.00000000000E+00 -0.47549876784E+03  0.47549876784E+03  0.00000000000E+00 0.  1.
          2    1    1    2  501    0 -0.27565580242E+02 -0.23726509806E+02  0.20389388779E+02  0.41695751060E+02  0.00000000000E+00 0.  1.
          1    1    1    2  502    0  0.70294699379E+02  0.14743049961E+02 -0.43756805147E+03  0.44342361456E+03  0.00000000000E+00 0.  1.
         22    1    1    2    0    0 -0.87547886060E+02 -0.55227592399E+01  0.11255492650E+03  0.14270159320E+03  0.00000000000E+00 0.  1.
         22    1    1    2    0    0  0.44818766922E+02  0.14506219085E+02  0.50529846012E+02  0.69082686677E+02  0.00000000000E+00 0.  1.
</event>
<event>
 6    1  0.3701283E-005  0.5099869E+02  0.7818608E-02  0.1441996E+00
          2   -1    0    0  502    0  0.00000000000E+00  0.00000000000E+00  0.64473847976E+02  0.64473847976E+02  0.00000000000E+00 0. -1.
          1   -1    0    0  501    0 -0.00000000000E+00 -0.00000000000E+00 -0.52431071786E+03  0.52431071786E+03  0.00000000000E+00 0. -1.
          2    1    1    2  501    0 -0.13671930693E+02 -0.19231422124E+02  0.24729860696E+02  0.34180920055E+02  0.00000000000E+00 0. -1.
          1    1    1    2  502    0 -0.21286703311E+02 -0.49260226751E+01 -0.38517357697E+03  0.38579278613E+03  0.00000000000E+00 0. -1.
         22    1    1    2    0    0 -0.22404785041E+02 -0.12391933190E+02  0.19264027547E+02  0.32041179102E+02  0.00000000000E+00 0.  1.
         22    1    1    2    0    0  0.57363419045E+02  0.36549377989E+02 -0.11865718116E+03  0.13676968054E+03  0.00000000000E+00 0.  1.
</event>
<event>
 6    1  0.3701283E-005  0.1352039E+03  0.7818608E-02  0.1236472E+00
          2   -1    0    0  502    0  0.00000000000E+00  0.00000000000E+00  0.23090260292E+03  0.23090260292E+03  0.00000000000E+00 0. -1.
          1   -1    0    0  501    0 -0.00000000000E+00 -0.00000000000E+00 -0.67756547328E+03  0.67756547328E+03  0.00000000000E+00 0. -1.
          2    1    1    2  501    0  0.58237764960E+02 -0.11244676689E+03 -0.25675567598E+01  0.12665901073E+03  0.00000000000E+00 0. -1.
          1    1    1    2  502    0 -0.10678949594E+03  0.68065049177E+02 -0.57574964352E+03  0.58951208586E+03  0.00000000000E+00 0. -1.
         22    1    1    2    0    0  0.31526265226E+01 -0.40190608413E+02  0.19834112972E+02  0.44929011741E+02  0.00000000000E+00 0. -1.
         22    1    1    2    0    0  0.45399104461E+02  0.84572326131E+02  0.11182021695E+03  0.14736796787E+03  0.00000000000E+00 0. -1.
</event>
<event>
 6    1  0.3701283E-005  0.6196196E+02  0.7818608E-02  0.1392551E+00
          2   -1    0    0  502    0  0.00000000000E+00  0.00000000000E+00  0.40077909629E+03  0.40077909629E+03  0.00000000000E+00 0. -1.
          1   -1    0    0  501    0 -0.00000000000E+00 -0.00000000000E+00 -0.20305094918E+03  0.20305094918E+03  0.00000000000E+00 0. -1.
          2    1    1    2  501    0  0.60377629108E+00  0.21321918682E+02 -0.29373050358E-02  0.21330465787E+02  0.00000000000E+00 0. -1.
          1    1    1    2  502    0  0.72207521400E+01  0.21360800676E+02 -0.18103325139E+03  0.18243207278E+03  0.00000000000E+00 0. -1.
         22    1    1    2    0    0  0.16111441317E+02  0.14474859943E+02  0.64032134321E+01  0.22585421269E+02  0.00000000000E+00 0. -1.
         22    1    1    2    0    0 -0.23935969748E+02 -0.57157579300E+02  0.37236112237E+03  0.37748208564E+03  0.00000000000E+00 0. -1.
</event>
<event>
 6    1  0.3701283E-005  0.9802319E+02  0.7818608E-02  0.1286031E+00
          2   -1    0    0  502    0  0.00000000000E+00  0.00000000000E+00  0.34587397253E+03  0.34587397253E+03  0.00000000000E+00 0.  1.
          1   -1    0    0  501    0 -0.00000000000E+00 -0.00000000000E+00 -0.15096247453E+03  0.15096247453E+03  0.00000000000E+00 0.  1.
          2    1    1    2  501    0  0.79044662587E+02 -0.96857724591E+01 -0.53666814950E+02  0.96031244387E+02  0.00000000000E+00 0.  1.
          1    1    1    2  502    0 -0.62365753754E+02 -0.75624455212E+02 -0.11711201765E+02  0.98720300416E+02  0.00000000000E+00 0.  1.
         22    1    1    2    0    0 -0.31578361390E+02  0.94726918630E+02  0.26554037046E+03  0.28369362059E+03  0.00000000000E+00 0.  1.
         22    1    1    2    0    0  0.14899452558E+02 -0.94166909589E+01 -0.52508557443E+01  0.18391281662E+02  0.00000000000E+00 0. -1.
</event>
<event>
 6    1  0.3701283E-005  0.7771831E+02  0.7818608E-02  0.1336324E+00
          2   -1    0    0  502    0  0.00000000000E+00  0.00000000000E+00  0.22836740824E+03  0.22836740824E+03  0.00000000000E+00 0. -1.
          1   -1    0    0  501    0 -0.00000000000E+00 -0.00000000000E+00 -0.13717851230E+03  0.13717851230E+03  0.00000000000E+00 0. -1.
          2    1    1    2  501    0  0.14258350617E+02 -0.19505174558E+02 -0.15978096979E+02  0.28966393975E+02  0.00000000000E+00 0. -1.
          1    1    1    2  502    0 -0.12357655650E+02 -0.47206422429E+02 -0.85706134580E+02  0.98624030928E+02  0.00000000000E+00 0. -1.
         22    1    1    2    0    0  0.16723032305E+02 -0.16431194918E+02 -0.36782606024E+01  0.23731278452E+02  0.00000000000E+00 0. -1.
         22    1    1    2    0    0 -0.18623727271E+02  0.83142791905E+02  0.19655138810E+03  0.21422421718E+03  0.00000000000E+00 0. -1.
</event>
<event>
 6    1  0.3701283E-005  0.1643224E+03  0.7818608E-02  0.1184490E+00
          2   -1    0    0  502    0  0.00000000000E+00  0.00000000000E+00  0.46452980278E+03  0.46452980278E+03  0.00000000000E+00 0.  1.
          1   -1    0    0  501    0 -0.00000000000E+00 -0.00000000000E+00 -0.21768654151E+03  0.21768654151E+03  0.00000000000E+00 0. -1.
          2    1    1    2  501    0  0.33947846131E+02  0.85796814333E+02  0.35837584113E+02  0.98984251483E+02  0.00000000000E+00 0.  1.
          1    1    1    2  502    0  0.46053842387E+02  0.77809795722E+02 -0.14020774571E+03  0.16683384748E+03  0.00000000000E+00 0. -1.
         22    1    1    2    0    0  0.64092290710E+01  0.19467625207E+02  0.23335621169E+02  0.31058297825E+02  0.00000000000E+00 0. -1.
         22    1    1    2    0    0 -0.86410917589E+02 -0.18307423526E+03  0.32787780170E+03  0.38533994750E+03  0.00000000000E+00 0.  1.
</event>
<event>
 6    1  0.3701283E-005  0.8273648E+02  0.7818608E-02  0.1338907E+00
          2   -1    0    0  502    0  0.00000000000E+00  0.00000000000E+00  0.26363710737E+03  0.26363710737E+03  0.00000000000E+00 0. -1.
          1   -1    0    0  501    0 -0.00000000000E+00 -0.00000000000E+00 -0.10618556653E+03  0.10618556653E+03  0.00000000000E+00 0. -1.
          2    1    1    2  501    0  0.59365205061E+02  0.65104603800E+01 -0.22064653704E+02  0.63666809323E+02  0.00000000000E+00 0. -1.
          1    1    1    2  502    0 -0.69426904814E+02  0.63242382928E+02  0.36192950165E+02  0.10064603197E+03  0.00000000000E+00 0. -1.
         22    1    1    2    0    0 -0.81595406253E+01 -0.60324017711E+02  0.16487538773E+03  0.17575397206E+03  0.00000000000E+00 0. -1.
         22    1    1    2    0    0  0.18221240378E+02 -0.94288255968E+01 -0.21552143354E+02  0.29755860535E+02  0.00000000000E+00 0. -1.
</event>
<event>
 6    1  0.3701283E-005  0.1613925E+03  0.7818608E-02  0.1187134E+00
          2   -1    0    0  502    0  0.00000000000E+00  0.00000000000E+00  0.13143571396E+03  0.13143571396E+03  0.00000000000E+00 0. -1.
          1   -1    0    0  501    0 -0.00000000000E+00 -0.00000000000E+00 -0.15751912312E+03  0.15751912312E+03  0.00000000000E+00 0. -1.
          2    1    1    2  501    0  0.28646627279E+02  0.15177203354E+02  0.10125786111E+01  0.32434581415E+02  0.00000000000E+00 0. -1.
          1    1    1    2  502    0 -0.21027971619E+02  0.61749487278E+01 -0.10643393911E+03  0.10866687157E+03  0.00000000000E+00 0. -1.
         22    1    1    2    0    0 -0.94703855413E+01  0.37806053711E+02 -0.10415142233E+02  0.40341803222E+02  0.00000000000E+00 0. -1.
         22    1    1    2    0    0  0.18517298812E+01 -0.59158205793E+02  0.89753093577E+02  0.10751158088E+03  0.00000000000E+00 0. -1.
</event>
<event>
 6    1  0.3701283E-005  0.1257759E+03  0.7818608E-02  0.1235214E+00
          2   -1    0    0  502    0  0.00000000000E+00  0.00000000000E+00  0.16646311836E+03  0.16646311836E+03  0.00000000000E+00 0. -1.
          1   -1    0    0  501    0 -0.00000000000E+00 -0.00000000000E+00 -0.24141394793E+03  0.24141394793E+03  0.00000000000E+00 0. -1.
          2    1    1    2  501    0 -0.98957773788E+02 -0.10571568287E+02  0.40623978923E+02  0.10749282168E+03  0.00000000000E+00 0. -1.
          1    1    1    2  502    0 -0.32188059348E+01  0.79581606194E+02 -0.97945551021E+02  0.12624152930E+03  0.00000000000E+00 0. -1.
         22    1    1    2    0    0 -0.19721663367E+02  0.11079535662E+02  0.11548868351E+02  0.25398355786E+02  0.00000000000E+00 0.  1.
         22    1    1    2    0    0  0.12189824309E+03 -0.80089573569E+02 -0.29178125820E+02  0.14874435952E+03  0.00000000000E+00 0. -1.
</event>
<event>
 6    1  0.3701283E-005  0.3265034E+03  0.7818608E-02  0.1072695E+00
          2   -1    0    0  502    0  0.00000000000E+00  0.00000000000E+00  0.24090986852E+03  0.24090986852E+03  0.00000000000E+00 0.  1.
          1   -1    0    0  501    0 -0.00000000000E+00 -0.00000000000E+00 -0.32466933600E+03  0.32466933600E+03  0.00000000000E+00 0. -1.
          2    1    1    2  501    0 -0.10463408521E+02  0.51908478659E+02 -0.86579009053E+02  0.10148841256E+03  0.00000000000E+00 0.  1.
          1    1    1    2  502    0 -0.68461518366E+01 -0.20709070780E+02 -0.21323005800E+03  0.21434270000E+03  0.00000000000E+00 0. -1.
         22    1    1    2    0    0  0.34211664748E+02 -0.22465193529E+02  0.22502145892E+03  0.22871331378E+03  0.00000000000E+00 0.  1.
         22    1    1    2    0    0 -0.16902104390E+02 -0.87342143510E+01 -0.89718593433E+01  0.21034778183E+02  0.00000000000E+00 0. -1.
</event>
<event>
 6    1  0.3701283E-005  0.5217521E+03  0.7818608E-02  0.1008252E+00
          2   -1    0    0  502    0  0.00000000000E+00  0.00000000000E+00  0.69551827967E+03  0.69551827967E+03  0.00000000000E+00 0. -1.
          1   -1    0    0  501    0 -0.00000000000E+00 -0.00000000000E+00 -0.28281460986E+03  0.28281460986E+03  0.00000000000E+00 0. -1.
          2    1    1    2  501    0  0.35859212346E+03  0.86272019213E+02  0.14550082443E+03  0.39648664822E+03  0.00000000000E+00 0. -1.
          1    1    1    2  502    0 -0.31829097270E+03 -0.16896818306E+03  0.21956184264E+03  0.42197961198E+03  0.00000000000E+00 0. -1.
         22    1    1    2    0    0 -0.75036463694E+02  0.68377851131E+02  0.30587568454E+01  0.10156454796E+03  0.00000000000E+00 0.  1.
         22    1    1    2    0    0  0.34735312936E+02  0.14318312711E+02  0.44582245887E+02  0.58302081369E+02  0.00000000000E+00 0. -1.
</event>
<event>
 6    1  0.3701283E-005  0.1011526E+03  0.7818608E-02  0.1282713E+00
          2   -1    0    0  502    0  0.00000000000E+00  0.00000000000E+00  0.21607868003E+02  0.21607868003E+02  0.00000000000E+00 0.  1.
          1   -1    0    0  501    0 -0.00000000000E+00 -0.00000000000E+00 -0.15433970531E+04  0.15433970531E+04  0.00000000000E+00 0. -1.
          2    1    1    2  501    0 -0.59217452754E+02  0.83513638477E+01 -0.28365131248E+03  0.28988707984E+03  0.00000000000E+00 0.  1.
          1    1    1    2  502    0  0.87645821944E+01  0.20020465457E+02 -0.98474836985E+03  0.98499085725E+03  0.00000000000E+00 0. -1.
         22    1    1    2    0    0 -0.21707815426E+02  0.31314540670E+02 -0.12848400897E+03  0.13401481362E+03  0.00000000000E+00 0. -1.
         22    1    1    2    0    0  0.72160685987E+02 -0.59686369974E+02 -0.12490549376E+03  0.15611217036E+03  0.00000000000E+00 0.  1.
</event>
<event>
 6    1  0.3701283E-005  0.1080994E+03  0.7818608E-02  0.1268968E+00
          2   -1    0    0  502    0  0.00000000000E+00  0.00000000000E+00  0.45123012532E+02  0.45123012532E+02  0.00000000000E+00 0.  1.
          1   -1    0    0  501    0 -0.00000000000E+00 -0.00000000000E+00 -0.88535097891E+03  0.88535097891E+03  0.00000000000E+00 0. -1.
          2    1    1    2  501    0 -0.81444286794E+02  0.28034251091E+01 -0.12508076399E+03  0.14928572793E+03  0.00000000000E+00 0.  1.
          1    1    1    2  502    0  0.61200615775E+02  0.35386955771E+02 -0.59446806741E+03  0.59865685929E+03  0.00000000000E+00 0. -1.
         22    1    1    2    0    0 -0.52093934666E+02  0.55522035865E+00 -0.29526055344E+02  0.59882169657E+02  0.00000000000E+00 0. -1.
         22    1    1    2    0    0  0.72337605685E+02 -0.38745601239E+02 -0.91153079638E+02  0.12264923456E+03  0.00000000000E+00 0. -1.
</event>
<event>
 6    1  0.3701283E-005  0.7871681E+02  0.7818608E-02  0.1340863E+00
          2   -1    0    0  502    0  0.00000000000E+00  0.00000000000E+00  0.85103310139E+02  0.85103310139E+02  0.00000000000E+00 0. -1.
          1   -1    0    0  501    0 -0.00000000000E+00 -0.00000000000E+00 -0.30199545727E+03  0.30199545727E+03  0.00000000000E+00 0. -1.
          2    1    1    2  501    0 -0.18902389885E+02  0.18991453478E+02 -0.81447968487E+02  0.85742330382E+02  0.00000000000E+00 0. -1.
          1    1    1    2  502    0  0.32023073411E+02 -0.48819096355E+02  0.47119050528E+02  0.75026570776E+02  0.00000000000E+00 0. -1.
         22    1    1    2    0    0  0.58578923673E+02  0.12842889044E+02 -0.77139256491E+02  0.97708213522E+02  0.00000000000E+00 0.  1.
         22    1    1    2    0    0 -0.71699607199E+02  0.16984753834E+02 -0.10542397268E+03  0.12862165273E+03  0.00000000000E+00 0.  1.
</event>
<event>
 6    1  0.3701283E-005  0.1152746E+03  0.7818608E-02  0.1255697E+00
          2   -1    0    0  502    0  0.00000000000E+00  0.00000000000E+00  0.31201693752E+03  0.31201693752E+03  0.00000000000E+00 0.  1.
          1   -1    0    0  501    0 -0.00000000000E+00 -0.00000000000E+00 -0.51912152282E+02  0.51912152282E+02  0.00000000000E+00 0.  1.
          2    1    1    2  501    0 -0.17921959224E+02  0.10279105229E+02  0.18585392004E+02  0.27789807892E+02  0.00000000000E+00 0.  1.
          1    1    1    2  502    0  0.13698373588E+02  0.77181632109E+02  0.11861432971E+03  0.14217597893E+03  0.00000000000E+00 0.  1.
         22    1    1    2    0    0 -0.26843041779E+02 -0.10333231740E+03  0.61146357894E+02  0.12303249081E+03  0.00000000000E+00 0.  1.
         22    1    1    2    0    0  0.31066627415E+02  0.15871580065E+02  0.61758705633E+02  0.70930812163E+02  0.00000000000E+00 0.  1.
</event>
