<event>
 6    1  0.1726037E-005  0.3814140E+02  0.7818608E-02  0.1588767E+00
          2   -1    0    0  502    0  0.00000000000E+00  0.00000000000E+00  0.55173364250E+02  0.55173364250E+02  0.00000000000E+00 0.  1.
          1   -1    0    0  501    0 -0.00000000000E+00 -0.00000000000E+00 -0.34212906909E+03  0.34212906909E+03  0.00000000000E+00 0. -1.
          2    1    1    2  501    0 -0.26503559945E+02 -0.47262073344E+02 -0.13879025356E+02  0.55935405705E+02  0.00000000000E+00 0.  1.
          1    1    1    2  502    0  0.37465214569E+02  0.19193116585E+02 -0.16604517452E+03  0.17129803854E+03  0.00000000000E+00 0. -1.
         22    1    1    2    0    0  0.43963795883E+00  0.26718253365E+02 -0.13616112982E+03  0.13875846503E+03  0.00000000000E+00 0.  1.
         22    1    1    2    0    0 -0.11401292583E+02  0.13507033938E+01  0.29129624860E+02  0.31310524056E+02  0.00000000000E+00 0.  1.
</event>
<event>
 6    1  0.1726037E-005  0.7149403E+02  0.7818608E-02  0.1356819E+00
          2   -1    0    0  502    0  0.00000000000E+00  0.00000000000E+00  0.33131247328E+03  0.33131247328E+03  0.00000000000E+00 0.  1.
          1   -1    0    0  501    0 -0.00000000000E+00 -0.00000000000E+00 -0.36283434625E+02  0.36283434625E+02  0.00000000000E+00 0. -1.
          2    1    1    2  501    0 -0.19694683404E+02 -0.11516853979E+02  0.60002419597E+02  0.64193526445E+02  0.00000000000E+00 0.  1.
          1    1    1    2  502    0  0.33219443068E+02  0.21054809208E+02  0.30832792104E+01  0.39450513295E+02  0.00000000000E+00 0. -1.
         22    1    1    2    0    0  0.15422728636E+02  0.25845424760E+02  0.27264067383E+01  0.30220520070E+02  0.00000000000E+00 0.  1.
         22    1    1    2    0    0 -0.28947488301E+02 -0.35383379989E+02  0.22921693311E+03  0.23373134810E+03  0.00000000000E+00 0. -1.
</event>
<event>
 6    1  0.1726037E-005  0.9421127E+02  0.7818608E-02  0.1410871E+00
          2   -1    0    0  502    0  0.00000000000E+00  0.00000000000E+00  0.85007805634E+02  0.85007805634E+02  0.00000000000E+00 0. -1.
          1   -1    0    0  501    0 -0.00000000000E+00 -0.00000000000E+00 -0.57478469507E+03  0.57478469507E+03  0.00000000000E+00 0.  1.
          2    1    1    2  501    0  0.78413896466E+01 -0.16139401100E+03 -0.18835978411E+03  0.24817115555E+03  0.00000000000E+00 0. -1.
          1    1    1    2  502    0 -0.35016202252E+02  0.99578525414E+02 -0.40504893663E+02  0.11306044204E+03  0.00000000000E+00 0.  1.
         22    1    1    2    0    0  0.35998082905E+02  0.66669886326E+02 -0.27271568522E+03  0.28304519194E+03  0.00000000000E+00 0.  1.
         22    1    1    2    0    0 -0.88232702994E+01 -0.48544007372E+01  0.11803473552E+02  0.15515711172E+02  0.00000000000E+00 0. -1.
</event>
<event>
 6    1  0.1726037E-005  0.3139703E+02  0.7818608E-02  0.1608800E+00
          2   -1    0    0  502    0  0.00000000000E+00  0.00000000000E+00  0.40958817877E+02  0.40958817877E+02  0.00000000000E+00 0. -1.
          1   -1    0    0  501    0 -0.00000000000E+00 -0.00000000000E+00 -0.30499022588E+03  0.30499022588E+03  0.00000000000E+00 0. -1.
          2    1    1    2  501    0  0.71335184816E+01  0.22735393657E+02 -0.61547485976E+02  0.65999077574E+02  0.00000000000E+00 0. -1.
          1    1    1    2  502    0  0.25680648988E+02 -0.21984999872E+02 -0.13159049518E+03  0.13586351377E+03  0.00000000000E+00 0. -1.
         22    1    1    2    0    0 -0.11127336863E+02 -0.20151176821E+02  0.30720684909E+02  0.38388123609E+02  0.00000000000E+00 0. -1.
         22    1    1    2    0    0 -0.21686830607E+02  0.19400783037E+02 -0.10161411176E+03  0.10569832881E+03  0.00000000000E+00 0. -1.
</event>
<event>
 6    1  0.1726037E-005  0.5119970E+02  0.7818608E-02  0.1544705E+00
          2   -1    0    0  502    0  0.00000000000E+00  0.00000000000E+00  0.67504733569E+02  0.67504733569E+02  0.00000000000E+00 0. -1.
          1   -1    0    0  501    0 -0.00000000000E+00 -0.00000000000E+00 -0.14851400887E+03  0.14851400887E+03  0.00000000000E+00 0.  1.
          2    1    1    2  501    0  0.39614639524E+02 -0.10568019595E+02  0.81689734545E+01  0.41805918601E+02  0.00000000000E+00 0. -1.
          1    1    1    2  502    0 -0.10307554444E+02  0.17698115463E+02 -0.26056896383E+02  0.33142583162E+02  0.00000000000E+00 0.  1.
         22    1    1    2    0    0 -0.24351359646E+02  0.35315867734E+01 -0.99677634263E+02  0.10266981832E+03  0.00000000000E+00 0.  1.
         22    1    1    2    0    0 -0.49557254347E+01 -0.10661682642E+02  0.36556281890E+02  0.38400422354E+02  0.00000000000E+00 0. -1.
</event>
<event>
 6    1  0.1726037E-005  0.9659622E+02  0.7818608E-02  0.1418092E+00
          2   -1    0    0  502    0  0.00000000000E+00  0.00000000000E+00  0.12236766533E+03  0.12236766533E+03  0.00000000000E+00 0. -1.
          1   -1    0    0  501    0 -0.00000000000E+00 -0.00000000000E+00 -0.32177669430E+03  0.32177669430E+03  0.00000000000E+00 0. -1.
          2    1    1    2  501    0  0.12025363282E+02 -0.34665524326E+02  0.68125818599E+02  0.77378518328E+02  0.00000000000E+00 0. -1.
          1    1    1    2  502    0 -0.29192220769E+02  0.28138771976E+01 -0.23262557106E+03  0.23446696989E+03  0.00000000000E+00 0. -1.
         22    1    1    2    0    0 -0.29614365753E+01 -0.10043554345E+02  0.41534325729E+02  0.42833903678E+02  0.00000000000E+00 0. -1.
         22    1    1    2    0    0  0.20128294061E+02  0.41895201473E+02 -0.76443602236E+02  0.89464967731E+02  0.00000000000E+00 0.  1.
</event>
<event>
 6    1  0.1726037E-005  0.2645779E+02  0.7818608E-02  0.1678818E+00
          2   -1    0    0  502    0  0.00000000000E+00  0.00000000000E+00  0.18854190412E+03  0.18854190412E+03  0.00000000000E+00 0.  1.
          1   -1    0    0  501    0 -0.00000000000E+00 -0.00000000000E+00 -0.38096575077E+03  0.38096575077E+03  0.00000000000E+00 0.  1.
          2    1    1    2  501    0 -0.16159195401E+02 -0.37772024653E+02  0.12656144569E+03  0.13306256039E+03  0.00000000000E+00 0.  1.
          1    1    1    2  502    0 -0.59313284392E+01  0.22318630354E+02 -0.30263812765E+03  0.30351793723E+03  0.00000000000E+00 0.  1.
         22    1    1    2    0    0  0.12114114851E+02 -0.49494046184E-01  0.56499654008E+02  0.57783779136E+02  0.00000000000E+00 0. -1.
         22    1    1    2    0    0  0.99764089896E+01  0.15502888346E+02 -0.72846818695E+02  0.75143378133E+02  0.00000000000E+00 0.  1.
</event>
<event>
 6    1  0.1726037E-005  0.1869712E+03  0.7818608E-02  0.1229125E+00
          2   -1    0    0  502    0  0.00000000000E+00  0.00000000000E+00  0.29237547969E+03  0.29237547969E+03  0.00000000000E+00 0. -1.
          1   -1    0    0  501    0 -0.00000000000E+00 -0.00000000000E+00 -0.34733403379E+03  0.34733403379E+03  0.00000000000E+00 0. -1.
          2    1    1    2  501    0 -0.19656057297E+03  0.89653265695E+02  0.13492941801E+03  0.25471496764E+03  0.00000000000E+00 0. -1.
          1    1    1    2  502    0  0.13891889940E+03 -0.62282260137E+02 -0.19244151302E+03  0.24537986158E+03  0.00000000000E+00 0. -1.
         22    1    1    2    0    0  0.30339736606E+02 -0.29349388005E+02  0.61516909715E+02  0.74607079922E+02  0.00000000000E+00 0. -1.
         22    1    1    2    0    0  0.27301936965E+02  0.19783824471E+01 -0.58963368814E+02  0.65007604333E+02  0.00000000000E+00 0. -1.
</event>
<event>
 6    1  0.1726037E-005  0.1404474E+03  0.7818608E-02  0.1313470E+00
          2   -1    0    0  502    0  0.00000000000E+00  0.00000000000E+00  0.11417466636E+03  0.11417466636E+03  0.00000000000E+00 0. -1.
          1   -1    0    0  501    0 -0.00000000000E+00 -0.00000000000E+00 -0.22930507113E+03  0.22930507113E+03  0.00000000000E+00 0. -1.
          2    1    1    2  501    0 -0.12564257166E+03 -0.11961539876E+02 -0.23385168593E+02  0.12835887332E+03  0.00000000000E+00 0. -1.
          1    1    1    2  502    0  0.45087194743E+02  0.14220694116E+02 -0.26565640996E+02  0.54229296072E+02  0.00000000000E+00 0. -1.
         22    1    1    2    0    0  0.10006925080E+03 -0.17391602031E+01 -0.86284185580E+02  0.13214325679E+03  0.00000000000E+00 0. -1.
         22    1    1    2    0    0 -0.19513873882E+02 -0.51999403708E+00  0.21104590402E+02  0.28748311319E+02  0.00000000000E+00 0. -1.
</event>
<event>
 6    1  0.1726037E-005  0.5904604E+02  0.7818608E-02  0.1474206E+00
          2   -1    0    0  502    0  0.00000000000E+00  0.00000000000E+00  0.28156259779E+03  0.28156259779E+03  0.00000000000E+00 0.  1.
          1   -1    0    0  501    0 -0.00000000000E+00 -0.00000000000E+00 -0.17496157280E+03  0.17496157280E+03  0.00000000000E+00 0.  1.
          2    1    1    2  501    0  0.19490451853E+02  0.41785390694E+02  0.18674700993E+03  0.19235473040E+03  0.00000000000E+00 0.  1.
          1    1    1    2  502    0 -0.18535364753E+01 -0.36678302901E+02 -0.12471729192E+03  0.13001206254E+03  0.00000000000E+00 0.  1.
         22    1    1    2    0    0 -0.47871865301E+01 -0.20378198634E+02 -0.41136643972E+02  0.46156382135E+02  0.00000000000E+00 0. -1.
         22    1    1    2    0    0 -0.12849728847E+02  0.15271110842E+02  0.85707950945E+02  0.88000995522E+02  0.00000000000E+00 0. -1.
</event>
<event>
 6    1  0.1726037E-005  0.6551682E+02  0.7818608E-02  0.1464992E+00
          2   -1    0    0  502    0  0.00000000000E+00  0.00000000000E+00  0.14355115542E+03  0.14355115542E+03  0.00000000000E+00 0. -1.
          1   -1    0    0  501    0 -0.00000000000E+00 -0.00000000000E+00 -0.13983606330E+03  0.13983606330E+03  0.00000000000E+00 0.  1.
          2    1    1    2  501    0  0.56602216241E+02 -0.37071519362E+02  0.80816104802E+02  0.10540090714E+03  0.00000000000E+00 0. -1.
          1    1    1    2  502    0 -0.16062743088E+02  0.19833754022E+02 -0.28039902150E+02  0.37916033900E+02  0.00000000000E+00 0.  1.
         22    1    1    2    0    0 -0.14689693258E+02 -0.78846952084E+01  0.40354216639E+02  0.43662550396E+02  0.00000000000E+00 0. -1.
         22    1    1    2    0    0 -0.25849779895E+02  0.25122460548E+02 -0.89415327180E+02  0.96407727280E+02  0.00000000000E+00 0.  1.
</event>
<event>
 6    1  0.1726037E-005  0.8324277E+02  0.7818608E-02  0.1406323E+00
          2   -1    0    0  502    0  0.00000000000E+00  0.00000000000E+00  0.96701559283E+02  0.96701559283E+02  0.00000000000E+00 0. -1.
          1   -1    0    0  501    0 -0.00000000000E+00 -0.00000000000E+00 -0.11098248039E+03  0.11098248039E+03  0.00000000000E+00 0. -1.
          2    1    1    2  501    0 -0.14285772957E+02  0.29394718545E+02  0.21312964876E+02  0.39017627544E+02  0.00000000000E+00 0. -1.
          1    1    1    2  502    0 -0.23777929568E+02 -0.10303550020E+02  0.47046764658E+01  0.26337939521E+02  0.00000000000E+00 0. -1.
         22    1    1    2    0    0  0.19297870178E+02 -0.36985258467E+01  0.47411650324E+02  0.51322036917E+02  0.00000000000E+00 0. -1.
         22    1    1    2    0    0  0.18765832348E+02 -0.15392642678E+02 -0.87710212776E+02  0.91006435693E+02  0.00000000000E+00 0. -1.
</event>
<event>
 6    1  0.1726037E-005  0.1544162E+03  0.7818608E-02  0.1297146E+00
          2   -1    0    0  502    0  0.00000000000E+00  0.00000000000E+00  0.55259561560E+02  0.55259561560E+02  0.00000000000E+00 0. -1.
          1   -1    0    0  501    0 -0.00000000000E+00 -0.00000000000E+00 -0.41556647337E+03  0.41556647337E+03  0.00000000000E+00 0. -1.
          2    1    1    2  501    0  0.26521953122E+02 -0.85011403356E+02 -0.56518513464E+02  0.10547366999E+03  0.00000000000E+00 0. -1.
          1    1    1    2  502    0  0.18890104335E+02  0.29478587213E+02 -0.72448132454E+01  0.35753467872E+02  0.00000000000E+00 0. -1.
         22    1    1    2    0    0 -0.31371313447E+02  0.69487495906E+02 -0.29997136764E+03  0.30950846967E+03  0.00000000000E+00 0. -1.
         22    1    1    2    0    0 -0.14040744010E+02 -0.13954679763E+02  0.34277825397E+01  0.20090427391E+02  0.00000000000E+00 0. -1.
</event>
<event>
 6    1  0.1726037E-005  0.4204093E+02  0.7818608E-02  0.1506196E+00
          2   -1    0    0  502    0  0.00000000000E+00  0.00000000000E+00  0.45537499975E+02  0.45537499975E+02  0.00000000000E+00 0.  1.
          1   -1    0    0  501    0 -0.00000000000E+00 -0.00000000000E+00 -0.36156492721E+03  0.36156492721E+03  0.00000000000E+00 0.  1.
          2    1    1    2  501    0  0.30929406147E+02 -0.62241733474E+02 -0.11131112868E+03  0.13122815597E+03  0.00000000000E+00 0.  1.
          1    1    1    2  502    0 -0.30636631055E+02  0.53315109202E+02 -0.84115228311E+02  0.10419441283E+03  0.00000000000E+00 0.  1.
         22    1    1    2    0    0  0.18625485801E+02  0.22000012588E+02 -0.13916933109E+03  0.14212322819E+03  0.00000000000E+00 0.  1.
         22    1    1    2    0    0 -0.18918260894E+02 -0.13073388316E+02  0.18568260850E+02  0.29556630192E+02  0.00000000000E+00 0.  1.
</event>
<event>
 6    1  0.1726037E-005  0.1707497E+03  0.7818608E-02  0.1310861E+00
          2   -1    0    0  502    0  0.00000000000E+00  0.00000000000E+00  0.92682713718E+02  0.92682713718E+02  0.00000000000E+00 0. -1.
          1   -1    0    0  501    0 -0.00000000000E+00 -0.00000000000E+00 -0.68967462269E+03  0.68967462269E+03  0.00000000000E+00 0.  1.
          2    1    1    2  501    0  0.13409942000E+03  0.55151571498E+02 -0.64394127901E+00  0.14499918946E+03  0.00000000000E+00 0. -1.
          1    1    1    2  502    0 -0.43642539472E+02 -0.42804451540E+02 -0.10917752808E+03  0.12512643590E+03  0.00000000000E+00 0.  1.
         22    1    1    2    0    0 -0.36004093043E+01 -0.10803870377E+02  0.50117396835E+01  0.12442029454E+02  0.00000000000E+00 0. -1.
         22    1    1    2    0    0 -0.86856471224E+02 -0.15432495804E+01 -0.49218217929E+03  0.49978968159E+03  0.00000000000E+00 0.  1.
</event>
<event>
 6    1  0.1726037E-005  0.4681975E+02  0.7818608E-02  0.1563960E+00
          2   -1    0    0  502    0  0.00000000000E+00  0.00000000000E+00  0.12857796520E+03  0.12857796520E+03  0.00000000000E+00 0.  1.
          1   -1    0    0  501    0 -0.00000000000E+00 -0.00000000000E+00 -0.10291448349E+03  0.10291448349E+03  0.00000000000E+00 0.  1.
          2    1    1    2  501    0 -0.16420807719E+02  0.24017513079E+02  0.59958857619E+02  0.66644943301E+02  0.00000000000E+00 0.  1.
          1    1    1    2  502    0  0.17866062284E+02 -0.10763626166E+02 -0.27800422391E+02  0.34755076103E+02  0.00000000000E+00 0.  1.
         22    1    1    2    0    0  0.25019972029E+01 -0.24610297181E+02 -0.65426594374E+02  0.69946879621E+02  0.00000000000E+00 0.  1.
         22    1    1    2    0    0 -0.39472517678E+01  0.11356410268E+02  0.58931640858E+02  0.60145549668E+02  0.00000000000E+00 0.  1.
</event>
<event>
 6    1  0.1726037E-005  0.1072279E+03  0.7818608E-02  0.1340580E+00
          2   -1    0    0  502    0  0.00000000000E+00  0.00000000000E+00  0.55291734638E+02  0.55291734638E+02  0.00000000000E+00 0. -1.
          1   -1    0    0  501    0 -0.00000000000E+00 -0.00000000000E+00 -0.14007293518E+04  0.14007293518E+04  0.00000000000E+00 0. -1.
          2    1    1    2  501    0  0.10263956644E+03 -0.84680598695E+02 -0.10033635349E+04  0.10121482439E+04  0.00000000000E+00 0. -1.
          1    1    1    2  502    0  0.16344210154E+01  0.92628934933E+02 -0.22812659776E+03  0.24622050184E+03  0.00000000000E+00 0. -1.
         22    1    1    2    0    0  0.47600756969E+00 -0.27160184044E+02 -0.82127036159E+02  0.86502903123E+02  0.00000000000E+00 0. -1.
         22    1    1    2    0    0 -0.10474999502E+03  0.19211847806E+02 -0.31820448370E+02  0.11114943764E+03  0.00000000000E+00 0. -1.
</event>
<event>
 6    1  0.1726037E-005  0.2315003E+03  0.7818608E-02  0.1157635E+00
          2   -1    0    0  502    0  0.00000000000E+00  0.00000000000E+00  0.45382961938E+03  0.45382961938E+03  0.00000000000E+00 0.  1.
          1   -1    0    0  501    0 -0.00000000000E+00 -0.00000000000E+00 -0.17584354797E+03  0.17584354797E+03  0.00000000000E+00 0.  1.
          2    1    1    2  501    0 -0.18373870820E+02  0.24797248539E+03  0.10912690160E+03  0.27154490107E+03  0.00000000000E+00 0.  1.
          1    1    1    2  502    0 -0.21249245360E+02 -0.75278938642E+02  0.10919779771E+03  0.13432277565E+03  0.00000000000E+00 0.  1.
         22    1    1    2    0    0 -0.39146574261E+02 -0.10014510115E+03  0.18635177700E+02  0.10912728993E+03  0.00000000000E+00 0.  1.
         22    1    1    2    0    0  0.78769690441E+02 -0.72548445603E+02  0.41026194392E+02  0.11467820071E+03  0.00000000000E+00 0.  1.
</event>
<event>
 6    1  0.1726037E-005  0.1425822E+03  0.7818608E-02  0.1331227E+00
          2   -1    0    0  502    0  0.00000000000E+00  0.00000000000E+00  0.97915175937E+02  0.97915175937E+02  0.00000000000E+00 0.  1.
          1   -1    0    0  501    0 -0.00000000000E+00 -0.00000000000E+00 -0.48416050907E+03  0.48416050907E+03  0.00000000000E+00 0. -1.
          2    1    1    2  501    0  0.93339363480E+02  0.90075422609E+02 -0.43330507968E+02  0.13676019689E+03  0.00000000000E+00 0.  1.
          1    1    1    2  502    0 -0.94310040496E+02 -0.65697096181E+02 -0.28446824688E+03  0.30681048820E+03  0.00000000000E+00 0. -1.
         22    1    1    2    0    0  0.13407560852E+02  0.22809717129E+01  0.36581439021E+02  0.39027774736E+02  0.00000000000E+00 0.  1.
         22    1    1    2    0    0 -0.12436883837E+02 -0.26659298141E+02 -0.95028017306E+02  0.99477225183E+02  0.00000000000E+00 0. -1.
</event>
<event>
 6    1  0.1726037E-005  0.2392289E+02  0.7818608E-02  0.1705157E+00
          2   -1    0    0  502    0  0.00000000000E+00  0.00000000000E+00  0.10777861675E+03  0.10777861675E+03  0.00000000000E+00 0.  1.
          1   -1    0    0  501    0 -0.00000000000E+00 -0.00000000000E+00 -0.11782015365E+03  0.11782015365E+03  0.00000000000E+00 0.  1.
          2    1    1    2  501    0 -0.34948582377E+02 -0.15545914803E+02  0.23664658770E+02  0.44978827818E+02  0.00000000000E+00 0.  1.
          1    1    1    2  502    0  0.19968035467E+02 -0.19884644395E+02 -0.42376563814E+02  0.50891007888E+02  0.00000000000E+00 0.  1.
         22    1    1    2    0    0  0.13264112316E+02  0.12016901270E+02  0.65679848009E+02  0.68074848705E+02  0.00000000000E+00 0.  1.
         22    1    1    2    0    0  0.17164345937E+01  0.23413657928E+02 -0.57009479864E+02  0.61654085993E+02  0.00000000000E+00 0.  1.
</event>
<event>
 6    1  0.1726037E-005  0.8301333E+02  0.7818608E-02  0.1408095E+00
          2   -1    0    0  502    0  0.00000000000E+00  0.00000000000E+00  0.70872675866E+02  0.70872675866E+02  0.00000000000E+00 0. -1.
          1   -1    0    0  501    0 -0.00000000000E+00 -0.00000000000E+00 -0.26488314832E+03  0.26488314832E+03  0.00000000000E+00 0.  1.
          2    1    1    2  501    0  0.64416847442E+02  0.29295744125E+01 -0.14833902915E+02  0.66167645540E+02  0.00000000000E+00 0. -1.
          1    1    1    2  502    0 -0.56859270946E+02  0.26526450385E+01 -0.11562597273E+03  0.12887737888E+03  0.00000000000E+00 0.  1.
         22    1    1    2    0    0  0.18471147652E+02  0.54906559550E+01  0.34033278858E+02  0.39110032833E+02  0.00000000000E+00 0. -1.
         22    1    1    2    0    0 -0.26028724148E+02 -0.11072875406E+02 -0.97583875671E+02  0.10160076693E+03  0.00000000000E+00 0.  1.
</event>
<event>
 6    1  0.1726037E-005  0.8123477E+02  0.7818608E-02  0.1424030E+00
          2   -1    0    0  502    0  0.00000000000E+00  0.00000000000E+00  0.28826455905E+03  0.28826455905E+03  0.00000000000E+00 0.  1.
          1   -1    0    0  501    0 -0.00000000000E+00 -0.00000000000E+00 -0.15968352452E+03  0.15968352452E+03  0.00000000000E+00 0. -1.
          2    1    1    2  501    0  0.70604714382E+02  0.11395946048E+01  0.19987438211E+03  0.21198135058E+03  0.00000000000E+00 0.  1.
          1    1    1    2  502    0 -0.53524008036E+02  0.20024717521E+02 -0.86687749441E+02  0.10382954614E+03  0.00000000000E+00 0. -1.
         22    1    1    2    0    0 -0.22361858303E+02 -0.59856970076E+01 -0.55136248163E+02  0.59798721867E+02  0.00000000000E+00 0.  1.
         22    1    1    2    0    0  0.52811519572E+01 -0.15178615118E+02  0.70530650021E+02  0.72338464978E+02  0.00000000000E+00 0.  1.
</event>
<event>
 6    1  0.1726037E-005  0.1113065E+03  0.7818608E-02  0.1307489E+00
          2   -1    0    0  502    0  0.00000000000E+00  0.00000000000E+00  0.27904619309E+03  0.27904619309E+03  0.00000000000E+00 0. -1.
          1   -1    0    0  501    0 -0.00000000000E+00 -0.00000000000E+00 -0.11610393836E+03  0.11610393836E+03  0.00000000000E+00 0. -1.
          2    1    1    2  501    0 -0.81470658178E+02  0.23824308673E+02  0.16289395243E+03  0.18368316625E+03  0.00000000000E+00 0. -1.
          1    1    1    2  502    0  0.62468687058E+02 -0.41283846007E+02 -0.21509297904E+02  0.77905986292E+02  0.00000000000E+00 0. -1.
         22    1    1    2    0    0  0.19252341427E+02 -0.26249754345E+02 -0.44021270340E+02  0.54750109552E+02  0.00000000000E+00 0. -1.
         22    1    1    2    0    0 -0.25037030755E+00  0.43709291679E+02  0.65578870548E+02  0.78810869344E+02  0.00000000000E+00 0. -1.
</event>
<event>
 6    1  0.1726037E-005  0.8302191E+02  0.7818608E-02  0.1427357E+00
          2   -1    0    0  502    0  0.00000000000E+00  0.00000000000E+00  0.19370481002E+03  0.19370481002E+03  0.00000000000E+00 0.  1.
          1   -1    0    0  501    0 -0.00000000000E+00 -0.00000000000E+00 -0.87964997564E+02  0.87964997564E+02  0.00000000000E+00 0.  1.
          2    1    1    2  501    0 -0.48121363475E+02  0.47859381599E+02  0.10208484987E+03  0.12258671462E+03  0.00000000000E+00 0.  1.
          1    1    1    2  502    0  0.16677791972E+02 -0.13051728732E+02 -0.19186582229E+01  0.21264468423E+02  0.00000000000E+00 0.  1.
         22    1    1    2    0    0  0.36139257041E+02 -0.48325640976E+02 -0.51281049775E+02  0.79190653117E+02  0.00000000000E+00 0.  1.
         22    1    1    2    0    0 -0.46956855375E+01  0.13517988109E+02  0.56854670584E+02  0.58627971416E+02  0.00000000000E+00 0. -1.
</event>
<event>
 6    1  0.1726037E-005  0.4956494E+02  0.7818608E-02  0.1561999E+00
          2   -1    0    0  502    0  0.00000000000E+00  0.00000000000E+00  0.13547280927E+03  0.13547280927E+03  0.00000000000E+00 0.  1.
          1   -1    0    0  501    0 -0.00000000000E+00 -0.00000000000E+00 -0.18509478591E+03  0.18509478591E+03  0.00000000000E+00 0.  1.
          2    1    1    2  501    0 -0.21939147897E+02  0.31120353618E+02  0.64330101522E+02  0.74754027193E+02  0.00000000000E+00 0.  1.
          1    1    1    2  502    0  0.13682080713E+02 -0.27043132303E+02 -0.11401697959E+03  0.11797627716E+03  0.00000000000E+00 0.  1.
         22    1    1    2    0    0  0.16861685770E+02 -0.98967233236E+01 -0.61948137246E+02  0.64960243902E+02  0.00000000000E+00 0.  1.
         22    1    1    2    0    0 -0.86046185862E+01  0.58195020078E+01  0.62013038672E+02  0.62877046925E+02  0.00000000000E+00 0.  1.
</event>
<event>
 6    1  0.1726037E-005  0.6458665E+02  0.7818608E-02  0.1484486E+00
          2   -1    0    0  502    0  0.00000000000E+00  0.00000000000E+00  0.12680073436E+03  0.12680073436E+03  0.00000000000E+00 0. -1.
          1   -1    0    0  501    0 -0.00000000000E+00 -0.00000000000E+00 -0.17860713388E+03  0.17860713388E+03  0.00000000000E+00 0. -1.
          2    1    1    2  501    0  0.49441540315E+02 -0.33923316216E+01  0.44186343678E+02  0.66395834133E+02  0.00000000000E+00 0. -1.
          1    1    1    2  502    0 -0.49309875617E+02  0.10124855397E+02 -0.10672785565E+03  0.11800343936E+03  0.00000000000E+00 0. -1.
         22    1    1    2    0    0  0.12955088674E+02 -0.24597882261E+01  0.64333219903E+02  0.65670755011E+02  0.00000000000E+00 0.  1.
         22    1    1    2    0    0 -0.13086753372E+02 -0.42727355495E+01 -0.53598107459E+02  0.55337839731E+02  0.00000000000E+00 0. -1.
</event>
<event>
 6    1  0.1726037E-005  0.3438168E+02  0.7818608E-02  0.1592113E+00
          2   -1    0    0  502    0  0.00000000000E+00  0.00000000000E+00  0.11042942010E+03  0.11042942010E+03  0.00000000000E+00 0.  1.
          1   -1    0    0  501    0 -0.00000000000E+00 -0.00000000000E+00 -0.29591016416E+03  0.29591016416E+03  0.00000000000E+00 0.  1.
          2    1    1    2  501    0 -0.34100843162E+02  0.37969791888E+02 -0.12582483415E+02  0.52563214221E+02  0.00000000000E+00 0.  1.
          1    1    1    2  502    0  0.46441045247E+02 -0.35166952654E+02 -0.21223862299E+03  0.22008797861E+03  0.00000000000E+00 0.  1.
         22    1    1    2    0    0 -0.15142140107E+02 -0.16369412706E+02  0.84010509031E+02  0.86919547324E+02  0.00000000000E+00 0. -1.
         22    1    1    2    0    0  0.28019380220E+01  0.13566573471E+02 -0.44670146697E+02  0.46768844099E+02  0.00000000000E+00 0.  1.
</event>
<event>
 6    1  0.1726037E-005  0.3228298E+02  0.7818608E-02  0.1581997E+00
          2   -1    0    0  502    0  0.00000000000E+00  0.00000000000E+00  0.27212876832E+03  0.27212876832E+03  0.00000000000E+00 0.  1.
          1   -1    0    0  501    0 -0.00000000000E+00 -0.00000000000E+00 -0.36579798817E+03  0.36579798817E+03  0.00000000000E+00 0. -1.
          2    1    1    2  501    0  0.45761268175E+02 -0.14628361109E+02  0.22254187478E+03  0.22766854996E+03  0.00000000000E+00 0.  1.
          1    1    1    2  502    0 -0.72550090238E+02 -0.50764028117E+01 -0.25532754175E+03  0.26548340633E+03  0.00000000000E+00 0. -1.
         22    1    1    2    0    0  0.13300345412E+02  0.11309687807E+02 -0.10054501573E+03  0.10204953903E+03  0.00000000000E+00 0. -1.
         22    1    1    2    0    0  0.13488476651E+02  0.83950761138E+01  0.39661462860E+02  0.42725261164E+02  0.00000000000E+00 0.  1.
</event>
<event>
 6    1  0.1726037E-005  0.1443033E+03  0.7818608E-02  0.1305135E+00
          2   -1    0    0  502    0  0.00000000000E+00  0.00000000000E+00  0.43011614233E+03  0.43011614233E+03  0.00000000000E+00 0.  1.
          1   -1    0    0  501    0 -0.00000000000E+00 -0.00000000000E+00 -0.85708030607E+03  0.85708030607E+03  0.00000000000E+00 0. -1.
          2    1    1    2  501    0  0.17928047131E+02  0.14613536018E+03  0.36436719024E+03  0.39298906816E+03  0.00000000000E+00 0.  1.
          1    1    1    2  502    0 -0.53919188977E+01 -0.11887327481E+03 -0.75090658592E+03  0.76027667927E+03  0.00000000000E+00 0. -1.
         22    1    1    2    0    0 -0.20065592400E+02 -0.59880562918E+01  0.42828239278E+02  0.47673293322E+02  0.00000000000E+00 0.  1.
         22    1    1    2    0    0  0.75294641670E+01 -0.21274029084E+02 -0.83253007337E+02  0.86257407651E+02  0.00000000000E+00 0. -1.
</event>
<event>
 6    1  0.1726037E-005  0.3399515E+03  0.7818608E-02  0.1156976E+00
          2   -1    0    0  502    0  0.00000000000E+00  0.00000000000E+00  0.25501644848E+03  0.25501644848E+03  0.00000000000E+00 0. -1.
          1   -1    0    0  501    0 -0.00000000000E+00 -0.00000000000E+00 -0.31673353146E+03  0.31673353146E+03  0.00000000000E+00 0. -1.
          2    1    1    2  501    0  0.80780892384E+02 -0.82045874243E+02 -0.14316298720E+02  0.11602600770E+03  0.00000000000E+00 0. -1.
          1    1    1    2  502    0 -0.15968618738E+03  0.49748122324E+02 -0.18790441190E+03  0.25156037472E+03  0.00000000000E+00 0. -1.
         22    1    1    2    0    0  0.30296170294E+01 -0.34208921768E+02  0.78637476121E+02  0.85809565658E+02  0.00000000000E+00 0. -1.
         22    1    1    2    0    0  0.75875677966E+02  0.66506673687E+02  0.61866151526E+02  0.11835403186E+03  0.00000000000E+00 0. -1.
</event>
<event>
 6    1  0.1726037E-005  0.9256335E+02  0.7818608E-02  0.1426033E+00
          2   -1    0    0  502    0  0.00000000000E+00  0.00000000000E+00  0.77983795906E+02  0.77983795906E+02  0.00000000000E+00 0.  1.
          1   -1    0    0  501    0 -0.00000000000E+00 -0.00000000000E+00 -0.45847535968E+03  0.45847535968E+03  0.00000000000E+00 0.  1.
          2    1    1    2  501    0 -0.28898641892E+02 -0.84447780222E+02  0.77015441364E+01  0.89587236087E+02  0.00000000000E+00 0.  1.
          1    1    1    2  502    0  0.20296357277E+02  0.58901610139E+02 -0.25613115923E+03  0.26359915122E+03  0.00000000000E+00 0.  1.
         22    1    1    2    0    0  0.18888628971E+02  0.23267070306E+02 -0.15508470214E+03  0.15795379610E+03  0.00000000000E+00 0. -1.
         22    1    1    2    0    0 -0.10286344356E+02  0.22790997772E+01  0.23022753452E+02  0.25318972185E+02  0.00000000000E+00 0. -1.
</event>
<event>
 6    1  0.1726037E-005  0.1112353E+03  0.7818608E-02  0.1319694E+00
          2   -1    0    0  502    0  0.00000000000E+00  0.00000000000E+00  0.17009901149E+03  0.17009901149E+03  0.00000000000E+00 0. -1.
          1   -1    0    0  501    0 -0.00000000000E+00 -0.00000000000E+00 -0.19218773646E+03  0.19218773646E+03  0.00000000000E+00 0. -1.
          2    1    1    2  501    0 -0.95780118725E+01  0.87120184510E+02 -0.23710637477E+02  0.90795700284E+02  0.00000000000E+00 0. -1.
          1    1    1    2  502    0  0.19366649843E+02 -0.95772182418E+02 -0.75617133216E+02  0.12355293961E+03  0.00000000000E+00 0. -1.
         22    1    1    2    0    0  0.30182405698E+01  0.35006326434E+02  0.10305893659E+03  0.10888386969E+03  0.00000000000E+00 0. -1.
         22    1    1    2    0    0 -0.12806878540E+02 -0.26354328525E+02 -0.25819890866E+02  0.39054238365E+02  0.00000000000E+00 0. -1.
</event>
<event>
 6    1  0.1726037E-005  0.7312751E+02  0.7818608E-02  0.1385774E+00
          2   -1    0    0  502    0  0.00000000000E+00  0.00000000000E+00  0.25406871395E+03  0.25406871395E+03  0.00000000000E+00 0. -1.
          1   -1    0    0  501    0 -0.00000000000E+00 -0.00000000000E+00 -0.22798233412E+03  0.22798233412E+03  0.00000000000E+00 0.  1.
          2    1    1    2  501    0  0.66611944151E+02  0.14240282065E+02  0.93844112030E+02  0.11595970895E+03  0.00000000000E+00 0. -1.
          1    1    1    2  502    0 -0.41711595051E+02 -0.42000341611E+02 -0.18197176129E+03  0.19135727779E+03  0.00000000000E+00 0.  1.
         22    1    1    2    0    0 -0.15099812354E+02  0.37263474406E+02  0.13994483570E+03  0.14560607095E+03  0.00000000000E+00 0. -1.
         22    1    1    2    0    0 -0.98005367459E+01 -0.95034148597E+01 -0.25730806611E+02  0.29127990376E+02  0.00000000000E+00 0.  1.
</event>
<event>
 6    1  0.1726037E-005  0.7332592E+02  0.7818608E-02  0.1365199E+00
          2   -1    0    0  502    0  0.00000000000E+00  0.00000000000E+00  0.37798463267E+02  0.37798463267E+02  0.00000000000E+00 0. -1.
          1   -1    0    0  501    0 -0.00000000000E+00 -0.00000000000E+00 -0.78735850420E+03  0.78735850420E+03  0.00000000000E+00 0. -1.
          2    1    1    2  501    0 -0.57118568605E+02 -0.82685171909E+02 -0.18362229070E+03  0.20932394554E+03  0.00000000000E+00 0. -1.
          1    1    1    2  502    0 -0.33880051806E+02  0.70885976575E+02 -0.28968473508E+03  0.30014983812E+03  0.00000000000E+00 0. -1.
         22    1    1    2    0    0  0.42209246986E+02 -0.26742053353E+02 -0.23176552634E+02  0.55080945350E+02  0.00000000000E+00 0. -1.
         22    1    1    2    0    0  0.48789373424E+02  0.38541248687E+02 -0.25307646252E+03  0.26060223846E+03  0.00000000000E+00 0. -1.
</event>
<event>
 6    1  0.1726037E-005  0.9042229E+02  0.7818608E-02  0.1303644E+00
          2   -1    0    0  502    0  0.00000000000E+00  0.00000000000E+00  0.14159676851E+03  0.14159676851E+03  0.00000000000E+00 0. -1.
          1   -1    0    0  501    0 -0.00000000000E+00 -0.00000000000E+00 -0.27015552607E+03  0.27015552607E+03  0.00000000000E+00 0. -1.
          2    1    1    2  501    0 -0.61099796162E+02 -0.39984350560E+02 -0.10982854614E+03  0.13188723566E+03  0.00000000000E+00 0. -1.
          1    1    1    2  502    0  0.49366306190E+02  0.10545429240E+03 -0.63467926246E+02  0.13261152904E+03  0.00000000000E+00 0. -1.
         22    1    1    2    0    0 -0.21749336197E+01  0.25410779942E+02 -0.21971436442E+02  0.33662770130E+02  0.00000000000E+00 0. -1.
         22    1    1    2    0    0  0.13908423592E+02 -0.90880721784E+02  0.66709151264E+02  0.11359075975E+03  0.00000000000E+00 0. -1.
</event>
<event>
 6    1  0.1726037E-005  0.1416127E+03  0.7818608E-02  0.1275209E+00
          2   -1    0    0  502    0  0.00000000000E+00  0.00000000000E+00  0.30290930486E+03  0.30290930486E+03  0.00000000000E+00 0.  1.
          1   -1    0    0  501    0 -0.00000000000E+00 -0.00000000000E+00 -0.11244236112E+03  0.11244236112E+03  0.00000000000E+00 0.  1.
          2    1    1    2  501    0  0.10901438438E+03  0.45466062240E+02  0.31445016115E+02  0.12222965212E+03  0.00000000000E+00 0.  1.
          1    1    1    2  502    0 -0.55120737664E+02 -0.70313249627E+02  0.69318656818E+01  0.89611938688E+02  0.00000000000E+00 0.  1.
         22    1    1    2    0    0  0.10146086188E+02  0.37455053252E+02  0.12830096619E+03  0.13404089676E+03  0.00000000000E+00 0.  1.
         22    1    1    2    0    0 -0.64039732908E+02 -0.12607865866E+02  0.23789095746E+02  0.69469178410E+02  0.00000000000E+00 0.  1.
</event>
<event>
 6    1  0.1726037E-005  0.3410039E+02  0.7818608E-02  0.1623713E+00
          2   -1    0    0  502    0  0.00000000000E+00  0.00000000000E+00  0.39120689362E+03  0.39120689362E+03  0.00000000000E+00 0.  1.
          1   -1    0    0  501    0 -0.00000000000E+00 -0.00000000000E+00 -0.43141179950E+02  0.43141179950E+02  0.00000000000E+00 0. -1.
          2    1    1    2  501    0 -0.29645801737E+02 -0.30191804453E+02  0.23010867822E+03  0.23396671218E+03  0.00000000000E+00 0.  1.
          1    1    1    2  502    0  0.14859076864E+02  0.17761427943E+02 -0.32371146262E+01  0.23382459215E+02  0.00000000000E+00 0. -1.
         22    1    1    2    0    0 -0.14213288543E+02  0.50129095563E+01 -0.24225139721E+02  0.28530759330E+02  0.00000000000E+00 0. -1.
         22    1    1    2    0    0  0.29000013417E+02  0.74174669531E+01  0.14541928980E+03  0.14846814284E+03  0.00000000000E+00 0.  1.
</event>
<event>
 6    1  0.1726037E-005  0.6338307E+02  0.7818608E-02  0.1442017E+00
          2   -1    0    0  502    0  0.00000000000E+00  0.00000000000E+00  0.10893457103E+04  0.10893457103E+04  0.00000000000E+00 0. -1.
          1   -1    0    0  501    0 -0.00000000000E+00 -0.00000000000E+00 -0.35059834542E+02  0.35059834542E+02  0.00000000000E+00 0. -1.
          2    1    1    2  501    0 -0.10159927334E+02 -0.71290777601E+02  0.87781906412E+03  0.88076779484E+03  0.00000000000E+00 0. -1.
          1    1    1    2  502    0 -0.16773490078E+02  0.26564606152E+02  0.55078314711E+02  0.63408587911E+02  0.00000000000E+00 0. -1.
         22    1    1    2    0    0 -0.18153135222E+02  0.18316843236E+02 -0.17946795160E+02  0.31418633342E+02  0.00000000000E+00 0.  1.
         22    1    1    2    0    0  0.45086552635E+02  0.26409328213E+02  0.13933529206E+03  0.14881052872E+03  0.00000000000E+00 0. -1.
</event>
<event>
 6    1  0.1726037E-005  0.5070687E+02  0.7818608E-02  0.1502263E+00
          2   -1    0    0  502    0  0.00000000000E+00  0.00000000000E+00  0.37800445915E+03  0.37800445915E+03  0.00000000000E+00 0. -1.
          1   -1    0    0  501    0 -0.00000000000E+00 -0.00000000000E+00 -0.10332855276E+03  0.10332855276E+03  0.00000000000E+00 0. -1.
          2    1    1    2  501    0 -0.30229591410E+02  0.42383393390E+02  0.26614168116E+03  0.27118549866E+03  0.00000000000E+00 0. -1.
          1    1    1    2  502    0  0.89130928427E+01 -0.37179832027E+02 -0.58072356528E+02  0.69528280047E+02  0.00000000000E+00 0. -1.
         22    1    1    2    0    0  0.20708099601E+02  0.49674465511E+01  0.10178811212E+03  0.10399192605E+03  0.00000000000E+00 0. -1.
         22    1    1    2    0    0  0.60839896553E+00 -0.10171007915E+02 -0.35181530356E+02  0.36627307156E+02  0.00000000000E+00 0.  1.
</event>
<event>
 6    1  0.1726037E-005  0.6621831E+02  0.7818608E-02  0.1460127E+00
          2   -1    0    0  502    0  0.00000000000E+00  0.00000000000E+00  0.81939410531E+02  0.81939410531E+02  0.00000000000E+00 0. -1.
          1   -1    0    0  501    0 -0.00000000000E+00 -0.00000000000E+00 -0.34704644028E+03  0.34704644028E+03  0.00000000000E+00 0.  1.
          2    1    1    2  501    0 -0.41747372921E+01 -0.61555316522E+02 -0.70652458015E+02  0.93799015172E+02  0.00000000000E+00 0. -1.
          1    1    1    2  502    0 -0.43055691328E+01  0.51003978995E+02 -0.20112263402E+03  0.20753375078E+03  0.00000000000E+00 0.  1.
         22    1    1    2    0    0  0.16887736526E+02 -0.38721351450E+01  0.64849307699E+02  0.67123928555E+02  0.00000000000E+00 0. -1.
         22    1    1    2    0    0 -0.84074301015E+01  0.14423472672E+02 -0.58181245418E+02  0.60529156307E+02  0.00000000000E+00 0.  1.
</event>
<event>
 6    1  0.1726037E-005  0.1654184E+03  0.7818608E-02  0.1256624E+00
          2   -1    0    0  502    0  0.00000000000E+00  0.00000000000E+00  0.23116955812E+03  0.23116955812E+03  0.00000000000E+00 0.  1.
          1   -1    0    0  501    0 -0.00000000000E+00 -0.00000000000E+00 -0.12940482806E+03  0.12940482806E+03  0.00000000000E+00 0.  1.
          2    1    1    2  501    0 -0.79626013252E+02  0.91121169229E+02  0.81045461251E+02  0.14564249468E+03  0.00000000000E+00 0.  1.
          1    1    1    2  502    0  0.68102054146E+02 -0.34653914258E+02  0.28311497441E+02  0.81488185890E+02  0.00000000000E+00 0.  1.
         22    1    1    2    0    0  0.33453806693E+02  0.10153259442E+02  0.36544973496E+02  0.50574508869E+02  0.00000000000E+00 0.  1.
         22    1    1    2    0    0 -0.21929847587E+02 -0.66620514413E+02 -0.44137202131E+02  0.82869196737E+02  0.00000000000E+00 0.  1.
</event>
<event>
 6    1  0.1726037E-005  0.3957172E+02  0.7818608E-02  0.1595199E+00
          2   -1    0    0  502    0  0.00000000000E+00  0.00000000000E+00  0.38712781419E+02  0.38712781419E+02  0.00000000000E+00 0. -1.
          1   -1    0    0  501    0 -0.00000000000E+00 -0.00000000000E+00 -0.29069472251E+03  0.29069472251E+03  0.00000000000E+00 0.  1.
          2    1    1    2  501    0  0.21003416417E+02  0.20396407205E+02 -0.59965528107E+02  0.66730963497E+02  0.00000000000E+00 0. -1.
          1    1    1    2  502    0 -0.47768091453E+02 -0.48256861993E+01 -0.85182329900E+02  0.97780913963E+02  0.00000000000E+00 0.  1.
         22    1    1    2    0    0  0.29247451664E+02 -0.28877338080E+02 -0.13094547127E+03  0.13724441894E+03  0.00000000000E+00 0.  1.
         22    1    1    2    0    0 -0.24827766283E+01  0.13306617074E+02  0.24111388186E+02  0.27651207532E+02  0.00000000000E+00 0. -1.
</event>
<event>
 6    1  0.1726037E-005  0.9142767E+02  0.7818608E-02  0.1344970E+00
          2   -1    0    0  502    0  0.00000000000E+00  0.00000000000E+00  0.21274570455E+02  0.21274570455E+02  0.00000000000E+00 0. -1.
          1   -1    0    0  501    0 -0.00000000000E+00 -0.00000000000E+00 -0.13614685827E+04  0.13614685827E+04  0.00000000000E+00 0. -1.
          2    1    1    2  501    0  0.76195622999E+02  0.69176954779E+02 -0.82054047877E+03  0.82696910543E+03  0.00000000000E+00 0. -1.
          1    1    1    2  502    0 -0.49994345859E+02 -0.17554358670E+02 -0.79213677141E+02  0.95301609495E+02  0.00000000000E+00 0. -1.
         22    1    1    2    0    0 -0.91356780182E+01  0.39585074548E+02 -0.16015613166E+03  0.16522840327E+03  0.00000000000E+00 0.  1.
         22    1    1    2    0    0 -0.17065599122E+02 -0.91207670657E+02 -0.28028372468E+03  0.29524403496E+03  0.00000000000E+00 0. -1.
</event>
<event>
 6    1  0.1726037E-005  0.8753908E+02  0.7818608E-02  0.1337822E+00
          2   -1    0    0  502    0  0.00000000000E+00  0.00000000000E+00  0.49038132663E+02  0.49038132663E+02  0.00000000000E+00 0. -1.
          1   -1    0    0  501    0 -0.00000000000E+00 -0.00000000000E+00 -0.67319224773E+03  0.67319224773E+03  0.00000000000E+00 0. -1.
          2    1    1    2  501    0  0.44677453276E+01 -0.75833745901E+02 -0.32633345483E+03  0.33505856429E+03  0.00000000000E+00 0. -1.
          1    1    1    2  502    0 -0.53575620942E+02  0.50982530861E+02 -0.20695283058E+03  0.21977042498E+03  0.00000000000E+00 0. -1.
         22    1    1    2    0    0  0.52194938982E+02 -0.42991865470E+01  0.17438180261E+02  0.55198594105E+02  0.00000000000E+00 0. -1.
         22    1    1    2    0    0 -0.30870633679E+01  0.29150401587E+02 -0.10830600992E+03  0.11220279702E+03  0.00000000000E+00 0. -1.
</event>
<event>
 6    1  0.1726037E-005  0.2043381E+03  0.7818608E-02  0.1174087E+00
          2   -1    0    0  502    0  0.00000000000E+00  0.00000000000E+00  0.19668880125E+04  0.19668880125E+04  0.00000000000E+00 0. -1.
          1   -1    0    0  501    0 -0.00000000000E+00 -0.00000000000E+00 -0.51113016599E+02  0.51113016599E+02  0.00000000000E+00 0. -1.
          2    1    1    2  501    0  0.22667203460E+03 -0.12629211738E+03  0.13473318364E+04  0.13720907359E+04  0.00000000000E+00 0. -1.
          1    1    1    2  502    0 -0.88113415034E+02  0.14108965918E+02  0.20302974294E+03  0.22177491596E+03  0.00000000000E+00 0. -1.
         22    1    1    2    0    0 -0.89782368670E+02  0.17407546075E+02  0.87866414445E+02  0.12682430040E+03  0.00000000000E+00 0. -1.
         22    1    1    2    0    0 -0.48776250900E+02  0.94775605388E+02  0.27754700216E+03  0.29731107688E+03  0.00000000000E+00 0. -1.
</event>
<event>
 6    1  0.1726037E-005  0.1399766E+03  0.7818608E-02  0.1215236E+00
          2   -1    0    0  502    0  0.00000000000E+00  0.00000000000E+00  0.67593392316E+03  0.67593392316E+03  0.00000000000E+00 0. -1.
          1   -1    0    0  501    0 -0.00000000000E+00 -0.00000000000E+00 -0.72554424668E+02  0.72554424668E+02  0.00000000000E+00 0. -1.
          2    1    1    2  501    0 -0.10755135569E+03 -0.38773457494E+02  0.48481831172E+03  0.49811592074E+03  0.00000000000E+00 0. -1.
          1    1    1    2  502    0  0.82319962299E+02  0.11596001623E+02  0.90567090481E+01  0.83624562333E+02  0.00000000000E+00 0. -1.
         22    1    1    2    0    0  0.38966315114E+02  0.41212747093E+02  0.12547173138E+01  0.56731283716E+02  0.00000000000E+00 0.  1.
         22    1    1    2    0    0 -0.13734921721E+02 -0.14035291222E+02  0.10824976041E+03  0.11001658103E+03  0.00000000000E+00 0.  1.
</event>
<event>
 6    1  0.1726037E-005  0.5163331E+02  0.7818608E-02  0.1442283E+00
          2   -1    0    0  502    0  0.00000000000E+00  0.00000000000E+00  0.15417655764E+03  0.15417655764E+03  0.00000000000E+00 0. -1.
          1   -1    0    0  501    0 -0.00000000000E+00 -0.00000000000E+00 -0.14867591380E+03  0.14867591380E+03  0.00000000000E+00 0. -1.
          2    1    1    2  501    0  0.33686022029E+02  0.38785884680E+01  0.87719547966E+02  0.94045258382E+02  0.00000000000E+00 0. -1.
          1    1    1    2  502    0 -0.30423122867E+02  0.56484437175E+01 -0.72211893286E+02  0.78562261000E+02  0.00000000000E+00 0. -1.
         22    1    1    2    0    0  0.11255307557E+02  0.40858136196E+01  0.58083820774E+02  0.59305194181E+02  0.00000000000E+00 0.  1.
         22    1    1    2    0    0 -0.14518206719E+02 -0.13612845805E+02 -0.68090831612E+02  0.70939757871E+02  0.00000000000E+00 0. -1.
</event>
<event>
 6    1  0.1726037E-005  0.5807388E+02  0.7818608E-02  0.1483383E+00
          2   -1    0    0  502    0  0.00000000000E+00  0.00000000000E+00  0.34060012273E+03  0.34060012273E+03  0.00000000000E+00 0.  1.
          1   -1    0    0  501    0 -0.00000000000E+00 -0.00000000000E+00 -0.49691971730E+02  0.49691971730E+02  0.00000000000E+00 0.  1.
          2    1    1    2  501    0  0.39430287155E+02  0.91939257056E+01  0.11062920720E+03  0.11780533646E+03  0.00000000000E+00 0.  1.
          1    1    1    2  502    0 -0.48310287713E+02  0.58470012403E+00  0.13194868784E+03  0.14051577134E+03  0.00000000000E+00 0.  1.
         22    1    1    2    0    0 -0.18010232850E+02 -0.38755542194E+01 -0.37528476823E+02  0.41806398798E+02  0.00000000000E+00 0.  1.
         22    1    1    2    0    0  0.26890233408E+02 -0.59030716103E+01  0.85858732790E+02  0.90164587857E+02  0.00000000000E+00 0.  1.
</event>
<event>
 6    1  0.1726037E-005  0.1529068E+03  0.7818608E-02  0.1198341E+00
          2   -1    0    0  502    0  0.00000000000E+00  0.00000000000E+00  0.46419415995E+02  0.46419415995E+02  0.00000000000E+00 0.  1.
          1   -1    0    0  501    0 -0.00000000000E+00 -0.00000000000E+00 -0.90093977457E+03  0.90093977457E+03  0.00000000000E+00 0. -1.
          2    1    1    2  501    0  0.96755668769E+02 -0.18309649414E+02 -0.10381309052E+03  0.14308759717E+03  0.00000000000E+00 0.  1.
          1    1    1    2  502    0 -0.99874954685E+02  0.21026045832E+02 -0.61045817910E+03  0.61893157102E+03  0.00000000000E+00 0. -1.
         22    1    1    2    0    0 -0.37646697148E+02  0.16400455728E+02 -0.13367099962E+03  0.13983627889E+03  0.00000000000E+00 0. -1.
         22    1    1    2    0    0  0.40765983064E+02 -0.19116852145E+02 -0.65780893256E+01  0.45503743475E+02  0.00000000000E+00 0.  1.
</event>
<event>
 6    1  0.1726037E-005  0.5373982E+02  0.7818608E-02  0.1433697E+00
          2   -1    0    0  502    0  0.00000000000E+00  0.00000000000E+00  0.59378607952E+03  0.59378607952E+03  0.00000000000E+00 0.  1.
          1   -1    0    0  501    0 -0.00000000000E+00 -0.00000000000E+00 -0.88291382249E+02  0.88291382249E+02  0.00000000000E+00 0.  1.
          2    1    1    2  501    0 -0.26553676791E+02 -0.47456132809E+02  0.44930990481E+03  0.45258874583E+03  0.00000000000E+00 0.  1.
          1    1    1    2  502    0  0.35018513225E+02 -0.74868989145E+01 -0.44682545895E+02  0.57261503923E+02  0.00000000000E+00 0.  1.
         22    1    1    2    0    0 -0.15223505113E+02  0.63000493899E+02  0.12781006778E+03  0.14330467810E+03  0.00000000000E+00 0.  1.
         22    1    1    2    0    0  0.67586686786E+01 -0.80574621756E+01 -0.26942729427E+02  0.28922533914E+02  0.00000000000E+00 0. -1.
</event>
<event>
 6    1  0.1726037E-005  0.1171125E+03  0.7818608E-02  0.1328346E+00
          2   -1    0    0  502    0  0.00000000000E+00  0.00000000000E+00  0.44782241714E+02  0.44782241714E+02  0.00000000000E+00 0. -1.
          1   -1    0    0  501    0 -0.00000000000E+00 -0.00000000000E+00 -0.50999881016E+03  0.50999881016E+03  0.00000000000E+00 0. -1.
          2    1    1    2  501    0  0.71519763696E+02 -0.55799489012E+02 -0.90119455208E+02  0.12786780588E+03  0.00000000000E+00 0. -1.
          1    1    1    2  502    0 -0.64096761391E+02  0.26096385361E+02 -0.18289244971E+03  0.19554811252E+03  0.00000000000E+00 0. -1.
         22    1    1    2    0    0 -0.24742886428E+02  0.48851802474E+02 -0.19754892188E+03  0.20499825748E+03  0.00000000000E+00 0. -1.
         22    1    1    2    0    0  0.17319884123E+02 -0.19148698823E+02  0.53442583469E+01  0.26366875999E+02  0.00000000000E+00 0.  1.
</event>
<event>
 6    1  0.1726037E-005  0.4862541E+02  0.7818608E-02  0.1554564E+00
          2   -1    0    0  502    0  0.00000000000E+00  0.00000000000E+00  0.37766014901E+03  0.37766014901E+03  0.00000000000E+00 0. -1.
          1   -1    0    0  501    0 -0.00000000000E+00 -0.00000000000E+00 -0.13104612367E+03  0.13104612367E+03  0.00000000000E+00 0.  1.
          2    1    1    2  501    0  0.35837459726E+02 -0.16996094965E+02  0.31492527068E+03  0.31741316431E+03  0.00000000000E+00 0. -1.
          1    1    1    2  502    0 -0.20787553974E+02  0.11089943925E+01 -0.64624645090E+02  0.67894749589E+02  0.00000000000E+00 0.  1.
         22    1    1    2    0    0  0.10444462275E+02  0.60927093676E+01  0.56248792517E+02  0.57533768860E+02  0.00000000000E+00 0.  1.
         22    1    1    2    0    0 -0.25494368027E+02  0.97943912053E+01 -0.59935392764E+02  0.65864589925E+02  0.00000000000E+00 0.  1.
</event>
<event>
 6    1  0.1726037E-005  0.1551480E+03  0.7818608E-02  0.1282683E+00
          2   -1    0    0  502    0  0.00000000000E+00  0.00000000000E+00  0.35467654392E+03  0.35467654392E+03  0.00000000000E+00 0. -1.
          1   -1    0    0  501    0 -0.00000000000E+00 -0.00000000000E+00 -0.70288602065E+03  0.70288602065E+03  0.00000000000E+00 0. -1.
          2    1    1    2  501    0 -0.24431044168E+02  0.12614718145E+03  0.30845575044E+03  0.33414807689E+03  0.00000000000E+00 0. -1.
          1    1    1    2  502    0  0.40050410400E+02 -0.11111713603E+03 -0.52185478870E+03  0.53505464560E+03  0.00000000000E+00 0. -1.
         22    1    1    2    0    0 -0.12343558996E+02  0.22416954710E+02  0.17810134909E+02  0.31178265068E+02  0.00000000000E+00 0.  1.
         22    1    1    2    0    0 -0.32758072355E+01 -0.37447000132E+02 -0.15262057338E+03  0.15718157701E+03  0.00000000000E+00 0. -1.
</event>
<event>
 6    1  0.1726037E-005  0.7597560E+02  0.7818608E-02  0.1342269E+00
          2   -1    0    0  502    0  0.00000000000E+00  0.00000000000E+00  0.88990560459E+02  0.88990560459E+02  0.00000000000E+00 0.  1.
          1   -1    0    0  501    0 -0.00000000000E+00 -0.00000000000E+00 -0.14333876970E+03  0.14333876970E+03  0.00000000000E+00 0.  1.
          2    1    1    2  501    0 -0.13897790124E+02 -0.32647156275E+02  0.16718501904E+02  0.39223636867E+02  0.00000000000E+00 0.  1.
          1    1    1    2  502    0  0.43238106989E+01  0.46515011711E+02 -0.51246232915E+02  0.69343478723E+02  0.00000000000E+00 0.  1.
         22    1    1    2    0    0  0.11452521836E+02 -0.36329528522E+02  0.42748211426E+02  0.57257353058E+02  0.00000000000E+00 0.  1.
         22    1    1    2    0    0 -0.18785424102E+01  0.22461673086E+02 -0.62568689651E+02  0.66504861507E+02  0.00000000000E+00 0.  1.
</event>
<event>
 6    1  0.1726037E-005  0.4200551E+02  0.7818608E-02  0.1594272E+00
          2   -1    0    0  502    0  0.00000000000E+00  0.00000000000E+00  0.11476381531E+03  0.11476381531E+03  0.00000000000E+00 0. -1.
          1   -1    0    0  501    0 -0.00000000000E+00 -0.00000000000E+00 -0.19131306478E+03  0.19131306478E+03  0.00000000000E+00 0.  1.
          2    1    1    2  501    0 -0.72507914155E+01 -0.33008065848E+02  0.36209028724E+02  0.49529790514E+02  0.00000000000E+00 0. -1.
          1    1    1    2  502    0 -0.38615994145E+02  0.46171068606E+01 -0.11265907384E+03  0.11918296689E+03  0.00000000000E+00 0.  1.
         22    1    1    2    0    0 -0.99571250059E+01  0.56427544892E+01  0.54708137000E+02  0.55892443770E+02  0.00000000000E+00 0. -1.
         22    1    1    2    0    0  0.55823910566E+02  0.22748204498E+02 -0.54807341354E+02  0.81471678914E+02  0.00000000000E+00 0.  1.
</event>
<event>
 6    1  0.1726037E-005  0.7477823E+02  0.7818608E-02  0.1356811E+00
          2   -1    0    0  502    0  0.00000000000E+00  0.00000000000E+00  0.24279044664E+02  0.24279044664E+02  0.00000000000E+00 0. -1.
          1   -1    0    0  501    0 -0.00000000000E+00 -0.00000000000E+00 -0.89922296889E+03  0.89922296889E+03  0.00000000000E+00 0. -1.
          2    1    1    2  501    0  0.45923485984E+02  0.15078342557E+02 -0.56999388550E+03  0.57203964241E+03  0.00000000000E+00 0. -1.
          1    1    1    2  502    0 -0.33681202030E+02  0.22415654351E+02 -0.43458187874E+02  0.59375912822E+02  0.00000000000E+00 0. -1.
         22    1    1    2    0    0  0.46405684287E+02 -0.39104529434E+02 -0.74396420161E+02  0.96007703280E+02  0.00000000000E+00 0. -1.
         22    1    1    2    0    0 -0.58647968242E+02  0.16105325266E+01 -0.18709543069E+03  0.19607875504E+03  0.00000000000E+00 0. -1.
</event>
<event>
 6    1  0.1726037E-005  0.2987853E+02  0.7818608E-02  0.1691345E+00
          2   -1    0    0  502    0  0.00000000000E+00  0.00000000000E+00  0.47735156094E+02  0.47735156094E+02  0.00000000000E+00 0.  1.
          1   -1    0    0  501    0 -0.00000000000E+00 -0.00000000000E+00 -0.31568047131E+03  0.31568047131E+03  0.00000000000E+00 0. -1.
          2    1    1    2  501    0  0.19638069063E+02 -0.18841496015E+02  0.19127307306E+02  0.33264239257E+02  0.00000000000E+00 0.  1.
          1    1    1    2  502    0  0.15839518349E+02  0.19347207706E+02 -0.91227168911E+02  0.94591760397E+02  0.00000000000E+00 0. -1.
         22    1    1    2    0    0 -0.25870476707E+00  0.10506830537E+02  0.16756114568E+02  0.19779479050E+02  0.00000000000E+00 0. -1.
         22    1    1    2    0    0 -0.35218882644E+02 -0.11012542228E+02 -0.21260156818E+03  0.21578014870E+03  0.00000000000E+00 0. -1.
</event>
<event>
 6    1  0.1726037E-005  0.1116283E+03  0.7818608E-02  0.1353252E+00
          2   -1    0    0  502    0  0.00000000000E+00  0.00000000000E+00  0.10192364326E+03  0.10192364326E+03  0.00000000000E+00 0. -1.
          1   -1    0    0  501    0 -0.00000000000E+00 -0.00000000000E+00 -0.47168767368E+03  0.47168767368E+03  0.00000000000E+00 0. -1.
          2    1    1    2  501    0  0.59945467536E+02 -0.10275980870E+03 -0.11559774635E+03  0.16587910153E+03  0.00000000000E+00 0. -1.
          1    1    1    2  502    0 -0.51053165733E+02  0.56360848002E+02 -0.26209663561E+03  0.27290587629E+03  0.00000000000E+00 0. -1.
         22    1    1    2    0    0  0.20017319656E+01  0.19271914702E+02  0.66554752188E+02  0.69317737023E+02  0.00000000000E+00 0.  1.
         22    1    1    2    0    0 -0.10894033769E+02  0.27127045997E+02 -0.58624400651E+02  0.65508602092E+02  0.00000000000E+00 0.  1.
</event>
<event>
 6    1  0.1726037E-005  0.8245976E+02  0.7818608E-02  0.1355959E+00
          2   -1    0    0  502    0  0.00000000000E+00  0.00000000000E+00  0.67850586741E+03  0.67850586741E+03  0.00000000000E+00 0.  1.
          1   -1    0    0  501    0 -0.00000000000E+00 -0.00000000000E+00 -0.31242079683E+02  0.31242079683E+02  0.00000000000E+00 0. -1.
          2    1    1    2  501    0 -0.43469793811E+02 -0.46234979898E+02  0.39729087087E+03  0.40232739456E+03  0.00000000000E+00 0.  1.
          1    1    1    2  502    0  0.35808487239E+02  0.32272621446E+02  0.75574308766E+02  0.89639533682E+02  0.00000000000E+00 0. -1.
         22    1    1    2    0    0  0.41492813243E+02  0.19654229659E+02  0.64487126083E+01  0.46363004525E+02  0.00000000000E+00 0. -1.
         22    1    1    2    0    0 -0.33831506671E+02 -0.56918712060E+01  0.16794989548E+03  0.17141801432E+03  0.00000000000E+00 0.  1.
</event>
<event>
 6    1  0.1726037E-005  0.1158599E+03  0.7818608E-02  0.1281513E+00
          2   -1    0    0  502    0  0.00000000000E+00  0.00000000000E+00  0.37114693056E+03  0.37114693056E+03  0.00000000000E+00 0.  1.
          1   -1    0    0  501    0 -0.00000000000E+00 -0.00000000000E+00 -0.62349623134E+03  0.62349623134E+03  0.00000000000E+00 0.  1.
          2    1    1    2  501    0  0.21974127600E+03  0.23113975821E+03 -0.37533710458E+03  0.49253401738E+03  0.00000000000E+00 0.  1.
          1    1    1    2  502    0 -0.26931351935E+03 -0.23065320787E+03  0.95972107686E+02  0.36734359863E+03  0.00000000000E+00 0.  1.
         22    1    1    2    0    0  0.37199079508E+02  0.18301149607E+02  0.72786580714E+02  0.83765087747E+02  0.00000000000E+00 0. -1.
         22    1    1    2    0    0  0.12373163839E+02 -0.18787699947E+02 -0.45770884601E+02  0.51000458134E+02  0.00000000000E+00 0.  1.
</event>
<event>
 6    1  0.1726037E-005  0.7720445E+02  0.7818608E-02  0.1339285E+00
          2   -1    0    0  502    0  0.00000000000E+00  0.00000000000E+00  0.68272195544E+02  0.68272195544E+02  0.00000000000E+00 0. -1.
          1   -1    0    0  501    0 -0.00000000000E+00 -0.00000000000E+00 -0.39917036113E+03  0.39917036113E+03  0.00000000000E+00 0.  1.
          2    1    1    2  501    0  0.51867112743E+02  0.14330493712E+02  0.24681249594E+02  0.59200713812E+02  0.00000000000E+00 0. -1.
          1    1    1    2  502    0 -0.26688283108E+02 -0.89368188308E+01 -0.21290292766E+03  0.21475518106E+03  0.00000000000E+00 0.  1.
         22    1    1    2    0    0 -0.41361620257E+02 -0.16368022399E+02 -0.16079205319E+03  0.16683159220E+03  0.00000000000E+00 0.  1.
         22    1    1    2    0    0  0.16182790623E+02  0.10974347518E+02  0.18115565671E+02  0.26655069599E+02  0.00000000000E+00 0. -1.
</event>
<event>
 6    1  0.1726037E-005  0.1096619E+03  0.7818608E-02  0.1362376E+00
          2   -1    0    0  502    0  0.00000000000E+00  0.00000000000E+00  0.86320530768E+02  0.86320530768E+02  0.00000000000E+00 0. -1.
          1   -1    0    0  501    0 -0.00000000000E+00 -0.00000000000E+00 -0.61918885457E+03  0.61918885457E+03  0.00000000000E+00 0.  1.
          2    1    1    2  501    0  0.96706951609E+02 -0.66175037087E+02 -0.26383145427E+03  0.28868392107E+03  0.00000000000E+00 0. -1.
          1    1    1    2  502    0 -0.80105726133E+02  0.45015163942E+02 -0.27769796757E+03  0.29250547608E+03  0.00000000000E+00 0.  1.
         22    1    1    2    0    0 -0.63812673773E+01  0.16318967635E+02  0.64762054125E+02  0.67090632226E+02  0.00000000000E+00 0. -1.
         22    1    1    2    0    0 -0.10219958099E+02  0.48409055106E+01 -0.56100956088E+02  0.57229355961E+02  0.00000000000E+00 0.  1.
</event>
<event>
 6    1  0.1726037E-005  0.1067048E+03  0.7818608E-02  0.1365473E+00
          2   -1    0    0  502    0  0.00000000000E+00  0.00000000000E+00  0.36531880781E+02  0.36531880781E+02  0.00000000000E+00 0. -1.
          1   -1    0    0  501    0 -0.00000000000E+00 -0.00000000000E+00 -0.43405796887E+03  0.43405796887E+03  0.00000000000E+00 0. -1.
          2    1    1    2  501    0 -0.24856634057E+02 -0.20170597891E+02 -0.23224153416E+03  0.23443727406E+03  0.00000000000E+00 0. -1.
          1    1    1    2  502    0 -0.24916220083E+02 -0.11004710395E+02 -0.11438619273E+02  0.29542574109E+02  0.00000000000E+00 0. -1.
         22    1    1    2    0    0  0.29625568896E+01 -0.17816237509E+02  0.15759537369E+02  0.23969941184E+02  0.00000000000E+00 0. -1.
         22    1    1    2    0    0  0.46810297250E+02  0.48991545795E+02 -0.16960547202E+03  0.18264006030E+03  0.00000000000E+00 0. -1.
</event>
<event>
 6    1  0.1726037E-005  0.1470869E+03  0.7818608E-02  0.1279537E+00
          2   -1    0    0  502    0  0.00000000000E+00  0.00000000000E+00  0.27244651232E+03  0.27244651232E+03  0.00000000000E+00 0. -1.
          1   -1    0    0  501    0 -0.00000000000E+00 -0.00000000000E+00 -0.11095255567E+03  0.11095255567E+03  0.00000000000E+00 0. -1.
          2    1    1    2  501    0 -0.10895592125E+03 -0.43568677187E+02  0.27621272786E+01  0.11737653835E+03  0.00000000000E+00 0. -1.
          1    1    1    2  502    0  0.53763814647E+02 -0.29744231381E+02  0.55827879489E+02  0.83018185923E+02  0.00000000000E+00 0. -1.
         22    1    1    2    0    0  0.56844917072E+02  0.41473254412E+02 -0.49468919649E+01  0.70539685061E+02  0.00000000000E+00 0. -1.
         22    1    1    2    0    0 -0.16528104680E+01  0.31839654156E+02  0.10785084185E+03  0.11246465865E+03  0.00000000000E+00 0. -1.
</event>
<event>
 6    1  0.1726037E-005  0.1700592E+03  0.7818608E-02  0.1227671E+00
          2   -1    0    0  502    0  0.00000000000E+00  0.00000000000E+00  0.19057969903E+03  0.19057969903E+03  0.00000000000E+00 0. -1.
          1   -1    0    0  501    0 -0.00000000000E+00 -0.00000000000E+00 -0.56280255595E+03  0.56280255595E+03  0.00000000000E+00 0. -1.
          2    1    1    2  501    0  0.89020371794E+02  0.16091586679E+03 -0.30895166164E+03  0.35954091840E+03  0.00000000000E+00 0. -1.
          1    1    1    2  502    0 -0.71871862072E+02 -0.96494654601E+02 -0.17542422697E+03  0.21272151356E+03  0.00000000000E+00 0. -1.
         22    1    1    2    0    0  0.10796125457E+02 -0.56797244893E+02  0.13327236197E+03  0.14527217840E+03  0.00000000000E+00 0. -1.
         22    1    1    2    0    0 -0.27944635180E+02 -0.76239672918E+01 -0.21119330289E+02  0.35847644615E+02  0.00000000000E+00 0. -1.
</event>
<event>
 6    1  0.1726037E-005  0.5267610E+02  0.7818608E-02  0.1545101E+00
          2   -1    0    0  502    0  0.00000000000E+00  0.00000000000E+00  0.30203614064E+03  0.30203614064E+03  0.00000000000E+00 0. -1.
          1   -1    0    0  501    0 -0.00000000000E+00 -0.00000000000E+00 -0.17824072411E+03  0.17824072411E+03  0.00000000000E+00 0. -1.
          2    1    1    2  501    0 -0.49085388377E+02 -0.90047635232E+01  0.24616660058E+03  0.25117415544E+03  0.00000000000E+00 0. -1.
          1    1    1    2  502    0  0.30495398416E+02  0.77013737054E+01 -0.93397244056E+02  0.98551132305E+02  0.00000000000E+00 0. -1.
         22    1    1    2    0    0  0.17240102369E+02  0.11958977350E+02 -0.77788908825E+02  0.80568930769E+02  0.00000000000E+00 0.  1.
         22    1    1    2    0    0  0.13498875927E+01 -0.10655587532E+02  0.48814968836E+02  0.49982646234E+02  0.00000000000E+00 0.  1.
</event>
<event>
 6    1  0.1726037E-005  0.1278487E+03  0.7818608E-02  0.1346005E+00
          2   -1    0    0  502    0  0.00000000000E+00  0.00000000000E+00  0.20687867926E+03  0.20687867926E+03  0.00000000000E+00 0.  1.
          1   -1    0    0  501    0 -0.00000000000E+00 -0.00000000000E+00 -0.12098280085E+03  0.12098280085E+03  0.00000000000E+00 0.  1.
          2    1    1    2  501    0  0.41400218872E+02  0.74261229393E+02  0.69152993436E+02  0.10959399990E+03  0.00000000000E+00 0.  1.
          1    1    1    2  502    0 -0.54771619673E+02 -0.15896950175E+02 -0.36148502459E+02  0.67523015162E+02  0.00000000000E+00 0.  1.
         22    1    1    2    0    0  0.46342212247E+01  0.13840241090E+02  0.73671126761E+02  0.75103017237E+02  0.00000000000E+00 0.  1.
         22    1    1    2    0    0  0.87371795770E+01 -0.72204520308E+02 -0.20779739321E+02  0.75641447806E+02  0.00000000000E+00 0.  1.
</event>
<event>
 6    1  0.1726037E-005  0.5265401E+02  0.7818608E-02  0.1481482E+00
          2   -1    0    0  502    0  0.00000000000E+00  0.00000000000E+00  0.70427979483E+02  0.70427979483E+02  0.00000000000E+00 0.  1.
          1   -1    0    0  501    0 -0.00000000000E+00 -0.00000000000E+00 -0.40453241274E+03  0.40453241274E+03  0.00000000000E+00 0. -1.
          2    1    1    2  501    0  0.79940137771E+02 -0.55993303972E+02 -0.23505289116E+02  0.10039011073E+03  0.00000000000E+00 0.  1.
          1    1    1    2  502    0 -0.32187876488E+02  0.49288972023E+02 -0.18490064440E+03  0.19404564014E+03  0.00000000000E+00 0. -1.
         22    1    1    2    0    0 -0.12993458949E+02  0.11195351076E+02  0.22469827799E+02  0.28267632063E+02  0.00000000000E+00 0.  1.
         22    1    1    2    0    0 -0.34758802335E+02 -0.44910191268E+01 -0.14816832754E+03  0.15225700929E+03  0.00000000000E+00 0. -1.
</event>
<event>
 6    1  0.1726037E-005  0.4542082E+02  0.7818608E-02  0.1529558E+00
          2   -1    0    0  502    0  0.00000000000E+00  0.00000000000E+00  0.97148173328E+02  0.97148173328E+02  0.00000000000E+00 0.  1.
          1   -1    0    0  501    0 -0.00000000000E+00 -0.00000000000E+00 -0.50515783882E+03  0.50515783882E+03  0.00000000000E+00 0.  1.
          2    1    1    2  501    0 -0.36073086437E+02 -0.76092878053E+02 -0.43840872905E+02  0.94939010910E+02  0.00000000000E+00 0.  1.
          1    1    1    2  502    0  0.32956183365E+02  0.35813571844E+02 -0.37272626285E+03  0.37589039489E+03  0.00000000000E+00 0.  1.
         22    1    1    2    0    0 -0.24779709158E+01  0.28163035412E+02 -0.57505303651E+02  0.64079301272E+02  0.00000000000E+00 0. -1.
         22    1    1    2    0    0  0.55948739876E+01  0.12116270797E+02  0.66062773921E+02  0.67397305073E+02  0.00000000000E+00 0.  1.
</event>
<event>
 6    1  0.1726037E-005  0.4547143E+02  0.7818608E-02  0.1479430E+00
          2   -1    0    0  502    0  0.00000000000E+00  0.00000000000E+00  0.69188470683E+02  0.69188470683E+02  0.00000000000E+00 0.  1.
          1   -1    0    0  501    0 -0.00000000000E+00 -0.00000000000E+00 -0.11884571162E+04  0.11884571162E+04  0.00000000000E+00 0. -1.
          2    1    1    2  501    0  0.10051328690E+02  0.58980859530E+02 -0.41171019857E+02  0.72627982730E+02  0.00000000000E+00 0.  1.
          1    1    1    2  502    0  0.64341734980E+02 -0.48841528016E+02 -0.10250174230E+04  0.10281955413E+04  0.00000000000E+00 0. -1.
         22    1    1    2    0    0 -0.37090753740E+02  0.12475487020E+02 -0.90977780560E+02  0.99036954441E+02  0.00000000000E+00 0.  1.
         22    1    1    2    0    0 -0.37302309930E+02 -0.22614818534E+02  0.37897577893E+02  0.57785108407E+02  0.00000000000E+00 0.  1.
</event>
<event>
 6    1  0.2963641E-005  0.3467107E+02  0.7818608E-02  0.1559602E+00
          2   -1    0    0  502    0  0.00000000000E+00  0.00000000000E+00  0.19205056167E+03  0.19205056167E+03  0.00000000000E+00 0. -1.
          1   -1    0    0  501    0 -0.00000000000E+00 -0.00000000000E+00 -0.96480695478E+03  0.96480695478E+03  0.00000000000E+00 0. -1.
          2    1    1    2  501    0  0.36610047195E+02  0.66707693412E+02  0.11824416080E+03  0.14061256515E+03  0.00000000000E+00 0. -1.
          1    1    1    2  502    0 -0.46418577965E+02 -0.64688586475E+02 -0.88748447239E+03  0.89104881254E+03  0.00000000000E+00 0. -1.
         22    1    1    2    0    0  0.42655955504E+01 -0.13026432988E+02 -0.62987244526E+02  0.64461432149E+02  0.00000000000E+00 0.  1.
         22    1    1    2    0    0  0.55429352196E+01  0.11007326051E+02  0.59471163005E+02  0.60734706609E+02  0.00000000000E+00 0. -1.
</event>
<event>
 6    1  0.1726037E-005  0.5094837E+02  0.7818608E-02  0.1483710E+00
          2   -1    0    0  502    0  0.00000000000E+00  0.00000000000E+00  0.50155877336E+02  0.50155877336E+02  0.00000000000E+00 0.  1.
          1   -1    0    0  501    0 -0.00000000000E+00 -0.00000000000E+00 -0.25089596605E+03  0.25089596605E+03  0.00000000000E+00 0. -1.
          2    1    1    2  501    0  0.27077033933E+02 -0.41090572382E+02 -0.78186914052E+01  0.49827029216E+02  0.00000000000E+00 0.  1.
          1    1    1    2  502    0  0.87991360185E+01  0.18821939592E+02 -0.68014764366E+02  0.71117496978E+02  0.00000000000E+00 0. -1.
         22    1    1    2    0    0 -0.26469360067E+02 -0.60790258716E+01  0.18992916004E+02  0.33140797158E+02  0.00000000000E+00 0.  1.
         22    1    1    2    0    0 -0.94068098841E+01  0.28347658661E+02 -0.14389954894E+03  0.14696652003E+03  0.00000000000E+00 0. -1.
</event>
<event>
 6    1  0.1726037E-005  0.3962591E+02  0.7818608E-02  0.1574557E+00
          2   -1    0    0  502    0  0.00000000000E+00  0.00000000000E+00  0.20087465645E+03  0.20087465645E+03  0.00000000000E+00 0.  1.
          1   -1    0    0  501    0 -0.00000000000E+00 -0.00000000000E+00 -0.24525874588E+03  0.24525874588E+03  0.00000000000E+00 0.  1.
          2    1    1    2  501    0 -0.97965429177E+01  0.66926769762E+02  0.14390181684E+03  0.15900596736E+03  0.00000000000E+00 0.  1.
          1    1    1    2  502    0 -0.21440843820E+02 -0.28114569719E+02 -0.14559496222E+03  0.14982667265E+03  0.00000000000E+00 0.  1.
         22    1    1    2    0    0  0.24664732090E+02 -0.24708242905E+02  0.40037857021E+02  0.53121335369E+02  0.00000000000E+00 0. -1.
         22    1    1    2    0    0  0.65726546479E+01 -0.14103957137E+02 -0.82728801075E+02  0.84179426960E+02  0.00000000000E+00 0. -1.
</event>
<event>
 6    1  0.1726037E-005  0.1434876E+03  0.7818608E-02  0.1298972E+00
          2   -1    0    0  502    0  0.00000000000E+00  0.00000000000E+00  0.81751902128E+02  0.81751902128E+02  0.00000000000E+00 0.  1.
          1   -1    0    0  501    0 -0.00000000000E+00 -0.00000000000E+00 -0.42352105693E+03  0.42352105693E+03  0.00000000000E+00 0. -1.
          2    1    1    2  501    0  0.74455163330E+02 -0.94150951583E+02 -0.36702888596E+02  0.12551922188E+03  0.00000000000E+00 0.  1.
          1    1    1    2  502    0  0.67688805414E+01  0.51980456373E+02 -0.15274639410E+03  0.16149070097E+03  0.00000000000E+00 0. -1.
         22    1    1    2    0    0 -0.14615624070E+02 -0.18850695518E+02  0.14955934668E+02  0.28153954789E+02  0.00000000000E+00 0.  1.
         22    1    1    2    0    0 -0.66608419801E+02  0.61021190728E+02 -0.16727580677E+03  0.19010908142E+03  0.00000000000E+00 0. -1.
</event>
<event>
 6    1  0.1726037E-005  0.8938346E+02  0.7818608E-02  0.1360568E+00
          2   -1    0    0  502    0  0.00000000000E+00  0.00000000000E+00  0.32058639723E+03  0.32058639723E+03  0.00000000000E+00 0.  1.
          1   -1    0    0  501    0 -0.00000000000E+00 -0.00000000000E+00 -0.76740961266E+03  0.76740961266E+03  0.00000000000E+00 0. -1.
          2    1    1    2  501    0  0.18104909161E+03  0.19356664294E+03  0.14440727177E+03  0.30182822759E+03  0.00000000000E+00 0.  1.
          1    1    1    2  502    0 -0.16215324577E+03 -0.22909852047E+03 -0.59219216286E+03  0.65534064802E+03  0.00000000000E+00 0. -1.
         22    1    1    2    0    0 -0.37129768772E+01  0.10373258938E+02  0.62059660322E+02  0.63030089144E+02  0.00000000000E+00 0. -1.
         22    1    1    2    0    0 -0.15182868963E+02  0.25158618596E+02 -0.61097984664E+02  0.67797045139E+02  0.00000000000E+00 0.  1.
</event>
<event>
 6    1  0.1726037E-005  0.6082973E+02  0.7818608E-02  0.1397025E+00
          2   -1    0    0  502    0  0.00000000000E+00  0.00000000000E+00  0.14110558872E+03  0.14110558872E+03  0.00000000000E+00 0. -1.
          1   -1    0    0  501    0 -0.00000000000E+00 -0.00000000000E+00 -0.34372066386E+03  0.34372066386E+03  0.00000000000E+00 0.  1.
          2    1    1    2  501    0  0.30833606768E+02 -0.29999139597E+02  0.73945241951E+02  0.85548573864E+02  0.00000000000E+00 0. -1.
          1    1    1    2  502    0 -0.28606857786E+02  0.30223709032E+02 -0.26990805582E+03  0.27309738830E+03  0.00000000000E+00 0.  1.
         22    1    1    2    0    0  0.85248813146E+01 -0.11528301674E+02  0.57962205993E+02  0.59709234332E+02  0.00000000000E+00 0. -1.
         22    1    1    2    0    0 -0.10751630297E+02  0.11303732239E+02 -0.64614467260E+02  0.66471056076E+02  0.00000000000E+00 0.  1.
</event>
<event>
 6    1  0.1726037E-005  0.1304736E+03  0.7818608E-02  0.1303299E+00
          2   -1    0    0  502    0  0.00000000000E+00  0.00000000000E+00  0.48243238944E+02  0.48243238944E+02  0.00000000000E+00 0. -1.
          1   -1    0    0  501    0 -0.00000000000E+00 -0.00000000000E+00 -0.11306671502E+04  0.11306671502E+04  0.00000000000E+00 0. -1.
          2    1    1    2  501    0  0.10239559077E+03  0.59554551682E+02 -0.78433589293E+03  0.79323035404E+03  0.00000000000E+00 0. -1.
          1    1    1    2  502    0 -0.10076893679E+03 -0.39438171140E+02 -0.19708960281E+03  0.22484229918E+03  0.00000000000E+00 0. -1.
         22    1    1    2    0    0 -0.27746851225E+02 -0.68461653456E+01 -0.12167000152E+03  0.12498138663E+03  0.00000000000E+00 0.  1.
         22    1    1    2    0    0  0.26120197249E+02 -0.13270215196E+02  0.20671586016E+02  0.35856349286E+02  0.00000000000E+00 0. -1.
</event>
<event>
 6    1  0.1726037E-005  0.6187224E+02  0.7818608E-02  0.1481148E+00
          2   -1    0    0  502    0  0.00000000000E+00  0.00000000000E+00  0.17216234147E+03  0.17216234147E+03  0.00000000000E+00 0. -1.
          1   -1    0    0  501    0 -0.00000000000E+00 -0.00000000000E+00 -0.11378983975E+03  0.11378983975E+03  0.00000000000E+00 0. -1.
          2    1    1    2  501    0 -0.10901085938E+02  0.27538976594E+02  0.51135690230E+02  0.59093889039E+02  0.00000000000E+00 0. -1.
          1    1    1    2  502    0  0.45895588748E+02 -0.61648803812E+02  0.47765514933E+02  0.90490466320E+02  0.00000000000E+00 0. -1.
         22    1    1    2    0    0 -0.50642912121E+02  0.32603554517E+02 -0.76350872796E+02  0.97247889909E+02  0.00000000000E+00 0. -1.
         22    1    1    2    0    0  0.15648409310E+02  0.15062727014E+01  0.35822169355E+02  0.39119935949E+02  0.00000000000E+00 0.  1.
</event>
<event>
 6    1  0.1726037E-005  0.6319227E+02  0.7818608E-02  0.1462189E+00
          2   -1    0    0  502    0  0.00000000000E+00  0.00000000000E+00  0.69737466905E+02  0.69737466905E+02  0.00000000000E+00 0. -1.
          1   -1    0    0  501    0 -0.00000000000E+00 -0.00000000000E+00 -0.31703292947E+03  0.31703292947E+03  0.00000000000E+00 0. -1.
          2    1    1    2  501    0 -0.93657848155E+02 -0.43842945460E+02 -0.85954207018E+02  0.13446978133E+03  0.00000000000E+00 0. -1.
          1    1    1    2  502    0  0.52601762169E+02  0.10694711610E+02 -0.51623565942E+02  0.74473584580E+02  0.00000000000E+00 0. -1.
         22    1    1    2    0    0  0.30800580304E+02  0.46552778661E+02 -0.13576350607E+03  0.14679089389E+03  0.00000000000E+00 0.  1.
         22    1    1    2    0    0  0.10255505682E+02 -0.13404544811E+02  0.26045816462E+02  0.31036136576E+02  0.00000000000E+00 0.  1.
</event>
<event>
 6    1  0.1726037E-005  0.5025729E+02  0.7818608E-02  0.1523186E+00
          2   -1    0    0  502    0  0.00000000000E+00  0.00000000000E+00  0.97430817376E+02  0.97430817376E+02  0.00000000000E+00 0.  1.
          1   -1    0    0  501    0 -0.00000000000E+00 -0.00000000000E+00 -0.14756221816E+03  0.14756221816E+03  0.00000000000E+00 0.  1.
          2    1    1    2  501    0 -0.36340187071E+02  0.18063236637E+01  0.60740214913E+00  0.36390121447E+02  0.00000000000E+00 0.  1.
          1    1    1    2  502    0  0.32080348684E+02 -0.41322738737E+01 -0.74350202684E+02  0.81081299313E+02  0.00000000000E+00 0.  1.
         22    1    1    2    0    0  0.19096297413E+02  0.95182638026E+01 -0.48797926421E+02  0.53258835358E+02  0.00000000000E+00 0.  1.
         22    1    1    2    0    0 -0.14836459026E+02 -0.71923135926E+01  0.72409326169E+02  0.74262779422E+02  0.00000000000E+00 0.  1.
</event>
<event>
 6    1  0.1726037E-005  0.1157423E+03  0.7818608E-02  0.1307716E+00
          2   -1    0    0  502    0  0.00000000000E+00  0.00000000000E+00  0.37305802845E+02  0.37305802845E+02  0.00000000000E+00 0. -1.
          1   -1    0    0  501    0 -0.00000000000E+00 -0.00000000000E+00 -0.57291069649E+03  0.57291069649E+03  0.00000000000E+00 0. -1.
          2    1    1    2  501    0  0.70917173485E+02  0.66835958481E+02 -0.28024076280E+03  0.29670048192E+03  0.00000000000E+00 0. -1.
          1    1    1    2  502    0  0.11685191112E+02 -0.25250464266E+02 -0.23979928246E+02  0.36731003194E+02  0.00000000000E+00 0. -1.
         22    1    1    2    0    0 -0.35480605369E+02  0.15488695724E+02 -0.55226782514E+01  0.39105920621E+02  0.00000000000E+00 0. -1.
         22    1    1    2    0    0 -0.47121759228E+02 -0.57074189939E+02 -0.22586152435E+03  0.23767909359E+03  0.00000000000E+00 0. -1.
</event>
<event>
 6    1  0.1726037E-005  0.9594646E+02  0.7818608E-02  0.1337828E+00
          2   -1    0    0  502    0  0.00000000000E+00  0.00000000000E+00  0.10593311019E+03  0.10593311019E+03  0.00000000000E+00 0.  1.
          1   -1    0    0  501    0 -0.00000000000E+00 -0.00000000000E+00 -0.14501423253E+03  0.14501423253E+03  0.00000000000E+00 0.  1.
          2    1    1    2  501    0  0.33741063936E+02 -0.58209928864E+02 -0.59762987430E+01  0.67546808663E+02  0.00000000000E+00 0.  1.
          1    1    1    2  502    0  0.39921775872E+00  0.23463311857E+02 -0.41267314460E+02  0.47472914602E+02  0.00000000000E+00 0.  1.
         22    1    1    2    0    0 -0.67903820413E+01 -0.39186831225E+02  0.34669151915E+02  0.52760469334E+02  0.00000000000E+00 0.  1.
         22    1    1    2    0    0 -0.27349899653E+02  0.73933448232E+02 -0.26506661057E+02  0.83167150119E+02  0.00000000000E+00 0.  1.
</event>
<event>
 6    1  0.1726037E-005  0.4560016E+02  0.7818608E-02  0.1544923E+00
          2   -1    0    0  502    0  0.00000000000E+00  0.00000000000E+00  0.52836123334E+03  0.52836123334E+03  0.00000000000E+00 0.  1.
          1   -1    0    0  501    0 -0.00000000000E+00 -0.00000000000E+00 -0.66168978676E+02  0.66168978676E+02  0.00000000000E+00 0.  1.
          2    1    1    2  501    0 -0.58905276502E+02  0.37588552150E+02  0.28905333951E+03  0.29737949482E+03  0.00000000000E+00 0.  1.
          1    1    1    2  502    0  0.32127216850E+02 -0.40134063375E+02 -0.27234017710E+02  0.58177253511E+02  0.00000000000E+00 0.  1.
         22    1    1    2    0    0  0.38520142178E+02  0.10839774671E+02  0.21486553775E+03  0.21856006356E+03  0.00000000000E+00 0.  1.
         22    1    1    2    0    0 -0.11742082526E+02 -0.82942634456E+01 -0.14492604896E+02  0.20413400129E+02  0.00000000000E+00 0.  1.
</event>
<event>
 6    1  0.1726037E-005  0.7205628E+02  0.7818608E-02  0.1413459E+00
          2   -1    0    0  502    0  0.00000000000E+00  0.00000000000E+00  0.14655759156E+03  0.14655759156E+03  0.00000000000E+00 0.  1.
          1   -1    0    0  501    0 -0.00000000000E+00 -0.00000000000E+00 -0.29602525885E+03  0.29602525885E+03  0.00000000000E+00 0.  1.
          2    1    1    2  501    0  0.58895305761E+01 -0.69537132088E+02  0.39969499681E+02  0.80421764555E+02  0.00000000000E+00 0.  1.
          1    1    1    2  502    0  0.23989788987E+02  0.55962807526E+02 -0.22100587974E+03  0.22923992820E+03  0.00000000000E+00 0.  1.
         22    1    1    2    0    0 -0.28910530199E+01  0.11096778939E+02 -0.47746097025E+02  0.49103833572E+02  0.00000000000E+00 0. -1.
         22    1    1    2    0    0 -0.26988266543E+02  0.24775456233E+01  0.79314809795E+02  0.83817324081E+02  0.00000000000E+00 0.  1.
</event>
<event>
 6    1  0.1726037E-005  0.6153442E+02  0.7818608E-02  0.1422191E+00
          2   -1    0    0  502    0  0.00000000000E+00  0.00000000000E+00  0.74124551620E+02  0.74124551620E+02  0.00000000000E+00 0. -1.
          1   -1    0    0  501    0 -0.00000000000E+00 -0.00000000000E+00 -0.36616760564E+03  0.36616760564E+03  0.00000000000E+00 0. -1.
          2    1    1    2  501    0 -0.95883833824E+02 -0.77028440674E+01 -0.18307300416E+02  0.97919357861E+02  0.00000000000E+00 0. -1.
          1    1    1    2  502    0  0.69286336853E+02  0.20853030558E+02 -0.10824713619E+03  0.13020325592E+03  0.00000000000E+00 0. -1.
         22    1    1    2    0    0  0.21603283122E+02 -0.40177546713E+02 -0.17669449606E+03  0.18248803260E+03  0.00000000000E+00 0. -1.
         22    1    1    2    0    0  0.49942138494E+01  0.27027360222E+02  0.11205878645E+02  0.29681510890E+02  0.00000000000E+00 0. -1.
</event>
<event>
 6    1  0.1726037E-005  0.6967953E+02  0.7818608E-02  0.1424114E+00
          2   -1    0    0  502    0  0.00000000000E+00  0.00000000000E+00  0.53483958188E+03  0.53483958188E+03  0.00000000000E+00 0. -1.
          1   -1    0    0  501    0 -0.00000000000E+00 -0.00000000000E+00 -0.94443794581E+02  0.94443794581E+02  0.00000000000E+00 0. -1.
          2    1    1    2  501    0  0.11557785246E+02 -0.86652066754E+02  0.42588566720E+03  0.43476518329E+03  0.00000000000E+00 0. -1.
          1    1    1    2  502    0  0.47079605259E+01  0.39408744214E+02 -0.30209645856E+02  0.49878218849E+02  0.00000000000E+00 0. -1.
         22    1    1    2    0    0 -0.14931139192E+02  0.20588622015E+02  0.89206972834E+02  0.92761599146E+02  0.00000000000E+00 0. -1.
         22    1    1    2    0    0 -0.13346065804E+01  0.26654700526E+02 -0.44487206881E+02  0.51878375176E+02  0.00000000000E+00 0. -1.
</event>
<event>
 6    1  0.1726037E-005  0.8210264E+02  0.7818608E-02  0.1388912E+00
          2   -1    0    0  502    0  0.00000000000E+00  0.00000000000E+00  0.14259189299E+03  0.14259189299E+03  0.00000000000E+00 0.  1.
          1   -1    0    0  501    0 -0.00000000000E+00 -0.00000000000E+00 -0.59999296724E+03  0.59999296724E+03  0.00000000000E+00 0. -1.
          2    1    1    2  501    0  0.78229100753E+02  0.39483195957E+02 -0.36082424841E+03  0.37131233915E+03  0.00000000000E+00 0.  1.
          1    1    1    2  502    0 -0.13818432861E+03  0.20185465963E+02 -0.15842362654E+03  0.21118808478E+03  0.00000000000E+00 0. -1.
         22    1    1    2    0    0 -0.53219426014E+01 -0.23945722769E+02 -0.31997370078E+02  0.40318139887E+02  0.00000000000E+00 0.  1.
         22    1    1    2    0    0  0.65277170455E+02 -0.35722939151E+02  0.93844170780E+02  0.11976629640E+03  0.00000000000E+00 0.  1.
</event>
<event>
 6    1  0.1726037E-005  0.1711924E+03  0.7818608E-02  0.1298111E+00
          2   -1    0    0  502    0  0.00000000000E+00  0.00000000000E+00  0.24688908156E+03  0.24688908156E+03  0.00000000000E+00 0.  1.
          1   -1    0    0  501    0 -0.00000000000E+00 -0.00000000000E+00 -0.58542057954E+03  0.58542057954E+03  0.00000000000E+00 0.  1.
          2    1    1    2  501    0 -0.15481010690E+02  0.16649988761E+03  0.17068124055E+03  0.23894342456E+03  0.00000000000E+00 0.  1.
          1    1    1    2  502    0  0.31215448860E+02 -0.91023798561E+02 -0.40406942630E+03  0.41536951913E+03  0.00000000000E+00 0.  1.
         22    1    1    2    0    0  0.43182312651E+01 -0.13601595100E+02  0.27097619228E+02  0.30625666986E+02  0.00000000000E+00 0. -1.
         22    1    1    2    0    0 -0.20052669436E+02 -0.61874493948E+02 -0.13224093145E+03  0.14737105043E+03  0.00000000000E+00 0.  1.
</event>
<event>
 6    1  0.1726037E-005  0.5076635E+02  0.7818608E-02  0.1515933E+00
          2   -1    0    0  502    0  0.00000000000E+00  0.00000000000E+00  0.55540994176E+02  0.55540994176E+02  0.00000000000E+00 0.  1.
          1   -1    0    0  501    0 -0.00000000000E+00 -0.00000000000E+00 -0.28182551565E+03  0.28182551565E+03  0.00000000000E+00 0. -1.
          2    1    1    2  501    0  0.15219703953E+02  0.54444489055E+02 -0.51507263259E+02  0.76477708813E+02  0.00000000000E+00 0.  1.
          1    1    1    2  502    0 -0.10258661495E+02 -0.22655147901E+02 -0.12137876734E+03  0.12390036733E+03  0.00000000000E+00 0. -1.
         22    1    1    2    0    0 -0.14527902641E+02 -0.99827794236E+01  0.38346252327E+02  0.42203683579E+02  0.00000000000E+00 0.  1.
         22    1    1    2    0    0  0.95668601837E+01 -0.21806561731E+02 -0.91744743198E+02  0.94784750106E+02  0.00000000000E+00 0. -1.
</event>
<event>
 6    1  0.1726037E-005  0.5051590E+02  0.7818608E-02  0.1518832E+00
          2   -1    0    0  502    0  0.00000000000E+00  0.00000000000E+00  0.19768492660E+03  0.19768492660E+03  0.00000000000E+00 0. -1.
          1   -1    0    0  501    0 -0.00000000000E+00 -0.00000000000E+00 -0.23486347921E+03  0.23486347921E+03  0.00000000000E+00 0.  1.
          2    1    1    2  501    0 -0.44071889091E+02  0.57206626470E+02  0.12471667779E+03  0.14411515964E+03  0.00000000000E+00 0. -1.
          1    1    1    2  502    0  0.30038330717E+02 -0.76879475756E+02 -0.12810601190E+03  0.15239391520E+03  0.00000000000E+00 0.  1.
         22    1    1    2    0    0 -0.75328570169E+01 -0.97415200926E+01  0.46367312244E+02  0.47974668246E+02  0.00000000000E+00 0. -1.
         22    1    1    2    0    0  0.21566415392E+02  0.29414369379E+02 -0.80156530749E+02  0.88064662723E+02  0.00000000000E+00 0.  1.
</event>
<event>
 6    1  0.1726037E-005  0.5348276E+02  0.7818608E-02  0.1467550E+00
          2   -1    0    0  502    0  0.00000000000E+00  0.00000000000E+00  0.41328129509E+03  0.41328129509E+03  0.00000000000E+00 0. -1.
          1   -1    0    0  501    0 -0.00000000000E+00 -0.00000000000E+00 -0.50456327332E+02  0.50456327332E+02  0.00000000000E+00 0. -1.
          2    1    1    2  501    0  0.53842274005E+02 -0.36980779766E+02  0.26208484648E+03  0.27010189799E+03  0.00000000000E+00 0. -1.
          1    1    1    2  502    0 -0.14383323624E+02  0.14702623722E+02 -0.10121755643E+02  0.22923723085E+02  0.00000000000E+00 0. -1.
         22    1    1    2    0    0 -0.28363931232E+02 -0.82510347379E+01  0.12979514757E+03  0.13311413336E+03  0.00000000000E+00 0.  1.
         22    1    1    2    0    0 -0.11095019149E+02  0.30529190782E+02 -0.18933270647E+02  0.37597867986E+02  0.00000000000E+00 0. -1.
</event>
<event>
 6    1  0.1726037E-005  0.5396481E+02  0.7818608E-02  0.1486527E+00
          2   -1    0    0  502    0  0.00000000000E+00  0.00000000000E+00  0.69480665063E+02  0.69480665063E+02  0.00000000000E+00 0. -1.
          1   -1    0    0  501    0 -0.00000000000E+00 -0.00000000000E+00 -0.46530746398E+03  0.46530746398E+03  0.00000000000E+00 0.  1.
          2    1    1    2  501    0 -0.66977419248E+01  0.58612117989E+02 -0.21212552522E+00  0.58993941378E+02  0.00000000000E+00 0. -1.
          1    1    1    2  502    0 -0.37302431618E+02 -0.43213773067E+02 -0.32208683329E+03  0.32710675592E+03  0.00000000000E+00 0.  1.
         22    1    1    2    0    0  0.32655413107E+02 -0.29113228847E+02 -0.10431945946E+03  0.11312164126E+03  0.00000000000E+00 0. -1.
         22    1    1    2    0    0  0.11344760436E+02  0.13714883925E+02  0.30791619359E+02  0.35565790490E+02  0.00000000000E+00 0. -1.
</event>
<event>
 6    1  0.1726037E-005  0.9467750E+02  0.7818608E-02  0.1321548E+00
          2   -1    0    0  502    0  0.00000000000E+00  0.00000000000E+00  0.43325516094E+03  0.43325516094E+03  0.00000000000E+00 0.  1.
          1   -1    0    0  501    0 -0.00000000000E+00 -0.00000000000E+00 -0.73775081614E+02  0.73775081614E+02  0.00000000000E+00 0.  1.
          2    1    1    2  501    0 -0.13264205160E+02  0.60108931366E+02 -0.36551604677E+02  0.71589402658E+02  0.00000000000E+00 0.  1.
          1    1    1    2  502    0  0.10226028570E+02 -0.31419045974E+02  0.18953315441E+03  0.19239164413E+03  0.00000000000E+00 0.  1.
         22    1    1    2    0    0 -0.51640858165E+02  0.19294448755E+02  0.97440031748E+02  0.11195362331E+03  0.00000000000E+00 0.  1.
         22    1    1    2    0    0  0.54679034755E+02 -0.47984334147E+02  0.10905849784E+03  0.13109557245E+03  0.00000000000E+00 0.  1.
</event>
<event>
 6    1  0.1726037E-005  0.2142073E+03  0.7818608E-02  0.1278064E+00
          2   -1    0    0  502    0  0.00000000000E+00  0.00000000000E+00  0.53699263911E+02  0.53699263911E+02  0.00000000000E+00 0. -1.
          1   -1    0    0  501    0 -0.00000000000E+00 -0.00000000000E+00 -0.52305798841E+03  0.52305798841E+03  0.00000000000E+00 0.  1.
          2    1    1    2  501    0 -0.16882703276E+02 -0.67235541793E+02 -0.36906678312E+02  0.78535002732E+02  0.00000000000E+00 0. -1.
          1    1    1    2  502    0 -0.14673656833E+02 -0.29761621666E+02  0.38346694487E+01  0.33403218689E+02  0.00000000000E+00 0.  1.
         22    1    1    2    0    0  0.24811124116E+02  0.10519509894E+03 -0.44037387266E+03  0.45344321413E+03  0.00000000000E+00 0.  1.
         22    1    1    2    0    0  0.67452359922E+01 -0.81979354781E+01  0.40871570216E+01  0.11375816771E+02  0.00000000000E+00 0. -1.
</event>
<event>
 6    1  0.1726037E-005  0.6497414E+02  0.7818608E-02  0.1411927E+00
          2   -1    0    0  502    0  0.00000000000E+00  0.00000000000E+00  0.12488116306E+03  0.12488116306E+03  0.00000000000E+00 0. -1.
          1   -1    0    0  501    0 -0.00000000000E+00 -0.00000000000E+00 -0.34515044270E+03  0.34515044270E+03  0.00000000000E+00 0.  1.
          2    1    1    2  501    0  0.67703457256E+02 -0.70262002850E+02  0.32053892200E+02  0.10270325786E+03  0.00000000000E+00 0. -1.
          1    1    1    2  502    0 -0.33682450270E+02  0.26354315461E+02 -0.22145657175E+03  0.22554837745E+03  0.00000000000E+00 0.  1.
         22    1    1    2    0    0 -0.28807557369E+02  0.24559621197E+02  0.47587063789E+02  0.60807721507E+02  0.00000000000E+00 0. -1.
         22    1    1    2    0    0 -0.52134496180E+01  0.19348066192E+02 -0.78453663881E+02  0.80972248942E+02  0.00000000000E+00 0. -1.
</event>
<event>
 6    1  0.1726037E-005  0.4071165E+03  0.7818608E-02  0.1041656E+00
          2   -1    0    0  502    0  0.00000000000E+00  0.00000000000E+00  0.61953108668E+03  0.61953108668E+03  0.00000000000E+00 0.  1.
          1   -1    0    0  501    0 -0.00000000000E+00 -0.00000000000E+00 -0.50245924111E+03  0.50245924111E+03  0.00000000000E+00 0.  1.
          2    1    1    2  501    0  0.24932196241E+03  0.27931977163E+03  0.39602331387E+03  0.54499123011E+03  0.00000000000E+00 0.  1.
          1    1    1    2  502    0 -0.25514127847E+03 -0.19520299614E+03 -0.27687411880E+03  0.42409970449E+03  0.00000000000E+00 0.  1.
         22    1    1    2    0    0 -0.20816359958E+02 -0.81678452977E+02 -0.50010347436E+02  0.98008802530E+02  0.00000000000E+00 0. -1.
         22    1    1    2    0    0  0.26635676019E+02 -0.24383225154E+01  0.47932997933E+02  0.54890590674E+02  0.00000000000E+00 0.  1.
</event>
<event>
 6    1  0.1726037E-005  0.4832911E+02  0.7818608E-02  0.1496654E+00
          2   -1    0    0  502    0  0.00000000000E+00  0.00000000000E+00  0.11541101919E+03  0.11541101919E+03  0.00000000000E+00 0. -1.
          1   -1    0    0  501    0 -0.00000000000E+00 -0.00000000000E+00 -0.22009183307E+03  0.22009183307E+03  0.00000000000E+00 0.  1.
          2    1    1    2  501    0  0.64989968489E+02  0.26131041797E+01  0.36031794987E+01  0.65142207671E+02  0.00000000000E+00 0. -1.
          1    1    1    2  502    0 -0.33138628965E+02  0.70765309287E+01 -0.13153886283E+03  0.13583342172E+03  0.00000000000E+00 0.  1.
         22    1    1    2    0    0 -0.31578831576E+02 -0.36256474667E+02  0.67526713493E+02  0.82895184385E+02  0.00000000000E+00 0. -1.
         22    1    1    2    0    0 -0.27250794940E+00  0.26566839558E+02 -0.44271844033E+02  0.51632038492E+02  0.00000000000E+00 0. -1.
</event>
<event>
 6    1  0.1726037E-005  0.4055468E+02  0.7818608E-02  0.1509140E+00
          2   -1    0    0  502    0  0.00000000000E+00  0.00000000000E+00  0.44342672128E+03  0.44342672128E+03  0.00000000000E+00 0. -1.
          1   -1    0    0  501    0 -0.00000000000E+00 -0.00000000000E+00 -0.65252689960E+02  0.65252689960E+02  0.00000000000E+00 0. -1.
          2    1    1    2  501    0  0.55798514641E+02 -0.42304989228E-01  0.27688788010E+03  0.28245419836E+03  0.00000000000E+00 0. -1.
          1    1    1    2  502    0 -0.57947132283E+02  0.22910699150E+01 -0.92096730085E+01  0.58719138431E+02  0.00000000000E+00 0. -1.
         22    1    1    2    0    0 -0.42086662488E+01  0.26807924222E+02  0.12943184702E+03  0.13224590994E+03  0.00000000000E+00 0. -1.
         22    1    1    2    0    0  0.63572838902E+01 -0.29056689147E+02 -0.18936022785E+02  0.35260164514E+02  0.00000000000E+00 0. -1.
</event>
<event>
 6    1  0.1726037E-005  0.1047452E+03  0.7818608E-02  0.1400036E+00
          2   -1    0    0  502    0  0.00000000000E+00  0.00000000000E+00  0.49456849628E+02  0.49456849628E+02  0.00000000000E+00 0. -1.
          1   -1    0    0  501    0 -0.00000000000E+00 -0.00000000000E+00 -0.33188719959E+03  0.33188719959E+03  0.00000000000E+00 0. -1.
          2    1    1    2  501    0 -0.42594950465E+02 -0.82208498891E+01 -0.26593858049E+02  0.50883646331E+02  0.00000000000E+00 0. -1.
          1    1    1    2  502    0 -0.30738954323E+02 -0.18843755643E+01 -0.13923270990E+03  0.14259797225E+03  0.00000000000E+00 0. -1.
         22    1    1    2    0    0  0.58279190240E+01  0.91991767598E+01  0.27036673370E+02  0.29147404689E+02  0.00000000000E+00 0. -1.
         22    1    1    2    0    0  0.67505985764E+02  0.90604869363E+00 -0.14364045539E+03  0.15871502595E+03  0.00000000000E+00 0. -1.
</event>
<event>
 6    1  0.2163105E-005  0.9493904E+02  0.7818608E-02  0.1304956E+00
          2   -1    0    0  502    0  0.00000000000E+00  0.00000000000E+00  0.11254688395E+04  0.11254688395E+04  0.00000000000E+00 0. -1.
          1   -1    0    0  501    0 -0.00000000000E+00 -0.00000000000E+00 -0.60321392205E+02  0.60321392205E+02  0.00000000000E+00 0.  1.
          2    1    1    2  501    0 -0.32991379809E+02 -0.91196725507E+02  0.84099396180E+03  0.84656725526E+03  0.00000000000E+00 0. -1.
          1    1    1    2  502    0 -0.24004358766E+02  0.42657910993E+02  0.17595212382E+03  0.18263366745E+03  0.00000000000E+00 0.  1.
         22    1    1    2    0    0 -0.18078486049E+02  0.16332306021E+02  0.68255120071E+02  0.72473010794E+02  0.00000000000E+00 0. -1.
         22    1    1    2    0    0  0.75074224625E+02  0.32206508493E+02 -0.20053758422E+02  0.84116298178E+02  0.00000000000E+00 0.  1.
</event>
<event>
 6    1  0.1726037E-005  0.4712150E+02  0.7818608E-02  0.1517914E+00
          2   -1    0    0  502    0  0.00000000000E+00  0.00000000000E+00  0.45508327476E+03  0.45508327476E+03  0.00000000000E+00 0. -1.
          1   -1    0    0  501    0 -0.00000000000E+00 -0.00000000000E+00 -0.19965383716E+02  0.19965383716E+02  0.00000000000E+00 0. -1.
          2    1    1    2  501    0  0.18067654705E+02 -0.16136650301E+02  0.74261574508E+02  0.78112822750E+02  0.00000000000E+00 0. -1.
          1    1    1    2  502    0 -0.28339152423E+02 -0.21984241143E+02  0.52136188667E+02  0.63281881984E+02  0.00000000000E+00 0. -1.
         22    1    1    2    0    0 -0.15598461402E+02 -0.27758932776E+02  0.22951591367E+02  0.39251062320E+02  0.00000000000E+00 0.  1.
         22    1    1    2    0    0  0.25869959120E+02  0.65879824220E+02  0.28576853650E+03  0.29440289143E+03  0.00000000000E+00 0. -1.
</event>
<event>
 6    1  0.1726037E-005  0.2922409E+02  0.7818608E-02  0.1689220E+00
          2   -1    0    0  502    0  0.00000000000E+00  0.00000000000E+00  0.22030677945E+03  0.22030677945E+03  0.00000000000E+00 0.  1.
          1   -1    0    0  501    0 -0.00000000000E+00 -0.00000000000E+00 -0.14800745999E+03  0.14800745999E+03  0.00000000000E+00 0.  1.
          2    1    1    2  501    0  0.13635805998E+02  0.17398718531E+02  0.16433323478E+03  0.16581333682E+03  0.00000000000E+00 0.  1.
          1    1    1    2  502    0 -0.28031538606E+02 -0.43845284215E+02 -0.24711082068E+02  0.57609145815E+02  0.00000000000E+00 0.  1.
         22    1    1    2    0    0  0.21000893928E+02  0.17043100437E+02 -0.10347805954E+03  0.10695425950E+03  0.00000000000E+00 0.  1.
         22    1    1    2    0    0 -0.66051613206E+01  0.94034652472E+01  0.36155226278E+02  0.37937497308E+02  0.00000000000E+00 0. -1.
</event>
<event>
 6    1  0.1726037E-005  0.4538336E+02  0.7818608E-02  0.1472052E+00
          2   -1    0    0  502    0  0.00000000000E+00  0.00000000000E+00  0.17109343851E+03  0.17109343851E+03  0.00000000000E+00 0.  1.
          1   -1    0    0  501    0 -0.00000000000E+00 -0.00000000000E+00 -0.13180938736E+03  0.13180938736E+03  0.00000000000E+00 0. -1.
          2    1    1    2  501    0  0.26306314942E+02 -0.19034146576E+02  0.10282708871E+03  0.10783195776E+03  0.00000000000E+00 0.  1.
          1    1    1    2  502    0 -0.15030398373E+02  0.23748397326E+02 -0.64229737874E+02  0.70109617587E+02  0.00000000000E+00 0. -1.
         22    1    1    2    0    0 -0.14577991967E+02  0.67816283614E+01 -0.60508463902E+02  0.62608166694E+02  0.00000000000E+00 0. -1.
         22    1    1    2    0    0  0.33020753983E+01 -0.11495879111E+02  0.61195164218E+02  0.62353083823E+02  0.00000000000E+00 0.  1.
</event>
<event>
 6    1  0.1726037E-005  0.1149509E+03  0.7818608E-02  0.1315262E+00
          2   -1    0    0  502    0  0.00000000000E+00  0.00000000000E+00  0.15164927800E+04  0.15164927800E+04  0.00000000000E+00 0. -1.
          1   -1    0    0  501    0 -0.00000000000E+00 -0.00000000000E+00 -0.74544900284E+02  0.74544900284E+02  0.00000000000E+00 0. -1.
          2    1    1    2  501    0 -0.48150588115E+02 -0.10870930215E+03  0.10873790030E+02  0.11939192108E+03  0.00000000000E+00 0. -1.
          1    1    1    2  502    0 -0.28748237964E+02  0.71513001450E+02  0.11337242930E+04  0.11363412089E+04  0.00000000000E+00 0. -1.
         22    1    1    2    0    0 -0.31177855763E+02 -0.14707301993E+02  0.54812896075E+02  0.64751965206E+02  0.00000000000E+00 0.  1.
         22    1    1    2    0    0  0.10807668184E+03  0.51903602691E+02  0.24253690057E+03  0.27055258504E+03  0.00000000000E+00 0. -1.
</event>
<event>
 6    1  0.1726037E-005  0.3816285E+02  0.7818608E-02  0.1577971E+00
          2   -1    0    0  502    0  0.00000000000E+00  0.00000000000E+00  0.16018138572E+03  0.16018138572E+03  0.00000000000E+00 0. -1.
          1   -1    0    0  501    0 -0.00000000000E+00 -0.00000000000E+00 -0.27163255593E+03  0.27163255593E+03  0.00000000000E+00 0.  1.
          2    1    1    2  501    0 -0.14186271432E+01  0.36820145148E+02  0.11055147552E+03  0.11653052961E+03  0.00000000000E+00 0. -1.
          1    1    1    2  502    0 -0.15676382421E+02 -0.34515719058E+02 -0.17522045796E+03  0.17927435041E+03  0.00000000000E+00 0.  1.
         22    1    1    2    0    0 -0.13851836910E+02  0.72384579049E+01  0.40233431807E+02  0.43162456992E+02  0.00000000000E+00 0. -1.
         22    1    1    2    0    0  0.30946846474E+02 -0.95428839946E+01 -0.87015619574E+02  0.92846604631E+02  0.00000000000E+00 0.  1.
</event>
<event>
 6    1  0.1912165E-005  0.1208284E+03  0.7818608E-02  0.1242641E+00
          2   -1    0    0  502    0  0.00000000000E+00  0.00000000000E+00  0.35024894663E+03  0.35024894663E+03  0.00000000000E+00 0. -1.
          1   -1    0    0  501    0 -0.00000000000E+00 -0.00000000000E+00 -0.20981394198E+03  0.20981394198E+03  0.00000000000E+00 0. -1.
          2    1    1    2  501    0  0.51971371076E+02  0.72421805292E+02  0.20290195733E+03  0.22161937096E+03  0.00000000000E+00 0. -1.
          1    1    1    2  502    0 -0.57380121379E+02 -0.86695811409E+02 -0.15155220758E+03  0.18378442172E+03  0.00000000000E+00 0. -1.
         22    1    1    2    0    0 -0.11701335397E+02 -0.77512323615E+01 -0.29590248923E+02  0.32750353960E+02  0.00000000000E+00 0.  1.
         22    1    1    2    0    0  0.17110085700E+02  0.22025238479E+02  0.11867550382E+03  0.12190874198E+03  0.00000000000E+00 0. -1.
</event>
<event>
 6    1  0.1726037E-005  0.4798397E+02  0.7818608E-02  0.1496347E+00
          2   -1    0    0  502    0  0.00000000000E+00  0.00000000000E+00  0.12044687570E+03  0.12044687570E+03  0.00000000000E+00 0. -1.
          1   -1    0    0  501    0 -0.00000000000E+00 -0.00000000000E+00 -0.19445995486E+03  0.19445995486E+03  0.00000000000E+00 0.  1.
          2    1    1    2  501    0 -0.55403777762E+02  0.12748071457E+02  0.31728684116E+02  0.65106077381E+02  0.00000000000E+00 0. -1.
          1    1    1    2  502    0  0.19197458387E+02 -0.24456084806E+02 -0.11265472500E+03  0.11686628923E+03  0.00000000000E+00 0.  1.
         22    1    1    2    0    0  0.20708530293E+02  0.17729280412E+02  0.66076454435E+02  0.71479146900E+02  0.00000000000E+00 0. -1.
         22    1    1    2    0    0  0.15497789082E+02 -0.60212670630E+01 -0.59163492712E+02  0.61455317047E+02  0.00000000000E+00 0.  1.
</event>
<event>
 6    1  0.1726037E-005  0.5142946E+02  0.7818608E-02  0.1485928E+00
          2   -1    0    0  502    0  0.00000000000E+00  0.00000000000E+00  0.76714836887E+02  0.76714836887E+02  0.00000000000E+00 0.  1.
          1   -1    0    0  501    0 -0.00000000000E+00 -0.00000000000E+00 -0.11531595929E+03  0.11531595929E+03  0.00000000000E+00 0.  1.
          2    1    1    2  501    0  0.58326923506E+01 -0.36269946559E+02 -0.29169496131E+01  0.36851566025E+02  0.00000000000E+00 0.  1.
          1    1    1    2  502    0  0.13615494413E+02  0.18131428803E+02 -0.16028612868E+02  0.27767729995E+02  0.00000000000E+00 0.  1.
         22    1    1    2    0    0 -0.24191329833E+02 -0.83571834726E+01  0.48110828355E+02  0.54495089317E+02  0.00000000000E+00 0.  1.
         22    1    1    2    0    0  0.47431430690E+01  0.26495701229E+02 -0.67766388274E+02  0.72916410838E+02  0.00000000000E+00 0.  1.
</event>
<event>
 6    1  0.1726037E-005  0.2292382E+03  0.7818608E-02  0.1127789E+00
          2   -1    0    0  502    0  0.00000000000E+00  0.00000000000E+00  0.23494465009E+03  0.23494465009E+03  0.00000000000E+00 0.  1.
          1   -1    0    0  501    0 -0.00000000000E+00 -0.00000000000E+00 -0.55575992660E+03  0.55575992660E+03  0.00000000000E+00 0.  1.
          2    1    1    2  501    0 -0.67501744435E+00  0.21209307977E+03  0.13940428879E+03  0.25380600046E+03  0.00000000000E+00 0.  1.
          1    1    1    2  502    0 -0.58045277164E+01 -0.12760993130E+03 -0.21392260108E+03  0.24916032260E+03  0.00000000000E+00 0.  1.
         22    1    1    2    0    0  0.13822056294E+02 -0.96017573925E+02 -0.25410536204E+03  0.27199257115E+03  0.00000000000E+00 0.  1.
         22    1    1    2    0    0 -0.73425111333E+01  0.11534425452E+02  0.78083978186E+01  0.15745682479E+02  0.00000000000E+00 0. -1.
</event>
<event>
 6    1  0.1726037E-005  0.2390713E+03  0.7818608E-02  0.1241982E+00
          2   -1    0    0  502    0  0.00000000000E+00  0.00000000000E+00  0.19446393491E+03  0.19446393491E+03  0.00000000000E+00 0.  1.
          1   -1    0    0  501    0 -0.00000000000E+00 -0.00000000000E+00 -0.47699978658E+03  0.47699978658E+03  0.00000000000E+00 0. -1.
          2    1    1    2  501    0  0.95804452208E+02  0.14664445992E+03  0.88972775751E+02  0.19646690692E+03  0.00000000000E+00 0.  1.
          1    1    1    2  502    0  0.25283540033E+02 -0.89590923850E+02 -0.21336054956E+03  0.23278426739E+03  0.00000000000E+00 0. -1.
         22    1    1    2    0    0 -0.11962896314E+03 -0.72506455159E+02 -0.17179540346E+03  0.22154443237E+03  0.00000000000E+00 0. -1.
         22    1    1    2    0    0 -0.14590291011E+01  0.15452919084E+02  0.13647325605E+02  0.20668114823E+02  0.00000000000E+00 0. -1.
</event>
<event>
 6    1  0.1726037E-005  0.6740226E+02  0.7818608E-02  0.1458690E+00
          2   -1    0    0  502    0  0.00000000000E+00  0.00000000000E+00  0.52003722344E+03  0.52003722344E+03  0.00000000000E+00 0. -1.
          1   -1    0    0  501    0 -0.00000000000E+00 -0.00000000000E+00 -0.14384706269E+03  0.14384706269E+03  0.00000000000E+00 0.  1.
          2    1    1    2  501    0 -0.24156895763E+02  0.40374093090E+02  0.46244091468E+03  0.46482816456E+03  0.00000000000E+00 0. -1.
          1    1    1    2  502    0  0.21375738232E+02 -0.17028674539E+02 -0.59018124187E+02  0.65038734029E+02  0.00000000000E+00 0.  1.
         22    1    1    2    0    0  0.19698608238E+01 -0.40101539870E+02 -0.74077953388E+02  0.84258869146E+02  0.00000000000E+00 0.  1.
         22    1    1    2    0    0  0.81129670740E+00  0.16756121320E+02  0.46845323650E+02  0.49758518386E+02  0.00000000000E+00 0. -1.
</event>
<event>
 6    1  0.1726037E-005  0.1150357E+03  0.7818608E-02  0.1357699E+00
          2   -1    0    0  502    0  0.00000000000E+00  0.00000000000E+00  0.68120198780E+02  0.68120198780E+02  0.00000000000E+00 0.  1.
          1   -1    0    0  501    0 -0.00000000000E+00 -0.00000000000E+00 -0.46445513724E+03  0.46445513724E+03  0.00000000000E+00 0. -1.
          2    1    1    2  501    0  0.60187272765E+02  0.81277014293E+02 -0.12103642676E+02  0.10185754278E+03  0.00000000000E+00 0.  1.
          1    1    1    2  502    0 -0.16702267218E+02 -0.34523796959E+02 -0.16688224141E+03  0.17123241745E+03  0.00000000000E+00 0. -1.
         22    1    1    2    0    0 -0.59852753074E+02 -0.48072145136E+02 -0.22755234115E+03  0.24015276628E+03  0.00000000000E+00 0. -1.
         22    1    1    2    0    0  0.16367747527E+02  0.13189278024E+01  0.10203286775E+02  0.19332609515E+02  0.00000000000E+00 0. -1.
</event>
<event>
 6    1  0.1726037E-005  0.1629444E+03  0.7818608E-02  0.1268307E+00
          2   -1    0    0  502    0  0.00000000000E+00  0.00000000000E+00  0.98998662818E+02  0.98998662818E+02  0.00000000000E+00 0. -1.
          1   -1    0    0  501    0 -0.00000000000E+00 -0.00000000000E+00 -0.42468902836E+03  0.42468902836E+03  0.00000000000E+00 0. -1.
          2    1    1    2  501    0 -0.10937881969E+03 -0.12538297823E+03 -0.23700918051E+03  0.28958240463E+03  0.00000000000E+00 0. -1.
          1    1    1    2  502    0  0.20562013158E+02  0.12393970290E+02 -0.11952495224E+01  0.24038209295E+02  0.00000000000E+00 0. -1.
         22    1    1    2    0    0  0.83159155837E+02  0.84445100418E+02 -0.11845979817E+03  0.16756832626E+03  0.00000000000E+00 0. -1.
         22    1    1    2    0    0  0.56576506907E+01  0.28543907519E+02  0.30973862660E+02  0.42498750992E+02  0.00000000000E+00 0.  1.
</event>
<event>
 6    1  0.1726037E-005  0.7727217E+02  0.7818608E-02  0.1418070E+00
          2   -1    0    0  502    0  0.00000000000E+00  0.00000000000E+00  0.22964988365E+03  0.22964988365E+03  0.00000000000E+00 0. -1.
          1   -1    0    0  501    0 -0.00000000000E+00 -0.00000000000E+00 -0.17718096201E+03  0.17718096201E+03  0.00000000000E+00 0.  1.
          2    1    1    2  501    0  0.62830600261E+02 -0.11806027332E+01  0.14807560106E+03  0.16085851479E+03  0.00000000000E+00 0. -1.
          1    1    1    2  502    0 -0.82046503906E+02  0.13100390865E+02 -0.76633127212E+02  0.11303046151E+03  0.00000000000E+00 0.  1.
         22    1    1    2    0    0  0.98769733622E+01  0.62868382539E+01  0.54978405093E+02  0.56211244111E+02  0.00000000000E+00 0.  1.
         22    1    1    2    0    0  0.93389302825E+01 -0.18206626385E+02 -0.73951957291E+02  0.76730625244E+02  0.00000000000E+00 0.  1.
</event>
<event>
 6    1  0.1726037E-005  0.7155682E+02  0.7818608E-02  0.1365269E+00
          2   -1    0    0  502    0  0.00000000000E+00  0.00000000000E+00  0.38709547202E+03  0.38709547202E+03  0.00000000000E+00 0. -1.
          1   -1    0    0  501    0 -0.00000000000E+00 -0.00000000000E+00 -0.19817022809E+03  0.19817022809E+03  0.00000000000E+00 0. -1.
          2    1    1    2  501    0 -0.94762091929E+01  0.16296618401E+03  0.14460948660E+03  0.21808181787E+03  0.00000000000E+00 0. -1.
          1    1    1    2  502    0  0.60781472423E+02 -0.13135695557E+03 -0.91745958048E+02  0.17136615180E+03  0.00000000000E+00 0. -1.
         22    1    1    2    0    0 -0.26177858066E+02 -0.19026383785E+02 -0.19470271091E+02  0.37767379962E+02  0.00000000000E+00 0. -1.
         22    1    1    2    0    0 -0.25127405165E+02 -0.12582844654E+02  0.15553198647E+03  0.15805035048E+03  0.00000000000E+00 0. -1.
</event>
<event>
 6    1  0.1726037E-005  0.6234462E+02  0.7818608E-02  0.1476817E+00
          2   -1    0    0  502    0  0.00000000000E+00  0.00000000000E+00  0.13743177956E+04  0.13743177956E+04  0.00000000000E+00 0. -1.
          1   -1    0    0  501    0 -0.00000000000E+00 -0.00000000000E+00 -0.13559171576E+03  0.13559171576E+03  0.00000000000E+00 0.  1.
          2    1    1    2  501    0 -0.43410263137E+02 -0.20871131237E+02  0.12679966549E+04  0.12689111758E+04  0.00000000000E+00 0. -1.
          1    1    1    2  502    0  0.48658030837E+02  0.83418086028E+01 -0.91926398384E+02  0.10434391432E+03  0.00000000000E+00 0.  1.
         22    1    1    2    0    0  0.10106560134E+02  0.69489193161E+01 -0.35287348290E+02  0.37358091316E+02  0.00000000000E+00 0.  1.
         22    1    1    2    0    0 -0.15354327833E+02  0.55804033177E+01  0.97943171611E+02  0.99296329991E+02  0.00000000000E+00 0.  1.
</event>
<event>
 6    1  0.1726037E-005  0.1880584E+03  0.7818608E-02  0.1199212E+00
          2   -1    0    0  502    0  0.00000000000E+00  0.00000000000E+00  0.35997722182E+03  0.35997722182E+03  0.00000000000E+00 0. -1.
          1   -1    0    0  501    0 -0.00000000000E+00 -0.00000000000E+00 -0.79269425382E+03  0.79269425382E+03  0.00000000000E+00 0. -1.
          2    1    1    2  501    0  0.19863255191E+03  0.32353752862E+02 -0.69584902792E+03  0.72436698273E+03  0.00000000000E+00 0. -1.
          1    1    1    2  502    0 -0.10716797620E+03  0.24482238158E+01 -0.14927280491E+02  0.10823027592E+03  0.00000000000E+00 0. -1.
         22    1    1    2    0    0 -0.75047128881E+02 -0.22093444011E+02  0.28699861171E+03  0.29746998999E+03  0.00000000000E+00 0. -1.
         22    1    1    2    0    0 -0.16417446828E+02 -0.12708532667E+02 -0.89393352919E+01  0.22604227002E+02  0.00000000000E+00 0.  1.
</event>
<event>
 6    1  0.1726037E-005  0.3780452E+02  0.7818608E-02  0.1576393E+00
          2   -1    0    0  502    0  0.00000000000E+00  0.00000000000E+00  0.25410813188E+02  0.25410813188E+02  0.00000000000E+00 0. -1.
          1   -1    0    0  501    0 -0.00000000000E+00 -0.00000000000E+00 -0.57182255071E+03  0.57182255071E+03  0.00000000000E+00 0. -1.
          2    1    1    2  501    0 -0.15100997002E+02 -0.13668548796E+02 -0.46057582701E+02  0.50360403700E+02  0.00000000000E+00 0. -1.
          1    1    1    2  502    0  0.13828518197E+02 -0.31221104659E+02 -0.32276098818E+03  0.32456222945E+03  0.00000000000E+00 0. -1.
         22    1    1    2    0    0  0.19161858641E+02 -0.38703558036E+01  0.13843151497E+02  0.23953899974E+02  0.00000000000E+00 0. -1.
         22    1    1    2    0    0 -0.17889379837E+02  0.48760009259E+02 -0.19143631813E+03  0.19835683077E+03  0.00000000000E+00 0.  1.
</event>
<event>
 6    1  0.1726037E-005  0.3808616E+02  0.7818608E-02  0.1616532E+00
          2   -1    0    0  502    0  0.00000000000E+00  0.00000000000E+00  0.58827525619E+02  0.58827525619E+02  0.00000000000E+00 0. -1.
          1   -1    0    0  501    0 -0.00000000000E+00 -0.00000000000E+00 -0.24855649781E+03  0.24855649781E+03  0.00000000000E+00 0.  1.
          2    1    1    2  501    0  0.14783636156E+02  0.20865791585E+02  0.19609483060E+01  0.25647270317E+02  0.00000000000E+00 0. -1.
          1    1    1    2  502    0 -0.94289368458E+01 -0.20999192902E+02 -0.14546629698E+03  0.14727632026E+03  0.00000000000E+00 0.  1.
         22    1    1    2    0    0 -0.14251823789E+02 -0.75688799540E+01 -0.88817128658E+02  0.90271173517E+02  0.00000000000E+00 0.  1.
         22    1    1    2    0    0  0.88971244781E+01  0.77022812710E+01  0.42593505138E+02  0.44189259336E+02  0.00000000000E+00 0. -1.
</event>
<event>
 6    1  0.1726037E-005  0.9579019E+02  0.7818608E-02  0.1356346E+00
          2   -1    0    0  502    0  0.00000000000E+00  0.00000000000E+00  0.15060650431E+03  0.15060650431E+03  0.00000000000E+00 0.  1.
          1   -1    0    0  501    0 -0.00000000000E+00 -0.00000000000E+00 -0.98398569036E+02  0.98398569036E+02  0.00000000000E+00 0.  1.
          2    1    1    2  501    0 -0.18845453264E+02 -0.59948377169E+02  0.57824368113E+02  0.85396818334E+02  0.00000000000E+00 0.  1.
          1    1    1    2  502    0  0.11795861857E+02  0.35298059935E+02  0.71673861986E+01  0.37900749558E+02  0.00000000000E+00 0.  1.
         22    1    1    2    0    0  0.12377916575E+02 -0.26333399155E+02  0.41733144331E+02  0.50875495728E+02  0.00000000000E+00 0. -1.
         22    1    1    2    0    0 -0.53283251680E+01  0.50983716388E+02 -0.54516963364E+02  0.74832009731E+02  0.00000000000E+00 0.  1.
</event>
<event>
 6    1  0.1726037E-005  0.7991852E+02  0.7818608E-02  0.1340921E+00
          2   -1    0    0  502    0  0.00000000000E+00  0.00000000000E+00  0.49092501749E+03  0.49092501749E+03  0.00000000000E+00 0. -1.
          1   -1    0    0  501    0 -0.00000000000E+00 -0.00000000000E+00 -0.98375623681E+02  0.98375623681E+02  0.00000000000E+00 0.  1.
          2    1    1    2  501    0  0.27496732026E+02 -0.36501861562E+02  0.24631227682E+03  0.25051585555E+03  0.00000000000E+00 0. -1.
          1    1    1    2  502    0  0.29211936073E+02  0.58702583372E+02 -0.62309859000E+02  0.90453573905E+02  0.00000000000E+00 0.  1.
         22    1    1    2    0    0 -0.52304919168E+02 -0.38969260235E+02  0.21871399926E+03  0.22823282254E+03  0.00000000000E+00 0. -1.
         22    1    1    2    0    0 -0.44037489304E+01  0.16768538425E+02 -0.10167023266E+02  0.20098389180E+02  0.00000000000E+00 0. -1.
</event>
<event>
 6    1  0.1726037E-005  0.7678195E+02  0.7818608E-02  0.1443591E+00
          2   -1    0    0  502    0  0.00000000000E+00  0.00000000000E+00  0.52979130153E+02  0.52979130153E+02  0.00000000000E+00 0.  1.
          1   -1    0    0  501    0 -0.00000000000E+00 -0.00000000000E+00 -0.54850583961E+03  0.54850583961E+03  0.00000000000E+00 0.  1.
          2    1    1    2  501    0  0.47888621665E+02 -0.39785536915E+02 -0.32273411457E+03  0.32868452616E+03  0.00000000000E+00 0.  1.
          1    1    1    2  502    0 -0.50752029189E+02  0.90168688024E+01 -0.13258425084E+03  0.14225208596E+03  0.00000000000E+00 0.  1.
         22    1    1    2    0    0  0.14164115898E+02  0.43394159694E+00  0.40864445016E+02  0.43251743906E+02  0.00000000000E+00 0.  1.
         22    1    1    2    0    0 -0.11300708373E+02  0.30334726516E+02 -0.81072789063E+02  0.87296613731E+02  0.00000000000E+00 0. -1.
</event>
<event>
 6    1  0.1726037E-005  0.6745758E+02  0.7818608E-02  0.1373406E+00
          2   -1    0    0  502    0  0.00000000000E+00  0.00000000000E+00  0.24770557476E+02  0.24770557476E+02  0.00000000000E+00 0. -1.
          1   -1    0    0  501    0 -0.00000000000E+00 -0.00000000000E+00 -0.42995015466E+03  0.42995015466E+03  0.00000000000E+00 0.  1.
          2    1    1    2  501    0 -0.43731678588E+01 -0.29278345453E+02 -0.21266376334E+02  0.36450032538E+02  0.00000000000E+00 0. -1.
          1    1    1    2  502    0  0.20512322656E+02  0.19977207628E+02 -0.15322470594E+03  0.15587705000E+03  0.00000000000E+00 0.  1.
         22    1    1    2    0    0 -0.93459757451E+01 -0.28846402400E+02 -0.19378725665E+01  0.30384495127E+02  0.00000000000E+00 0. -1.
         22    1    1    2    0    0 -0.67931790525E+01  0.38147540226E+02 -0.22875064234E+03  0.23200913447E+03  0.00000000000E+00 0. -1.
</event>
<event>
 6    1  0.1726037E-005  0.1439287E+03  0.7818608E-02  0.1334861E+00
          2   -1    0    0  502    0  0.00000000000E+00  0.00000000000E+00  0.10045043881E+03  0.10045043881E+03  0.00000000000E+00 0. -1.
          1   -1    0    0  501    0 -0.00000000000E+00 -0.00000000000E+00 -0.27559443124E+03  0.27559443124E+03  0.00000000000E+00 0. -1.
          2    1    1    2  501    0 -0.77774259486E+02 -0.63492144272E+02  0.13716916425E+02  0.10133233255E+03  0.00000000000E+00 0. -1.
          1    1    1    2  502    0  0.20265580951E+01  0.53243242487E+02 -0.43359535178E+02  0.68694971426E+02  0.00000000000E+00 0. -1.
         22    1    1    2    0    0  0.84143288512E+02  0.19383644009E+02 -0.16306395325E+03  0.18451469185E+03  0.00000000000E+00 0. -1.
         22    1    1    2    0    0 -0.83955871213E+01 -0.91347422250E+01  0.17562579581E+02  0.21502874231E+02  0.00000000000E+00 0.  1.
</event>
<event>
 6    1  0.1726037E-005  0.1631390E+03  0.7818608E-02  0.1304155E+00
          2   -1    0    0  502    0  0.00000000000E+00  0.00000000000E+00  0.24069412746E+03  0.24069412746E+03  0.00000000000E+00 0.  1.
          1   -1    0    0  501    0 -0.00000000000E+00 -0.00000000000E+00 -0.37483319601E+03  0.37483319601E+03  0.00000000000E+00 0.  1.
          2    1    1    2  501    0 -0.14149297114E+03  0.43272341163E+02  0.11962586627E+03  0.19027113358E+03  0.00000000000E+00 0.  1.
          1    1    1    2  502    0  0.13347027067E+03 -0.51390247592E+02 -0.26178491057E+03  0.29830623544E+03  0.00000000000E+00 0.  1.
         22    1    1    2    0    0  0.20399712193E+02  0.86815293929E-01 -0.56862484640E+02  0.60411074762E+02  0.00000000000E+00 0.  1.
         22    1    1    2    0    0 -0.12377011722E+02  0.80310911355E+01  0.64882460392E+02  0.66538879691E+02  0.00000000000E+00 0. -1.
</event>
<event>
 6    1  0.1726037E-005  0.8749488E+02  0.7818608E-02  0.1399035E+00
          2   -1    0    0  502    0  0.00000000000E+00  0.00000000000E+00  0.25358129328E+03  0.25358129328E+03  0.00000000000E+00 0.  1.
          1   -1    0    0  501    0 -0.00000000000E+00 -0.00000000000E+00 -0.11692580635E+03  0.11692580635E+03  0.00000000000E+00 0. -1.
          2    1    1    2  501    0 -0.61425567712E+01 -0.75001351221E+02  0.17342855182E+03  0.18905130593E+03  0.00000000000E+00 0.  1.
          1    1    1    2  502    0  0.27982791259E+02  0.26792165490E+02 -0.20699433292E+02  0.43924062618E+02  0.00000000000E+00 0. -1.
         22    1    1    2    0    0 -0.35512352046E+01  0.43124050983E+02 -0.68921184249E+02  0.81378281396E+02  0.00000000000E+00 0.  1.
         22    1    1    2    0    0 -0.18288999283E+02  0.50851347480E+01  0.52847552657E+02  0.56153449689E+02  0.00000000000E+00 0.  1.
</event>
<event>
 6    1  0.1726037E-005  0.4718021E+02  0.7818608E-02  0.1540623E+00
          2   -1    0    0  502    0  0.00000000000E+00  0.00000000000E+00  0.66694010456E+03  0.66694010456E+03  0.00000000000E+00 0. -1.
          1   -1    0    0  501    0 -0.00000000000E+00 -0.00000000000E+00 -0.90988058647E+02  0.90988058647E+02  0.00000000000E+00 0. -1.
          2    1    1    2  501    0 -0.51494496023E+01 -0.38341587115E+02  0.58389531342E+03  0.58517547041E+03  0.00000000000E+00 0. -1.
          1    1    1    2  502    0 -0.17798176561E+02  0.11133526761E+02 -0.33363077302E+02  0.39418592493E+02  0.00000000000E+00 0. -1.
         22    1    1    2    0    0  0.23322219554E+02  0.11370091635E+02 -0.49966319691E+02  0.56301314480E+02  0.00000000000E+00 0. -1.
         22    1    1    2    0    0 -0.37459339039E+00  0.15837968719E+02  0.75386129487E+02  0.77032785828E+02  0.00000000000E+00 0. -1.
</event>
<event>
 6    1  0.1726037E-005  0.4779575E+02  0.7818608E-02  0.1551041E+00
          2   -1    0    0  502    0  0.00000000000E+00  0.00000000000E+00  0.72487860864E+02  0.72487860864E+02  0.00000000000E+00 0.  1.
          1   -1    0    0  501    0 -0.00000000000E+00 -0.00000000000E+00 -0.23161740269E+03  0.23161740269E+03  0.00000000000E+00 0.  1.
          2    1    1    2  501    0  0.22380060740E+02  0.32801537348E+02  0.63253328905E+01  0.40209673056E+02  0.00000000000E+00 0.  1.
          1    1    1    2  502    0 -0.76800482397E+01 -0.31402530590E+02 -0.12441402964E+03  0.12854552827E+03  0.00000000000E+00 0.  1.
         22    1    1    2    0    0 -0.61389803785E+01  0.11820337014E+02  0.45488850690E+02  0.47398765641E+02  0.00000000000E+00 0.  1.
         22    1    1    2    0    0 -0.85610321216E+01 -0.13219343772E+02 -0.86529695768E+02  0.87951296582E+02  0.00000000000E+00 0.  1.
</event>
<event>
 6    1  0.1726037E-005  0.8817532E+02  0.7818608E-02  0.1387054E+00
          2   -1    0    0  502    0  0.00000000000E+00  0.00000000000E+00  0.52733314647E+02  0.52733314647E+02  0.00000000000E+00 0.  1.
          1   -1    0    0  501    0 -0.00000000000E+00 -0.00000000000E+00 -0.63231941912E+03  0.63231941912E+03  0.00000000000E+00 0. -1.
          2    1    1    2  501    0 -0.35654995878E+02  0.83432166671E+02 -0.39278150238E+02  0.98868489685E+02  0.00000000000E+00 0.  1.
          1    1    1    2  502    0  0.25133419176E+02 -0.21081712987E+02 -0.32755978364E+03  0.32919832812E+03  0.00000000000E+00 0. -1.
         22    1    1    2    0    0  0.22481865298E+02 -0.43333289174E+02 -0.22579133554E+03  0.23100851808E+03  0.00000000000E+00 0. -1.
         22    1    1    2    0    0 -0.11960288596E+02 -0.19017164511E+02  0.13043164941E+02  0.25977397887E+02  0.00000000000E+00 0. -1.
</event>
<event>
 6    1  0.1726037E-005  0.3334524E+02  0.7818608E-02  0.1651857E+00
          2   -1    0    0  502    0  0.00000000000E+00  0.00000000000E+00  0.87168951150E+02  0.87168951150E+02  0.00000000000E+00 0.  1.
          1   -1    0    0  501    0 -0.00000000000E+00 -0.00000000000E+00 -0.10437189649E+03  0.10437189649E+03  0.00000000000E+00 0.  1.
          2    1    1    2  501    0  0.15577401677E+02 -0.15036063484E+02 -0.15274248351E+02  0.26496062175E+02  0.00000000000E+00 0.  1.
          1    1    1    2  502    0  0.44601457229E+01 -0.24825337193E+02  0.15128112024E+02  0.29411733033E+02  0.00000000000E+00 0.  1.
         22    1    1    2    0    0 -0.96142164114E+01  0.66187179006E+01  0.54665194241E+02  0.55897442207E+02  0.00000000000E+00 0.  1.
         22    1    1    2    0    0 -0.10423330989E+02  0.33242682776E+02 -0.71722003250E+02  0.79735610221E+02  0.00000000000E+00 0.  1.
</event>
<event>
 6    1  0.1726037E-005  0.1346257E+03  0.7818608E-02  0.1328346E+00
          2   -1    0    0  502    0  0.00000000000E+00  0.00000000000E+00  0.17511382379E+03  0.17511382379E+03  0.00000000000E+00 0. -1.
          1   -1    0    0  501    0 -0.00000000000E+00 -0.00000000000E+00 -0.21237308213E+03  0.21237308213E+03  0.00000000000E+00 0. -1.
          2    1    1    2  501    0 -0.26321575967E+02 -0.13248474751E+03 -0.10377369005E+03  0.17033500060E+03  0.00000000000E+00 0. -1.
          1    1    1    2  502    0  0.20105364493E+02  0.53884713588E+02  0.81019174468E+00  0.57519079013E+02  0.00000000000E+00 0. -1.
         22    1    1    2    0    0 -0.67514753889E+01  0.67611652737E+02 -0.21124634764E+02  0.71155942827E+02  0.00000000000E+00 0.  1.
         22    1    1    2    0    0  0.12967686862E+02  0.10988381188E+02  0.86828874729E+02  0.88476883481E+02  0.00000000000E+00 0. -1.
</event>
<event>
 6    1  0.1726037E-005  0.2091442E+03  0.7818608E-02  0.1283896E+00
          2   -1    0    0  502    0  0.00000000000E+00  0.00000000000E+00  0.10447585334E+03  0.10447585334E+03  0.00000000000E+00 0.  1.
          1   -1    0    0  501    0 -0.00000000000E+00 -0.00000000000E+00 -0.12091755136E+04  0.12091755136E+04  0.00000000000E+00 0.  1.
          2    1    1    2  501    0 -0.54323055271E+02 -0.99480954458E+02 -0.58282369652E+02  0.12745308645E+03  0.00000000000E+00 0.  1.
          1    1    1    2  502    0  0.96984022172E+02  0.93250429611E+02 -0.10445055626E+04  0.10531350405E+04  0.00000000000E+00 0.  1.
         22    1    1    2    0    0 -0.36135194352E+02  0.14082250850E+02 -0.61445197547E+02  0.72660679611E+02  0.00000000000E+00 0.  1.
         22    1    1    2    0    0 -0.65257725486E+01 -0.78517260029E+01  0.59533469537E+02  0.60402560406E+02  0.00000000000E+00 0.  1.
</event>
<event>
 6    1  0.1726037E-005  0.4742806E+02  0.7818608E-02  0.1503120E+00
          2   -1    0    0  502    0  0.00000000000E+00  0.00000000000E+00  0.20027752350E+03  0.20027752350E+03  0.00000000000E+00 0. -1.
          1   -1    0    0  501    0 -0.00000000000E+00 -0.00000000000E+00 -0.10378455858E+03  0.10378455858E+03  0.00000000000E+00 0.  1.
          2    1    1    2  501    0  0.50000872906E+02  0.34400180134E+02  0.10823158816E+03  0.12408680977E+03  0.00000000000E+00 0. -1.
          1    1    1    2  502    0 -0.88853471719E+01 -0.21631098779E+02 -0.34867994191E+02  0.41983697404E+02  0.00000000000E+00 0.  1.
         22    1    1    2    0    0 -0.25473007783E+02  0.35633489981E+01  0.76135429372E+02  0.80362772396E+02  0.00000000000E+00 0. -1.
         22    1    1    2    0    0 -0.15642517951E+02 -0.16332430353E+02 -0.53006058415E+02  0.57628802502E+02  0.00000000000E+00 0. -1.
</event>
<event>
 6    1  0.1726037E-005  0.7499039E+02  0.7818608E-02  0.1395350E+00
          2   -1    0    0  502    0  0.00000000000E+00  0.00000000000E+00  0.14062183112E+03  0.14062183112E+03  0.00000000000E+00 0.  1.
          1   -1    0    0  501    0 -0.00000000000E+00 -0.00000000000E+00 -0.35112246314E+03  0.35112246314E+03  0.00000000000E+00 0.  1.
          2    1    1    2  501    0  0.78878121871E+02  0.13059492267E+03 -0.30307172551E+02  0.15554843826E+03  0.00000000000E+00 0.  1.
          1    1    1    2  502    0 -0.31521233709E+02 -0.13582992983E+03 -0.13329443905E+03  0.19290092145E+03  0.00000000000E+00 0.  1.
         22    1    1    2    0    0 -0.11830250922E+02 -0.12157670816E+02  0.42378177856E+02  0.45647275438E+02  0.00000000000E+00 0.  1.
         22    1    1    2    0    0 -0.35526637241E+02  0.17392677978E+02 -0.89277198269E+02  0.97647659120E+02  0.00000000000E+00 0.  1.
</event>
<event>
 6    1  0.1726037E-005  0.8424384E+03  0.7818608E-02  0.9886817E-01
          2   -1    0    0  502    0  0.00000000000E+00  0.00000000000E+00  0.18227029246E+04  0.18227029246E+04  0.00000000000E+00 0.  1.
          1   -1    0    0  501    0 -0.00000000000E+00 -0.00000000000E+00 -0.64018184592E+03  0.64018184592E+03  0.00000000000E+00 0.  1.
          2    1    1    2  501    0  0.81481897735E+03  0.43721241164E+03  0.11602411331E+04  0.14836590395E+04  0.00000000000E+00 0.  1.
          1    1    1    2  502    0 -0.20307528867E+03 -0.81462777754E+02 -0.11667717918E+03  0.24797040381E+03  0.00000000000E+00 0.  1.
         22    1    1    2    0    0 -0.60172582594E+03 -0.35633798998E+03  0.15114396032E+03  0.71546853841E+03  0.00000000000E+00 0.  1.
         22    1    1    2    0    0 -0.10017862741E+02  0.58835609138E+00 -0.12186835570E+02  0.15786788718E+02  0.00000000000E+00 0. -1.
</event>
<event>
 6    1  0.1726037E-005  0.1620922E+03  0.7818608E-02  0.1254786E+00
          2   -1    0    0  502    0  0.00000000000E+00  0.00000000000E+00  0.18883895282E+03  0.18883895282E+03  0.00000000000E+00 0. -1.
          1   -1    0    0  501    0 -0.00000000000E+00 -0.00000000000E+00 -0.22746609581E+03  0.22746609581E+03  0.00000000000E+00 0. -1.
          2    1    1    2  501    0  0.13157874225E+03 -0.71962051532E+02  0.37337518733E+01  0.15001814282E+03  0.00000000000E+00 0. -1.
          1    1    1    2  502    0 -0.31841003154E+02  0.67600025644E+02 -0.73556416005E+02  0.10485303660E+03  0.00000000000E+00 0. -1.
         22    1    1    2    0    0 -0.75294038653E+02  0.34150367502E+02 -0.30976170738E+02  0.88289087722E+02  0.00000000000E+00 0. -1.
         22    1    1    2    0    0 -0.24443700444E+02 -0.29788341614E+02  0.62171691874E+02  0.73144781481E+02  0.00000000000E+00 0. -1.
</event>
<event>
 6    1  0.1726037E-005  0.3350067E+03  0.7818608E-02  0.1162892E+00
          2   -1    0    0  502    0  0.00000000000E+00  0.00000000000E+00  0.76357690161E+03  0.76357690161E+03  0.00000000000E+00 0. -1.
          1   -1    0    0  501    0 -0.00000000000E+00 -0.00000000000E+00 -0.23881579868E+03  0.23881579868E+03  0.00000000000E+00 0.  1.
          2    1    1    2  501    0  0.12119013718E+03 -0.32695375751E+03  0.44666092498E+03  0.56664961908E+03  0.00000000000E+00 0. -1.
          1    1    1    2  502    0 -0.11412634548E+03  0.22354092722E+03 -0.12695682061E+02  0.25130966797E+03  0.00000000000E+00 0.  1.
         22    1    1    2    0    0  0.86312622306E+01  0.76368241970E+02 -0.11277995397E+02  0.77677540187E+02  0.00000000000E+00 0. -1.
         22    1    1    2    0    0 -0.15695053930E+02  0.27044588318E+02  0.10207385540E+03  0.10675587306E+03  0.00000000000E+00 0. -1.
</event>
<event>
 6    1  0.1726037E-005  0.1341113E+03  0.7818608E-02  0.1327708E+00
          2   -1    0    0  502    0  0.00000000000E+00  0.00000000000E+00  0.30845514852E+03  0.30845514852E+03  0.00000000000E+00 0. -1.
          1   -1    0    0  501    0 -0.00000000000E+00 -0.00000000000E+00 -0.80400414330E+02  0.80400414330E+02  0.00000000000E+00 0. -1.
          2    1    1    2  501    0  0.82665911626E+02 -0.15368927727E+02  0.15607641766E+03  0.17728424925E+03  0.00000000000E+00 0. -1.
          1    1    1    2  502    0 -0.13304408979E+02  0.43817053784E+02 -0.10695245473E+02  0.47024778323E+02  0.00000000000E+00 0. -1.
         22    1    1    2    0    0  0.17115276546E+02 -0.30680769074E+01  0.71674593573E+02  0.73753597546E+02  0.00000000000E+00 0.  1.
         22    1    1    2    0    0 -0.86476779192E+02 -0.25380049150E+02  0.10998968431E+02  0.90792937725E+02  0.00000000000E+00 0. -1.
</event>
<event>
 6    1  0.1726037E-005  0.1836553E+03  0.7818608E-02  0.1215316E+00
          2   -1    0    0  502    0  0.00000000000E+00  0.00000000000E+00  0.17503930847E+03  0.17503930847E+03  0.00000000000E+00 0. -1.
          1   -1    0    0  501    0 -0.00000000000E+00 -0.00000000000E+00 -0.31002495585E+03  0.31002495585E+03  0.00000000000E+00 0. -1.
          2    1    1    2  501    0 -0.62640861797E+02  0.11942146699E+03 -0.15016738235E+03  0.20183063956E+03  0.00000000000E+00 0. -1.
          1    1    1    2  502    0  0.59980178205E+02 -0.14090454060E+03 -0.15531526930E+02  0.15392511058E+03  0.00000000000E+00 0. -1.
         22    1    1    2    0    0 -0.49724846194E+02  0.32598573525E+02 -0.12184651863E+02  0.60693435114E+02  0.00000000000E+00 0.  1.
         22    1    1    2    0    0  0.52385529786E+02 -0.11115499919E+02  0.42897913757E+02  0.68615079058E+02  0.00000000000E+00 0. -1.
</event>
<event>
 6    1  0.1726037E-005  0.6122643E+02  0.7818608E-02  0.1413517E+00
          2   -1    0    0  502    0  0.00000000000E+00  0.00000000000E+00  0.18761240325E+03  0.18761240325E+03  0.00000000000E+00 0.  1.
          1   -1    0    0  501    0 -0.00000000000E+00 -0.00000000000E+00 -0.86377095279E+02  0.86377095279E+02  0.00000000000E+00 0. -1.
          2    1    1    2  501    0 -0.39487672748E+01  0.35228962838E+02  0.93363334196E+02  0.99866835125E+02  0.00000000000E+00 0.  1.
          1    1    1    2  502    0 -0.93640055194E+01 -0.27586286241E+02 -0.34984734198E+02  0.45526030080E+02  0.00000000000E+00 0. -1.
         22    1    1    2    0    0  0.42046198461E+02  0.13424000659E+02  0.70722231647E+02  0.83364984544E+02  0.00000000000E+00 0. -1.
         22    1    1    2    0    0 -0.28733425667E+02 -0.21066677256E+02 -0.27865523679E+02  0.45231648777E+02  0.00000000000E+00 0. -1.
</event>
<event>
 6    1  0.1726037E-005  0.1764501E+03  0.7818608E-02  0.1312202E+00
          2   -1    0    0  502    0  0.00000000000E+00  0.00000000000E+00  0.12332898789E+03  0.12332898789E+03  0.00000000000E+00 0. -1.
          1   -1    0    0  501    0 -0.00000000000E+00 -0.00000000000E+00 -0.28530872908E+03  0.28530872908E+03  0.00000000000E+00 0. -1.
          2    1    1    2  501    0  0.22266536318E+02 -0.67506607425E+02  0.51502029351E+02  0.87780406201E+02  0.00000000000E+00 0. -1.
          1    1    1    2  502    0  0.18633787251E+02 -0.39832632851E+02 -0.12474450976E+03  0.13226885265E+03  0.00000000000E+00 0. -1.
         22    1    1    2    0    0  0.10072101642E+02 -0.24974655116E-01  0.23220064643E+02  0.25310457468E+02  0.00000000000E+00 0. -1.
         22    1    1    2    0    0 -0.50972425211E+02  0.10736421493E+03 -0.11195732543E+03  0.16327800065E+03  0.00000000000E+00 0. -1.
</event>
<event>
 6    1  0.1726037E-005  0.3539659E+02  0.7818608E-02  0.1588098E+00
          2   -1    0    0  502    0  0.00000000000E+00  0.00000000000E+00  0.17916155349E+03  0.17916155349E+03  0.00000000000E+00 0.  1.
          1   -1    0    0  501    0 -0.00000000000E+00 -0.00000000000E+00 -0.24898665813E+03  0.24898665813E+03  0.00000000000E+00 0.  1.
          2    1    1    2  501    0  0.80263238448E+01 -0.18898705433E+02  0.11074246964E+03  0.11262982520E+03  0.00000000000E+00 0.  1.
          1    1    1    2  502    0  0.12984395089E+02  0.16710880319E+02 -0.18583601603E+03  0.18703708962E+03  0.00000000000E+00 0.  1.
         22    1    1    2    0    0 -0.13940325089E+02  0.15193038179E+02 -0.59016066827E+02  0.62514456060E+02  0.00000000000E+00 0. -1.
         22    1    1    2    0    0 -0.70703938442E+01 -0.13005213065E+02  0.64284508569E+02  0.65966840745E+02  0.00000000000E+00 0.  1.
</event>
<event>
 6    1  0.1726037E-005  0.5826268E+02  0.7818608E-02  0.1506593E+00
          2   -1    0    0  502    0  0.00000000000E+00  0.00000000000E+00  0.56007491207E+02  0.56007491207E+02  0.00000000000E+00 0.  1.
          1   -1    0    0  501    0 -0.00000000000E+00 -0.00000000000E+00 -0.23377301553E+03  0.23377301553E+03  0.00000000000E+00 0.  1.
          2    1    1    2  501    0 -0.33550279419E+02  0.37784163680E+02 -0.15466842365E+02  0.52843991965E+02  0.00000000000E+00 0.  1.
          1    1    1    2  502    0  0.24703022868E+02 -0.88100411837E+01 -0.82153882808E+02  0.86238718827E+02  0.00000000000E+00 0.  1.
         22    1    1    2    0    0  0.21642719187E+02 -0.25602446063E+02 -0.11162452149E+03  0.11655010225E+03  0.00000000000E+00 0.  1.
         22    1    1    2    0    0 -0.12795462636E+02 -0.33716764334E+01  0.31479722337E+02  0.34147693691E+02  0.00000000000E+00 0. -1.
</event>
<event>
 6    1  0.1726037E-005  0.9294154E+02  0.7818608E-02  0.1413214E+00
          2   -1    0    0  502    0  0.00000000000E+00  0.00000000000E+00  0.42135428805E+02  0.42135428805E+02  0.00000000000E+00 0.  1.
          1   -1    0    0  501    0 -0.00000000000E+00 -0.00000000000E+00 -0.48462058702E+03  0.48462058702E+03  0.00000000000E+00 0. -1.
          2    1    1    2  501    0  0.62976058262E+02 -0.75434128542E+02 -0.82087685830E+02  0.12804171128E+03  0.00000000000E+00 0.  1.
          1    1    1    2  502    0 -0.64290038330E+01  0.19657132697E+02 -0.52690345215E+02  0.56603952468E+02  0.00000000000E+00 0. -1.
         22    1    1    2    0    0 -0.67952925716E+01  0.10702440197E+02  0.10769818222E+02  0.16634518684E+02  0.00000000000E+00 0.  1.
         22    1    1    2    0    0 -0.49751761857E+02  0.45074555647E+02 -0.31847694539E+03  0.32547583339E+03  0.00000000000E+00 0. -1.
</event>
<event>
 6    1  0.1726037E-005  0.9416337E+02  0.7818608E-02  0.1354477E+00
          2   -1    0    0  502    0  0.00000000000E+00  0.00000000000E+00  0.82882902258E+03  0.82882902258E+03  0.00000000000E+00 0.  1.
          1   -1    0    0  501    0 -0.00000000000E+00 -0.00000000000E+00 -0.13571545780E+03  0.13571545780E+03  0.00000000000E+00 0. -1.
          2    1    1    2  501    0 -0.14500172806E+03  0.89376706540E+02  0.41741696011E+03  0.45083324567E+03  0.00000000000E+00 0.  1.
          1    1    1    2  502    0  0.17320431049E+03 -0.56035796901E+02 -0.27337563048E+02  0.18408445360E+03  0.00000000000E+00 0. -1.
         22    1    1    2    0    0 -0.19436919374E+02 -0.48443293681E+02  0.30725894830E+03  0.31166104641E+03  0.00000000000E+00 0.  1.
         22    1    1    2    0    0 -0.87656630508E+01  0.15102384043E+02 -0.42247805865E+01  0.17965734705E+02  0.00000000000E+00 0. -1.
</event>
<event>
 6    1  0.1726037E-005  0.2199398E+03  0.7818608E-02  0.1195390E+00
          2   -1    0    0  502    0  0.00000000000E+00  0.00000000000E+00  0.19184984008E+03  0.19184984008E+03  0.00000000000E+00 0. -1.
          1   -1    0    0  501    0 -0.00000000000E+00 -0.00000000000E+00 -0.30573565508E+03  0.30573565508E+03  0.00000000000E+00 0. -1.
          2    1    1    2  501    0  0.17678608696E+03 -0.48681817838E+02  0.41667687092E+01  0.18341374510E+03  0.00000000000E+00 0. -1.
          1    1    1    2  502    0 -0.72921902949E+02 -0.54530381932E+02 -0.10443072415E+02  0.91652737247E+02  0.00000000000E+00 0. -1.
         22    1    1    2    0    0 -0.21387836116E+02  0.48665918159E+02  0.23649954952E+02  0.58181882861E+02  0.00000000000E+00 0. -1.
         22    1    1    2    0    0 -0.82476347894E+02  0.54546281611E+02 -0.13125946625E+03  0.16433712995E+03  0.00000000000E+00 0.  1.
</event>
<event>
 6    1  0.1726037E-005  0.8102219E+02  0.7818608E-02  0.1343154E+00
          2   -1    0    0  502    0  0.00000000000E+00  0.00000000000E+00  0.43636847938E+03  0.43636847938E+03  0.00000000000E+00 0. -1.
          1   -1    0    0  501    0 -0.00000000000E+00 -0.00000000000E+00 -0.81902688063E+02  0.81902688063E+02  0.00000000000E+00 0.  1.
          2    1    1    2  501    0 -0.20345427795E+02 -0.53194268254E+02 -0.20973647164E+01  0.56990925120E+02  0.00000000000E+00 0. -1.
          1    1    1    2  502    0 -0.44784984293E+02  0.96552976561E+02  0.41017546233E+02  0.11406406621E+03  0.00000000000E+00 0.  1.
         22    1    1    2    0    0  0.73645621710E+02 -0.58373059034E+02  0.31627399405E+03  0.32993988988E+03  0.00000000000E+00 0. -1.
         22    1    1    2    0    0 -0.85152096216E+01  0.15014350727E+02 -0.72838424947E+00  0.17276286241E+02  0.00000000000E+00 0.  1.
</event>
<event>
 6    1  0.1726037E-005  0.7797140E+02  0.7818608E-02  0.1412988E+00
          2   -1    0    0  502    0  0.00000000000E+00  0.00000000000E+00  0.22591616233E+04  0.22591616233E+04  0.00000000000E+00 0.  1.
          1   -1    0    0  501    0 -0.00000000000E+00 -0.00000000000E+00 -0.18556515017E+03  0.18556515017E+03  0.00000000000E+00 0.  1.
          2    1    1    2  501    0  0.75206511077E+02  0.19668526833E+02  0.21441958611E+04  0.21456045211E+04  0.00000000000E+00 0.  1.
          1    1    1    2  502    0 -0.65882797397E+02 -0.27475948429E+01 -0.13997032744E+03  0.15472486818E+03  0.00000000000E+00 0.  1.
         22    1    1    2    0    0  0.11272430915E+01 -0.21517291369E+02  0.10489428032E+03  0.10708442720E+03  0.00000000000E+00 0.  1.
         22    1    1    2    0    0 -0.10450956771E+02  0.45963593790E+01 -0.35523340831E+02  0.37312957009E+02  0.00000000000E+00 0.  1.
</event>
<event>
 6    1  0.1726037E-005  0.1616979E+03  0.7818608E-02  0.1291002E+00
          2   -1    0    0  502    0  0.00000000000E+00  0.00000000000E+00  0.13955050876E+03  0.13955050876E+03  0.00000000000E+00 0. -1.
          1   -1    0    0  501    0 -0.00000000000E+00 -0.00000000000E+00 -0.11387917781E+03  0.11387917781E+03  0.00000000000E+00 0. -1.
          2    1    1    2  501    0  0.23411960641E+02  0.26189431481E+02 -0.72745742662E+01  0.35873746014E+02  0.00000000000E+00 0. -1.
          1    1    1    2  502    0 -0.24225991763E+02 -0.70491751994E+02  0.37608778831E+02  0.83488957481E+02  0.00000000000E+00 0. -1.
         22    1    1    2    0    0 -0.18893668502E+02 -0.40765466495E+01  0.52908127403E+02  0.56328135841E+02  0.00000000000E+00 0. -1.
         22    1    1    2    0    0  0.19707699623E+02  0.48378867163E+02 -0.57571001018E+02  0.77738847243E+02  0.00000000000E+00 0. -1.
</event>
<event>
 6    1  0.1726037E-005  0.6100037E+02  0.7818608E-02  0.1456434E+00
          2   -1    0    0  502    0  0.00000000000E+00  0.00000000000E+00  0.69861529844E+03  0.69861529844E+03  0.00000000000E+00 0.  1.
          1   -1    0    0  501    0 -0.00000000000E+00 -0.00000000000E+00 -0.10002166246E+03  0.10002166246E+03  0.00000000000E+00 0.  1.
          2    1    1    2  501    0 -0.35321893828E+02  0.13660478045E+02  0.25803512220E+03  0.26079948070E+03  0.00000000000E+00 0.  1.
          1    1    1    2  502    0 -0.20130876554E+02  0.46115327041E+02  0.38261419905E+03  0.38590866911E+03  0.00000000000E+00 0.  1.
         22    1    1    2    0    0  0.21762060607E+02 -0.85679677788E+01  0.41895278485E+02  0.47981368395E+02  0.00000000000E+00 0.  1.
         22    1    1    2    0    0  0.33690709776E+02 -0.51207837308E+02 -0.83950963752E+02  0.10394744269E+03  0.00000000000E+00 0.  1.
</event>
<event>
 6    1  0.1726037E-005  0.4455552E+02  0.7818608E-02  0.1578688E+00
          2   -1    0    0  502    0  0.00000000000E+00  0.00000000000E+00  0.89144691968E+02  0.89144691968E+02  0.00000000000E+00 0. -1.
          1   -1    0    0  501    0 -0.00000000000E+00 -0.00000000000E+00 -0.11730486626E+03  0.11730486626E+03  0.00000000000E+00 0. -1.
          2    1    1    2  501    0  0.37143223648E+02  0.83980882604E+01 -0.61233692548E+01  0.38569970189E+02  0.00000000000E+00 0. -1.
          1    1    1    2  502    0 -0.18786642723E+02 -0.71794479894E+01 -0.37313947878E+02  0.42388832545E+02  0.00000000000E+00 0. -1.
         22    1    1    2    0    0  0.60166567152E+01 -0.99251833022E+01  0.66816919030E+02  0.67817476289E+02  0.00000000000E+00 0. -1.
         22    1    1    2    0    0 -0.24373237640E+02  0.87065430312E+01 -0.51539776194E+02  0.57673279209E+02  0.00000000000E+00 0. -1.
</event>
<event>
 6    1  0.1726037E-005  0.3370590E+03  0.7818608E-02  0.1193642E+00
          2   -1    0    0  502    0  0.00000000000E+00  0.00000000000E+00  0.19468718586E+03  0.19468718586E+03  0.00000000000E+00 0. -1.
          1   -1    0    0  501    0 -0.00000000000E+00 -0.00000000000E+00 -0.56463812139E+03  0.56463812139E+03  0.00000000000E+00 0.  1.
          2    1    1    2  501    0 -0.14442437007E+03 -0.17641217713E+03  0.29484958034E+01  0.22800953606E+03  0.00000000000E+00 0. -1.
          1    1    1    2  502    0  0.15824269562E+03 -0.12052818768E+01 -0.13208194392E+03  0.20612579492E+03  0.00000000000E+00 0.  1.
         22    1    1    2    0    0  0.98794627874E+00  0.17358219443E+03 -0.25214277573E+03  0.30611718935E+03  0.00000000000E+00 0.  1.
         22    1    1    2    0    0 -0.14806271835E+02  0.40352645706E+01  0.11325288305E+02  0.19072786923E+02  0.00000000000E+00 0.  1.
</event>
<event>
 6    1  0.1726037E-005  0.8625620E+02  0.7818608E-02  0.1371551E+00
          2   -1    0    0  502    0  0.00000000000E+00  0.00000000000E+00  0.18750737976E+02  0.18750737976E+02  0.00000000000E+00 0.  1.
          1   -1    0    0  501    0 -0.00000000000E+00 -0.00000000000E+00 -0.46209654187E+03  0.46209654187E+03  0.00000000000E+00 0.  1.
          2    1    1    2  501    0  0.28427453476E+02  0.93050613979E+00 -0.79951610141E+02  0.84860155061E+02  0.00000000000E+00 0.  1.
          1    1    1    2  502    0 -0.21957023158E+00 -0.28104875280E+02 -0.45192438415E+02  0.53219251361E+02  0.00000000000E+00 0.  1.
         22    1    1    2    0    0  0.27447353811E+02  0.14218464388E+02 -0.15240052290E+02  0.34464201058E+02  0.00000000000E+00 0.  1.
         22    1    1    2    0    0 -0.55655237056E+02  0.12955904752E+02 -0.30296170305E+03  0.30830367236E+03  0.00000000000E+00 0.  1.
</event>
<event>
 6    1  0.1726037E-005  0.6465390E+02  0.7818608E-02  0.1488646E+00
          2   -1    0    0  502    0  0.00000000000E+00  0.00000000000E+00  0.80284593434E+02  0.80284593434E+02  0.00000000000E+00 0. -1.
          1   -1    0    0  501    0 -0.00000000000E+00 -0.00000000000E+00 -0.40637218624E+03  0.40637218624E+03  0.00000000000E+00 0. -1.
          2    1    1    2  501    0  0.26156211919E+02  0.47362522874E+02 -0.10103394263E+02  0.55040299515E+02  0.00000000000E+00 0. -1.
          1    1    1    2  502    0 -0.16517738764E+02 -0.50596575996E+02 -0.30032352867E+03  0.30500339518E+03  0.00000000000E+00 0. -1.
         22    1    1    2    0    0 -0.86028759684E+00  0.12371953007E+02  0.54206033472E+02  0.55606648709E+02  0.00000000000E+00 0. -1.
         22    1    1    2    0    0 -0.87781855588E+01 -0.91378998856E+01 -0.69866703343E+02  0.71006436272E+02  0.00000000000E+00 0. -1.
</event>
<event>
 6    1  0.1726037E-005  0.1245098E+03  0.7818608E-02  0.1237205E+00
          2   -1    0    0  502    0  0.00000000000E+00  0.00000000000E+00  0.75800620420E+03  0.75800620420E+03  0.00000000000E+00 0.  1.
          1   -1    0    0  501    0 -0.00000000000E+00 -0.00000000000E+00 -0.11589416110E+03  0.11589416110E+03  0.00000000000E+00 0.  1.
          2    1    1    2  501    0  0.71137504417E+02 -0.57910744688E+02  0.60402476687E+03  0.61095017626E+03  0.00000000000E+00 0.  1.
          1    1    1    2  502    0 -0.50742259935E+02  0.38784896971E+02 -0.72074238030E+02  0.96300264610E+02  0.00000000000E+00 0.  1.
         22    1    1    2    0    0  0.26824893764E+02  0.47793476838E+01  0.11394135643E+03  0.11715395766E+03  0.00000000000E+00 0. -1.
         22    1    1    2    0    0 -0.47220138245E+02  0.14346500033E+02 -0.37798421673E+01  0.49495966764E+02  0.00000000000E+00 0.  1.
</event>
<event>
 6    1  0.1726037E-005  0.2075518E+03  0.7818608E-02  0.1247213E+00
          2   -1    0    0  502    0  0.00000000000E+00  0.00000000000E+00  0.10355702850E+03  0.10355702850E+03  0.00000000000E+00 0.  1.
          1   -1    0    0  501    0 -0.00000000000E+00 -0.00000000000E+00 -0.66708113722E+03  0.66708113722E+03  0.00000000000E+00 0. -1.
          2    1    1    2  501    0 -0.12410758577E+03  0.13919799180E+03 -0.72493563842E+02  0.20008520826E+03  0.00000000000E+00 0.  1.
          1    1    1    2  502    0  0.11283999651E+03 -0.10935841429E+03 -0.34230003086E+03  0.37664497702E+03  0.00000000000E+00 0. -1.
         22    1    1    2    0    0  0.12331649420E+02 -0.51160670480E+02 -0.16093296407E+03  0.16931893782E+03  0.00000000000E+00 0.  1.
         22    1    1    2    0    0 -0.10640601594E+01  0.21321092972E+02  0.12202450053E+02  0.24589042618E+02  0.00000000000E+00 0. -1.
</event>
<event>
 6    1  0.1726037E-005  0.5830116E+02  0.7818608E-02  0.1480982E+00
          2   -1    0    0  502    0  0.00000000000E+00  0.00000000000E+00  0.37022906353E+02  0.37022906353E+02  0.00000000000E+00 0. -1.
          1   -1    0    0  501    0 -0.00000000000E+00 -0.00000000000E+00 -0.39003865836E+03  0.39003865836E+03  0.00000000000E+00 0.  1.
          2    1    1    2  501    0 -0.93954280925E+01 -0.22570358901E+02 -0.11182252980E+03  0.11446385168E+03  0.00000000000E+00 0. -1.
          1    1    1    2  502    0  0.19087008460E+02  0.27181025921E+02 -0.15279107815E+03  0.15635931576E+03  0.00000000000E+00 0.  1.
         22    1    1    2    0    0  0.17753353161E+02 -0.62880538418E+01  0.29595150903E+02  0.35079825065E+02  0.00000000000E+00 0. -1.
         22    1    1    2    0    0 -0.27444933528E+02  0.16773868210E+01 -0.11799729496E+03  0.12115857222E+03  0.00000000000E+00 0. -1.
</event>
<event>
 6    1  0.1726037E-005  0.2231313E+03  0.7818608E-02  0.1143080E+00
          2   -1    0    0  502    0  0.00000000000E+00  0.00000000000E+00  0.14286472918E+04  0.14286472918E+04  0.00000000000E+00 0. -1.
          1   -1    0    0  501    0 -0.00000000000E+00 -0.00000000000E+00 -0.18375059025E+03  0.18375059025E+03  0.00000000000E+00 0. -1.
          2    1    1    2  501    0  0.41396472016E+02 -0.35653525488E+03  0.82291901738E+02  0.36824314381E+03  0.00000000000E+00 0. -1.
          1    1    1    2  502    0 -0.31004165225E+02  0.12290878152E+03  0.14654138169E+03  0.19375810534E+03  0.00000000000E+00 0. -1.
         22    1    1    2    0    0  0.31207437007E+02  0.25675492482E+02  0.69749222019E+02  0.80610725161E+02  0.00000000000E+00 0.  1.
         22    1    1    2    0    0 -0.41599743798E+02  0.20795098088E+03  0.94631419607E+03  0.96978590772E+03  0.00000000000E+00 0. -1.
</event>
<event>
 6    1  0.1726037E-005  0.7079455E+02  0.7818608E-02  0.1409476E+00
          2   -1    0    0  502    0  0.00000000000E+00  0.00000000000E+00  0.19071212628E+03  0.19071212628E+03  0.00000000000E+00 0.  1.
          1   -1    0    0  501    0 -0.00000000000E+00 -0.00000000000E+00 -0.77043517717E+02  0.77043517717E+02  0.00000000000E+00 0. -1.
          2    1    1    2  501    0  0.30547408410E+02 -0.42222970367E+02  0.27285897630E+02  0.58825535243E+02  0.00000000000E+00 0.  1.
          1    1    1    2  502    0 -0.32954982342E+02  0.33605213053E+02 -0.89846948324E+01  0.47917282339E+02  0.00000000000E+00 0. -1.
         22    1    1    2    0    0 -0.26260729694E+02  0.18747435251E+02 -0.22467924309E+02  0.39317933253E+02  0.00000000000E+00 0. -1.
         22    1    1    2    0    0  0.28668303626E+02 -0.10129677937E+02  0.11783533008E+03  0.12169489316E+03  0.00000000000E+00 0.  1.
</event>
<event>
 6    1  0.1726037E-005  0.5646834E+02  0.7818608E-02  0.1483024E+00
          2   -1    0    0  502    0  0.00000000000E+00  0.00000000000E+00  0.72002662058E+02  0.72002662058E+02  0.00000000000E+00 0.  1.
          1   -1    0    0  501    0 -0.00000000000E+00 -0.00000000000E+00 -0.28090043072E+03  0.28090043072E+03  0.00000000000E+00 0. -1.
          2    1    1    2  501    0 -0.80762578985E+02 -0.29767578250E+02 -0.65603511957E+02  0.10822441342E+03  0.00000000000E+00 0.  1.
          1    1    1    2  502    0  0.63609017961E+02  0.47937047205E+01 -0.59662082205E+02  0.87342148039E+02  0.00000000000E+00 0. -1.
         22    1    1    2    0    0  0.23359687353E+02  0.39417690475E+02 -0.11415270841E+03  0.12300516312E+03  0.00000000000E+00 0. -1.
         22    1    1    2    0    0 -0.62061263294E+01 -0.14443816945E+02  0.30520533915E+02  0.34331368198E+02  0.00000000000E+00 0.  1.
</event>
<event>
 6    1  0.1726037E-005  0.2527090E+02  0.7818608E-02  0.1682422E+00
          2   -1    0    0  502    0  0.00000000000E+00  0.00000000000E+00  0.11754818426E+03  0.11754818426E+03  0.00000000000E+00 0. -1.
          1   -1    0    0  501    0 -0.00000000000E+00 -0.00000000000E+00 -0.15930121174E+03  0.15930121174E+03  0.00000000000E+00 0. -1.
          2    1    1    2  501    0  0.75894685569E+01 -0.42541610038E+02  0.70459256442E+02  0.82655280751E+02  0.00000000000E+00 0. -1.
          1    1    1    2  502    0 -0.34757829234E+01  0.21737007641E+02 -0.46962858638E+02  0.51866064624E+02  0.00000000000E+00 0. -1.
         22    1    1    2    0    0  0.96950619187E+01  0.94341974919E+01  0.36547885961E+02  0.38971095393E+02  0.00000000000E+00 0.  1.
         22    1    1    2    0    0 -0.13808747552E+02  0.11370404905E+02 -0.10179731125E+03  0.10335695523E+03  0.00000000000E+00 0. -1.
</event>
<event>
 6    1  0.1726037E-005  0.3043366E+02  0.7818608E-02  0.1668372E+00
          2   -1    0    0  502    0  0.00000000000E+00  0.00000000000E+00  0.10670442268E+03  0.10670442268E+03  0.00000000000E+00 0. -1.
          1   -1    0    0  501    0 -0.00000000000E+00 -0.00000000000E+00 -0.53685380904E+03  0.53685380904E+03  0.00000000000E+00 0. -1.
          2    1    1    2  501    0 -0.23382424914E+02 -0.45577744668E+02  0.29257326134E+02  0.58992031126E+02  0.00000000000E+00 0. -1.
          1    1    1    2  502    0  0.10069571049E+02  0.33756392173E+02 -0.45956395103E+03  0.46091204731E+03  0.00000000000E+00 0. -1.
         22    1    1    2    0    0  0.23748717643E+02  0.94426213161E+01  0.58762430338E+02  0.64079543586E+02  0.00000000000E+00 0. -1.
         22    1    1    2    0    0 -0.10435863778E+02  0.23787311791E+01 -0.58605191805E+02  0.59574609704E+02  0.00000000000E+00 0. -1.
</event>
<event>
 6    1  0.1726037E-005  0.6548101E+02  0.7818608E-02  0.1499157E+00
          2   -1    0    0  502    0  0.00000000000E+00  0.00000000000E+00  0.78619607089E+02  0.78619607089E+02  0.00000000000E+00 0.  1.
          1   -1    0    0  501    0 -0.00000000000E+00 -0.00000000000E+00 -0.30605654670E+03  0.30605654670E+03  0.00000000000E+00 0.  1.
          2    1    1    2  501    0 -0.34968970426E+02 -0.50498939400E+02 -0.42624956891E+02  0.74765357774E+02  0.00000000000E+00 0.  1.
          1    1    1    2  502    0  0.30870275017E+02  0.42684458244E+02 -0.17815665078E+03  0.18578140130E+03  0.00000000000E+00 0.  1.
         22    1    1    2    0    0  0.11753054601E+02  0.89319580891E+00 -0.64400044634E+02  0.65469823889E+02  0.00000000000E+00 0.  1.
         22    1    1    2    0    0 -0.76543591922E+01  0.69212853475E+01  0.57744712688E+02  0.58659570821E+02  0.00000000000E+00 0.  1.
</event>
<event>
 6    1  0.1726037E-005  0.1259197E+03  0.7818608E-02  0.1279272E+00
          2   -1    0    0  502    0  0.00000000000E+00  0.00000000000E+00  0.25127198666E+03  0.25127198666E+03  0.00000000000E+00 0.  1.
          1   -1    0    0  501    0 -0.00000000000E+00 -0.00000000000E+00 -0.37920282644E+03  0.37920282644E+03  0.00000000000E+00 0. -1.
          2    1    1    2  501    0 -0.53468571020E+02 -0.10771890926E+03  0.17894239116E+03  0.21559830902E+03  0.00000000000E+00 0.  1.
          1    1    1    2  502    0 -0.15611309223E+02  0.76552732754E+02 -0.24267804447E+03  0.25494443931E+03  0.00000000000E+00 0. -1.
         22    1    1    2    0    0  0.19087411954E+02  0.41612659484E+02 -0.91283570159E+02  0.10212067815E+03  0.00000000000E+00 0. -1.
         22    1    1    2    0    0  0.49992468289E+02 -0.10446482976E+02  0.27088383681E+02  0.57811386618E+02  0.00000000000E+00 0.  1.
</event>
<event>
 6    1  0.1726037E-005  0.6008542E+02  0.7818608E-02  0.1416248E+00
          2   -1    0    0  502    0  0.00000000000E+00  0.00000000000E+00  0.59491278632E+02  0.59491278632E+02  0.00000000000E+00 0. -1.
          1   -1    0    0  501    0 -0.00000000000E+00 -0.00000000000E+00 -0.51083822817E+03  0.51083822817E+03  0.00000000000E+00 0. -1.
          2    1    1    2  501    0 -0.35339910566E+02  0.39085542059E+01 -0.78873633524E+00  0.35564141770E+02  0.00000000000E+00 0. -1.
          1    1    1    2  502    0  0.29504987153E+02 -0.31976626685E+02 -0.39717446222E+03  0.39955050039E+03  0.00000000000E+00 0. -1.
         22    1    1    2    0    0 -0.89873041114E+01 -0.14171199730E+02 -0.80931670113E+02  0.82653068693E+02  0.00000000000E+00 0. -1.
         22    1    1    2    0    0  0.14822227525E+02  0.42239272209E+02  0.27547919129E+02  0.52561795953E+02  0.00000000000E+00 0. -1.
</event>
<event>
 6    1  0.1726037E-005  0.8107122E+02  0.7818608E-02  0.1338953E+00
          2   -1    0    0  502    0  0.00000000000E+00  0.00000000000E+00  0.27032877206E+02  0.27032877206E+02  0.00000000000E+00 0. -1.
          1   -1    0    0  501    0 -0.00000000000E+00 -0.00000000000E+00 -0.75723818090E+03  0.75723818090E+03  0.00000000000E+00 0. -1.
          2    1    1    2  501    0 -0.35650073790E+02 -0.40938336025E+02 -0.25071068702E+03  0.25652041577E+03  0.00000000000E+00 0. -1.
          1    1    1    2  502    0  0.82699305993E+02  0.60133084306E+01 -0.18129342835E+03  0.19935556740E+03  0.00000000000E+00 0. -1.
         22    1    1    2    0    0 -0.82326756741E+02  0.38264998327E+02 -0.14442266318E+03  0.17058666598E+03  0.00000000000E+00 0. -1.
         22    1    1    2    0    0  0.35277524538E+02 -0.33399707335E+01 -0.15377852515E+03  0.15780840896E+03  0.00000000000E+00 0. -1.
</event>
<event>
 6    1  0.1726037E-005  0.1158045E+03  0.7818608E-02  0.1352884E+00
          2   -1    0    0  502    0  0.00000000000E+00  0.00000000000E+00  0.85189523092E+02  0.85189523092E+02  0.00000000000E+00 0. -1.
          1   -1    0    0  501    0 -0.00000000000E+00 -0.00000000000E+00 -0.39220551206E+03  0.39220551206E+03  0.00000000000E+00 0. -1.
          2    1    1    2  501    0  0.11965038061E+03 -0.94271716943E+01 -0.20165754704E+03  0.23467179512E+03  0.00000000000E+00 0. -1.
          1    1    1    2  502    0 -0.61711918135E+02 -0.86468942192E+01 -0.74293009381E+02  0.96966906016E+02  0.00000000000E+00 0. -1.
         22    1    1    2    0    0 -0.17053061030E+02  0.37599727867E+01  0.50482172651E+02  0.53417169912E+02  0.00000000000E+00 0. -1.
         22    1    1    2    0    0 -0.40885401447E+02  0.14314093127E+02 -0.81547605195E+02  0.92339164099E+02  0.00000000000E+00 0. -1.
</event>
<event>
 6    1  0.1726037E-005  0.7335560E+02  0.7818608E-02  0.1449802E+00
          2   -1    0    0  502    0  0.00000000000E+00  0.00000000000E+00  0.29670099520E+03  0.29670099520E+03  0.00000000000E+00 0. -1.
          1   -1    0    0  501    0 -0.00000000000E+00 -0.00000000000E+00 -0.10206486837E+03  0.10206486837E+03  0.00000000000E+00 0.  1.
          2    1    1    2  501    0  0.67521338500E+02  0.16644124784E+02  0.19932928647E+03  0.21111210881E+03  0.00000000000E+00 0. -1.
          1    1    1    2  502    0 -0.33621864498E+02 -0.23944252301E+02 -0.32265817393E+02  0.52391220282E+02  0.00000000000E+00 0.  1.
         22    1    1    2    0    0 -0.28629851655E+02 -0.65546247467E+01 -0.49076172504E+02  0.57193550502E+02  0.00000000000E+00 0. -1.
         22    1    1    2    0    0 -0.52696223475E+01  0.13854752264E+02  0.76648830254E+02  0.78068983978E+02  0.00000000000E+00 0. -1.
</event>
<event>
 6    1  0.1726037E-005  0.6164329E+02  0.7818608E-02  0.1433213E+00
          2   -1    0    0  502    0  0.00000000000E+00  0.00000000000E+00  0.27958895585E+03  0.27958895585E+03  0.00000000000E+00 0. -1.
          1   -1    0    0  501    0 -0.00000000000E+00 -0.00000000000E+00 -0.65153095106E+02  0.65153095106E+02  0.00000000000E+00 0. -1.
          2    1    1    2  501    0  0.52198481189E+02  0.88049088492E+01  0.62175401684E+02  0.81657751824E+02  0.00000000000E+00 0. -1.
          1    1    1    2  502    0 -0.36630230385E+02 -0.30443510280E+02 -0.16432537563E+02  0.50384614586E+02  0.00000000000E+00 0. -1.
         22    1    1    2    0    0 -0.57012413826E+01  0.31478828304E+02  0.18698637632E+03  0.18970325699E+03  0.00000000000E+00 0. -1.
         22    1    1    2    0    0 -0.98670094218E+01 -0.98402268724E+01 -0.18293379693E+02  0.22996427557E+02  0.00000000000E+00 0. -1.
</event>
<event>
 6    1  0.1726037E-005  0.3108974E+02  0.7818608E-02  0.1632367E+00
          2   -1    0    0  502    0  0.00000000000E+00  0.00000000000E+00  0.21797139225E+03  0.21797139225E+03  0.00000000000E+00 0. -1.
          1   -1    0    0  501    0 -0.00000000000E+00 -0.00000000000E+00 -0.25495272002E+03  0.25495272002E+03  0.00000000000E+00 0. -1.
          2    1    1    2  501    0 -0.27485293873E+02  0.23435819459E+02  0.81175959334E+02  0.88849397222E+02  0.00000000000E+00 0. -1.
          1    1    1    2  502    0  0.21500498481E+02 -0.69130850312E+01 -0.21964330858E+03  0.22080137043E+03  0.00000000000E+00 0. -1.
         22    1    1    2    0    0 -0.55805368888E+01 -0.29058952529E+02  0.12820449572E+03  0.13157491341E+03  0.00000000000E+00 0. -1.
         22    1    1    2    0    0  0.11565332282E+02  0.12536218101E+02 -0.26718474246E+02  0.31698431209E+02  0.00000000000E+00 0. -1.
</event>
<event>
 6    1  0.1726037E-005  0.7027623E+02  0.7818608E-02  0.1369440E+00
          2   -1    0    0  502    0  0.00000000000E+00  0.00000000000E+00  0.39618000046E+03  0.39618000046E+03  0.00000000000E+00 0. -1.
          1   -1    0    0  501    0 -0.00000000000E+00 -0.00000000000E+00 -0.56359674065E+02  0.56359674065E+02  0.00000000000E+00 0. -1.
          2    1    1    2  501    0 -0.43238423625E+02  0.26363868340E+02  0.10081056255E+03  0.11281570969E+03  0.00000000000E+00 0. -1.
          1    1    1    2  502    0  0.55982345000E+02  0.10770082988E+02 -0.11091076312E+02  0.58077789326E+02  0.00000000000E+00 0. -1.
         22    1    1    2    0    0  0.23108220805E+01  0.20107154767E+02 -0.40958006882E+01  0.20649773723E+02  0.00000000000E+00 0. -1.
         22    1    1    2    0    0 -0.15054743455E+02 -0.57241106095E+02  0.25419664084E+03  0.26099640178E+03  0.00000000000E+00 0. -1.
</event>
<event>
 6    1  0.1726037E-005  0.8382577E+02  0.7818608E-02  0.1346883E+00
          2   -1    0    0  502    0  0.00000000000E+00  0.00000000000E+00  0.79278979026E+03  0.79278979026E+03  0.00000000000E+00 0.  1.
          1   -1    0    0  501    0 -0.00000000000E+00 -0.00000000000E+00 -0.55052588867E+02  0.55052588867E+02  0.00000000000E+00 0.  1.
          2    1    1    2  501    0 -0.77158111998E+02  0.42717095414E+02  0.33374325702E+03  0.34519948739E+03  0.00000000000E+00 0.  1.
          1    1    1    2  502    0  0.59752339967E+02  0.76181625253E+02  0.49741632439E+02  0.10884949313E+03  0.00000000000E+00 0.  1.
         22    1    1    2    0    0  0.36151459957E+02 -0.70364157996E+02  0.72588422031E+02  0.10736443452E+03  0.00000000000E+00 0.  1.
         22    1    1    2    0    0 -0.18745687927E+02 -0.48534562671E+02  0.28166388990E+03  0.28642896407E+03  0.00000000000E+00 0.  1.
</event>
<event>
 6    1  0.1726037E-005  0.2503163E+03  0.7818608E-02  0.1249766E+00
          2   -1    0    0  502    0  0.00000000000E+00  0.00000000000E+00  0.37382294313E+03  0.37382294313E+03  0.00000000000E+00 0.  1.
          1   -1    0    0  501    0 -0.00000000000E+00 -0.00000000000E+00 -0.29445805624E+03  0.29445805624E+03  0.00000000000E+00 0.  1.
          2    1    1    2  501    0  0.24463447326E+03  0.15080563590E+02  0.80433526672E+02  0.25795930129E+03  0.00000000000E+00 0.  1.
          1    1    1    2  502    0 -0.26182039124E+01  0.44479523037E+02 -0.10495171492E+03  0.11401818024E+03  0.00000000000E+00 0.  1.
         22    1    1    2    0    0  0.65131111417E+01  0.95537634718E+01 -0.90718468712E+01  0.14696714561E+02  0.00000000000E+00 0.  1.
         22    1    1    2    0    0 -0.24852938049E+03 -0.69113850099E+02  0.11295492201E+03  0.28160680327E+03  0.00000000000E+00 0.  1.
</event>
<event>
 6    1  0.1726037E-005  0.6424701E+02  0.7818608E-02  0.1383975E+00
          2   -1    0    0  502    0  0.00000000000E+00  0.00000000000E+00  0.18625286273E+03  0.18625286273E+03  0.00000000000E+00 0. -1.
          1   -1    0    0  501    0 -0.00000000000E+00 -0.00000000000E+00 -0.82747570694E+02  0.82747570694E+02  0.00000000000E+00 0.  1.
          2    1    1    2  501    0  0.59477690991E+02 -0.93920948016E+01 -0.20699585921E+02  0.63673228500E+02  0.00000000000E+00 0. -1.
          1    1    1    2  502    0 -0.15413277911E+02 -0.13860885465E+02  0.36905028772E+02  0.42328175374E+02  0.00000000000E+00 0.  1.
         22    1    1    2    0    0  0.15244198309E+02  0.59107595539E+02  0.15021207298E+02  0.62862787889E+02  0.00000000000E+00 0. -1.
         22    1    1    2    0    0 -0.59308611389E+02 -0.35854615272E+02  0.72278641891E+02  0.10013624167E+03  0.00000000000E+00 0.  1.
</event>
<event>
 6    1  0.1726037E-005  0.5879956E+02  0.7818608E-02  0.1490339E+00
          2   -1    0    0  502    0  0.00000000000E+00  0.00000000000E+00  0.28533495752E+03  0.28533495752E+03  0.00000000000E+00 0.  1.
          1   -1    0    0  501    0 -0.00000000000E+00 -0.00000000000E+00 -0.15878011385E+03  0.15878011385E+03  0.00000000000E+00 0.  1.
          2    1    1    2  501    0  0.37432661041E+02 -0.86405279529E+02  0.21092525311E+03  0.23099034361E+03  0.00000000000E+00 0.  1.
          1    1    1    2  502    0 -0.10025014092E+02  0.62907124178E+02 -0.37894291313E+02  0.74120068092E+02  0.00000000000E+00 0.  1.
         22    1    1    2    0    0 -0.67071519690E+01 -0.77572027219E+01  0.41830933222E+02  0.43069560664E+02  0.00000000000E+00 0. -1.
         22    1    1    2    0    0 -0.20700494980E+02  0.31255358073E+02 -0.88307051353E+02  0.95935098996E+02  0.00000000000E+00 0.  1.
</event>
<event>
 6    1  0.1726037E-005  0.1736180E+03  0.7818608E-02  0.1239870E+00
          2   -1    0    0  502    0  0.00000000000E+00  0.00000000000E+00  0.14816606370E+03  0.14816606370E+03  0.00000000000E+00 0. -1.
          1   -1    0    0  501    0 -0.00000000000E+00 -0.00000000000E+00 -0.35395291229E+03  0.35395291229E+03  0.00000000000E+00 0. -1.
          2    1    1    2  501    0  0.13356356912E+03 -0.49956476139E+02 -0.55190774129E+02  0.15290813599E+03  0.00000000000E+00 0. -1.
          1    1    1    2  502    0 -0.15201483231E+03  0.15342653253E+02 -0.15403522684E+03  0.21695796219E+03  0.00000000000E+00 0. -1.
         22    1    1    2    0    0 -0.23050272916E+02  0.26437955477E+02 -0.51874223673E+02  0.62619610770E+02  0.00000000000E+00 0. -1.
         22    1    1    2    0    0  0.41501536113E+02  0.81758674096E+01  0.55313376056E+02  0.69633267038E+02  0.00000000000E+00 0. -1.
</event>
<event>
 6    1  0.1726037E-005  0.4698287E+02  0.7818608E-02  0.1529554E+00
          2   -1    0    0  502    0  0.00000000000E+00  0.00000000000E+00  0.15935694679E+03  0.15935694679E+03  0.00000000000E+00 0.  1.
          1   -1    0    0  501    0 -0.00000000000E+00 -0.00000000000E+00 -0.10182540985E+03  0.10182540985E+03  0.00000000000E+00 0. -1.
          2    1    1    2  501    0  0.64531933186E+02 -0.32727015359E+02  0.31917510937E+02  0.79083218444E+02  0.00000000000E+00 0.  1.
          1    1    1    2  502    0 -0.31897342059E+02  0.37680713362E+02 -0.71805011494E+01  0.49888236957E+02  0.00000000000E+00 0. -1.
         22    1    1    2    0    0 -0.35529733430E+02  0.90249112776E+01 -0.42183439572E+02  0.55886076578E+02  0.00000000000E+00 0. -1.
         22    1    1    2    0    0  0.28951423026E+01 -0.13978609281E+02  0.74977966725E+02  0.76324824668E+02  0.00000000000E+00 0.  1.
</event>
<event>
 6    1  0.2213183E-005  0.6882663E+02  0.7818608E-02  0.1366705E+00
          2   -1    0    0  502    0  0.00000000000E+00  0.00000000000E+00  0.42296856487E+03  0.42296856487E+03  0.00000000000E+00 0.  1.
          1   -1    0    0  501    0 -0.00000000000E+00 -0.00000000000E+00 -0.90595532268E+03  0.90595532268E+03  0.00000000000E+00 0. -1.
          2    1    1    2  501    0  0.21982150329E+03  0.18933928371E+03  0.27605771288E+03  0.40047311833E+03  0.00000000000E+00 0.  1.
          1    1    1    2  502    0 -0.22084078589E+03 -0.19310010121E+03 -0.74784653600E+03  0.80332605038E+03  0.00000000000E+00 0. -1.
         22    1    1    2    0    0 -0.14737525235E+02  0.32193587016E+01 -0.66205494386E+02  0.67902329912E+02  0.00000000000E+00 0. -1.
         22    1    1    2    0    0  0.15756807836E+02  0.54145880104E+00  0.55007559700E+02  0.57222388931E+02  0.00000000000E+00 0.  1.
</event>
<event>
 6    1  0.1726037E-005  0.4204562E+02  0.7818608E-02  0.1538344E+00
          2   -1    0    0  502    0  0.00000000000E+00  0.00000000000E+00  0.12480542472E+03  0.12480542472E+03  0.00000000000E+00 0.  1.
          1   -1    0    0  501    0 -0.00000000000E+00 -0.00000000000E+00 -0.42392353252E+03  0.42392353252E+03  0.00000000000E+00 0. -1.
          2    1    1    2  501    0 -0.40525360497E+02  0.35634444883E+02  0.85319571349E+02  0.10095319589E+03  0.00000000000E+00 0.  1.
          1    1    1    2  502    0  0.67143359624E+01 -0.42075749728E+02 -0.28421915272E+03  0.28739515966E+03  0.00000000000E+00 0. -1.
         22    1    1    2    0    0  0.28067256030E+02 -0.86120203422E+01 -0.12633094431E+03  0.12969751442E+03  0.00000000000E+00 0.  1.
         22    1    1    2    0    0  0.57437685052E+01  0.15053325187E+02  0.26112417897E+02  0.30683087268E+02  0.00000000000E+00 0.  1.
</event>
<event>
 6    1  0.1726037E-005  0.7577576E+02  0.7818608E-02  0.1440665E+00
          2   -1    0    0  502    0  0.00000000000E+00  0.00000000000E+00  0.55555046092E+02  0.55555046092E+02  0.00000000000E+00 0.  1.
          1   -1    0    0  501    0 -0.00000000000E+00 -0.00000000000E+00 -0.26130037892E+03  0.26130037892E+03  0.00000000000E+00 0. -1.
          2    1    1    2  501    0 -0.22887432653E+02 -0.57114298621E+02 -0.54278950199E+02  0.82049266389E+02  0.00000000000E+00 0.  1.
          1    1    1    2  502    0  0.11021811828E+02  0.42840246566E+02 -0.78678350295E+02  0.90261009672E+02  0.00000000000E+00 0. -1.
         22    1    1    2    0    0 -0.15153604157E+02 -0.27418747158E+01  0.31723967727E+02  0.35264142188E+02  0.00000000000E+00 0. -1.
         22    1    1    2    0    0  0.27019224982E+02  0.17015926771E+02 -0.10451200006E+03  0.10928100676E+03  0.00000000000E+00 0. -1.
</event>
<event>
 6    1  0.1726037E-005  0.3391097E+02  0.7818608E-02  0.1583109E+00
          2   -1    0    0  502    0  0.00000000000E+00  0.00000000000E+00  0.22859856307E+03  0.22859856307E+03  0.00000000000E+00 0.  1.
          1   -1    0    0  501    0 -0.00000000000E+00 -0.00000000000E+00 -0.99792154319E+02  0.99792154319E+02  0.00000000000E+00 0.  1.
          2    1    1    2  501    0  0.18313314619E+02 -0.23975333187E+02  0.77357424194E+02  0.83032314021E+02  0.00000000000E+00 0.  1.
          1    1    1    2  502    0  0.87382126080E+01  0.22570539321E+02 -0.68174539784E+02  0.72343302935E+02  0.00000000000E+00 0.  1.
         22    1    1    2    0    0 -0.34520376455E+01  0.94371069830E+01 -0.24641721057E+02  0.26611838883E+02  0.00000000000E+00 0.  1.
         22    1    1    2    0    0 -0.23599489582E+02 -0.80323131177E+01  0.14426524540E+03  0.14640326155E+03  0.00000000000E+00 0. -1.
</event>
<event>
 6    1  0.1726037E-005  0.1109441E+03  0.7818608E-02  0.1390161E+00
          2   -1    0    0  502    0  0.00000000000E+00  0.00000000000E+00  0.13130513152E+03  0.13130513152E+03  0.00000000000E+00 0.  1.
          1   -1    0    0  501    0 -0.00000000000E+00 -0.00000000000E+00 -0.51170288279E+03  0.51170288279E+03  0.00000000000E+00 0. -1.
          2    1    1    2  501    0 -0.72613676057E+02 -0.88425593888E+02  0.78146187863E+02  0.13855922302E+03  0.00000000000E+00 0.  1.
          1    1    1    2  502    0  0.47668669669E+02  0.29297504788E+02 -0.21670078119E+03  0.22380767284E+03  0.00000000000E+00 0. -1.
         22    1    1    2    0    0  0.18382878389E+02  0.50641268048E+02 -0.25671307652E+03  0.26230530285E+03  0.00000000000E+00 0.  1.
         22    1    1    2    0    0  0.65621279998E+01  0.84868210523E+01  0.14869918569E+02  0.18335815600E+02  0.00000000000E+00 0.  1.
</event>
<event>
 6    1  0.1726037E-005  0.6504546E+02  0.7818608E-02  0.1494790E+00
          2   -1    0    0  502    0  0.00000000000E+00  0.00000000000E+00  0.16381701063E+03  0.16381701063E+03  0.00000000000E+00 0. -1.
          1   -1    0    0  501    0 -0.00000000000E+00 -0.00000000000E+00 -0.13853945784E+03  0.13853945784E+03  0.00000000000E+00 0. -1.
          2    1    1    2  501    0 -0.45277538534E+02  0.34871224002E+02  0.83063147900E+02  0.10082432394E+03  0.00000000000E+00 0. -1.
          1    1    1    2  502    0 -0.30587225537E+02  0.11995166197E+02 -0.31706878553E+02  0.45659484510E+02  0.00000000000E+00 0. -1.
         22    1    1    2    0    0 -0.10091069089E+02  0.48180874379E+01 -0.51257021659E+02  0.52462614415E+02  0.00000000000E+00 0.  1.
         22    1    1    2    0    0  0.85955833161E+02 -0.51684477636E+02  0.25178305100E+02  0.10341004560E+03  0.00000000000E+00 0. -1.
</event>
<event>
 6    1  0.1726037E-005  0.1429752E+03  0.7818608E-02  0.1325381E+00
          2   -1    0    0  502    0  0.00000000000E+00  0.00000000000E+00  0.14364311078E+03  0.14364311078E+03  0.00000000000E+00 0.  1.
          1   -1    0    0  501    0 -0.00000000000E+00 -0.00000000000E+00 -0.25361189006E+03  0.25361189006E+03  0.00000000000E+00 0.  1.
          2    1    1    2  501    0 -0.57626588922E+02  0.11093013959E+03 -0.11572289777E+02  0.12553978457E+03  0.00000000000E+00 0.  1.
          1    1    1    2  502    0  0.60685367811E+02 -0.91433676390E+02 -0.89769193251E+02  0.14177919136E+03  0.00000000000E+00 0.  1.
         22    1    1    2    0    0 -0.99616092581E+01  0.11152154646E+02  0.56061760078E+02  0.58021764496E+02  0.00000000000E+00 0.  1.
         22    1    1    2    0    0  0.69028303690E+01 -0.30648617847E+02 -0.64689056330E+02  0.71914260421E+02  0.00000000000E+00 0.  1.
</event>
<event>
 6    1  0.1726037E-005  0.2682742E+02  0.7818608E-02  0.1669762E+00
          2   -1    0    0  502    0  0.00000000000E+00  0.00000000000E+00  0.34257328410E+03  0.34257328410E+03  0.00000000000E+00 0.  1.
          1   -1    0    0  501    0 -0.00000000000E+00 -0.00000000000E+00 -0.77550183908E+02  0.77550183908E+02  0.00000000000E+00 0. -1.
          2    1    1    2  501    0  0.13302037183E+01 -0.27109420755E+02  0.15433013440E+03  0.15669869342E+03  0.00000000000E+00 0.  1.
          1    1    1    2  502    0  0.32241622013E+02  0.14252610232E+02  0.12390643322E+03  0.12882338018E+03  0.00000000000E+00 0. -1.
         22    1    1    2    0    0 -0.26379896378E+02 -0.40359745199E+01 -0.70003200550E+02  0.74917528727E+02  0.00000000000E+00 0. -1.
         22    1    1    2    0    0 -0.71919293532E+01  0.16892785043E+02  0.56789733120E+02  0.59683865677E+02  0.00000000000E+00 0. -1.
</event>
<event>
 6    1  0.1987608E-005  0.1582336E+03  0.7818608E-02  0.1310925E+00
          2   -1    0    0  502    0  0.00000000000E+00  0.00000000000E+00  0.20196676122E+03  0.20196676122E+03  0.00000000000E+00 0.  1.
          1   -1    0    0  501    0 -0.00000000000E+00 -0.00000000000E+00 -0.85340844864E+03  0.85340844864E+03  0.00000000000E+00 0. -1.
          2    1    1    2  501    0 -0.31604219663E+02  0.14555282073E+03  0.14165652914E+03  0.20555053532E+03  0.00000000000E+00 0.  1.
          1    1    1    2  502    0  0.33034437317E+02 -0.12452813374E+03 -0.64007764753E+03  0.65291494470E+03  0.00000000000E+00 0. -1.
         22    1    1    2    0    0 -0.15189159410E+02 -0.24896548887E+02 -0.17126649253E+03  0.17373186286E+03  0.00000000000E+00 0.  1.
         22    1    1    2    0    0  0.13758941756E+02  0.38718618912E+01  0.18245923511E+02  0.23177866975E+02  0.00000000000E+00 0. -1.
</event>
<event>
 6    1  0.1726037E-005  0.5871155E+02  0.7818608E-02  0.1481583E+00
          2   -1    0    0  502    0  0.00000000000E+00  0.00000000000E+00  0.23128047381E+03  0.23128047381E+03  0.00000000000E+00 0.  1.
          1   -1    0    0  501    0 -0.00000000000E+00 -0.00000000000E+00 -0.41232962149E+03  0.41232962149E+03  0.00000000000E+00 0.  1.
          2    1    1    2  501    0  0.17232249269E+02 -0.38908591777E+02  0.18337608717E+03  0.18824882011E+03  0.00000000000E+00 0.  1.
          1    1    1    2  502    0 -0.55831232364E+00  0.42322693921E+02 -0.32004009521E+03  0.32282686486E+03  0.00000000000E+00 0.  1.
         22    1    1    2    0    0 -0.77376483947E+01 -0.16568474142E+02  0.41415315257E+02  0.45272661463E+02  0.00000000000E+00 0.  1.
         22    1    1    2    0    0 -0.89362885508E+01  0.13154371999E+02 -0.85800454891E+02  0.87261748867E+02  0.00000000000E+00 0. -1.
</event>
<event>
 6    1  0.1726037E-005  0.7394885E+02  0.7818608E-02  0.1350030E+00
          2   -1    0    0  502    0  0.00000000000E+00  0.00000000000E+00  0.58152920555E+02  0.58152920555E+02  0.00000000000E+00 0. -1.
          1   -1    0    0  501    0 -0.00000000000E+00 -0.00000000000E+00 -0.27156887642E+03  0.27156887642E+03  0.00000000000E+00 0. -1.
          2    1    1    2  501    0  0.41512894600E+02 -0.15461087429E+02  0.55744922553E+01  0.44647963071E+02  0.00000000000E+00 0. -1.
          1    1    1    2  502    0 -0.27644555170E+02  0.27466306261E+02 -0.12158192510E+03  0.12767452338E+03  0.00000000000E+00 0. -1.
         22    1    1    2    0    0  0.15888570846E+02 -0.21032046542E+02  0.21797528987E+02  0.34204180084E+02  0.00000000000E+00 0. -1.
         22    1    1    2    0    0 -0.29756910276E+02  0.90268277104E+01 -0.11920605202E+03  0.12319513044E+03  0.00000000000E+00 0. -1.
</event>
<event>
 6    1  0.1726037E-005  0.4820353E+02  0.7818608E-02  0.1455481E+00
          2   -1    0    0  502    0  0.00000000000E+00  0.00000000000E+00  0.68157153719E+02  0.68157153719E+02  0.00000000000E+00 0. -1.
          1   -1    0    0  501    0 -0.00000000000E+00 -0.00000000000E+00 -0.17494630668E+03  0.17494630668E+03  0.00000000000E+00 0.  1.
          2    1    1    2  501    0 -0.84935605514E+01  0.27370757947E+02  0.29791149959E+02  0.41337774219E+02  0.00000000000E+00 0. -1.
          1    1    1    2  502    0  0.84687334773E+01 -0.18747645742E+02 -0.47487748029E+02  0.51752100252E+02  0.00000000000E+00 0.  1.
         22    1    1    2    0    0 -0.15533806814E+02  0.11234353533E+02  0.25935649374E+02  0.32251631926E+02  0.00000000000E+00 0. -1.
         22    1    1    2    0    0  0.15558633888E+02 -0.19857465738E+02 -0.11502820426E+03  0.11776195400E+03  0.00000000000E+00 0.  1.
</event>
<event>
 6    1  0.1726037E-005  0.1196388E+03  0.7818608E-02  0.1352206E+00
          2   -1    0    0  502    0  0.00000000000E+00  0.00000000000E+00  0.89765897099E+02  0.89765897099E+02  0.00000000000E+00 0. -1.
          1   -1    0    0  501    0 -0.00000000000E+00 -0.00000000000E+00 -0.52724099279E+03  0.52724099279E+03  0.00000000000E+00 0. -1.
          2    1    1    2  501    0  0.97762937025E+02  0.84371891904E+02 -0.93764572819E+02  0.15958697665E+03  0.00000000000E+00 0. -1.
          1    1    1    2  502    0 -0.81031039619E+02 -0.58388853666E+02 -0.31107927874E+03  0.32671945959E+03  0.00000000000E+00 0. -1.
         22    1    1    2    0    0 -0.69288086158E+01 -0.14444843046E+02  0.46993380099E+02  0.49649165679E+02  0.00000000000E+00 0. -1.
         22    1    1    2    0    0 -0.98030887899E+01 -0.11538195192E+02 -0.79624624228E+02  0.81051287970E+02  0.00000000000E+00 0.  1.
</event>
<event>
 6    1  0.1726037E-005  0.2519980E+03  0.7818608E-02  0.1224295E+00
          2   -1    0    0  502    0  0.00000000000E+00  0.00000000000E+00  0.27431184906E+03  0.27431184906E+03  0.00000000000E+00 0.  1.
          1   -1    0    0  501    0 -0.00000000000E+00 -0.00000000000E+00 -0.47712751144E+03  0.47712751144E+03  0.00000000000E+00 0. -1.
          2    1    1    2  501    0 -0.60034731606E+02 -0.23505540237E+03  0.14366303478E+03  0.28194729781E+03  0.00000000000E+00 0.  1.
          1    1    1    2  502    0  0.84539217640E+02  0.11668625414E+03 -0.17691910837E+03  0.22817303112E+03  0.00000000000E+00 0. -1.
         22    1    1    2    0    0 -0.15783107040E+02  0.10142172866E+03 -0.18838288871E+03  0.21453108463E+03  0.00000000000E+00 0. -1.
         22    1    1    2    0    0 -0.87213789944E+01  0.16947419560E+02  0.18823299917E+02  0.26787946937E+02  0.00000000000E+00 0.  1.
</event>
<event>
 6    1  0.1726037E-005  0.3366190E+02  0.7818608E-02  0.1606723E+00
          2   -1    0    0  502    0  0.00000000000E+00  0.00000000000E+00  0.67127986297E+02  0.67127986297E+02  0.00000000000E+00 0.  1.
          1   -1    0    0  501    0 -0.00000000000E+00 -0.00000000000E+00 -0.16590996826E+03  0.16590996826E+03  0.00000000000E+00 0.  1.
          2    1    1    2  501    0  0.23848601731E+02  0.59127544150E+01  0.17664230873E+02  0.30261221417E+02  0.00000000000E+00 0.  1.
          1    1    1    2  502    0 -0.33680437867E+02  0.73309371432E+01 -0.55436185894E+02  0.65278520517E+02  0.00000000000E+00 0.  1.
         22    1    1    2    0    0 -0.15476432804E+02  0.11272298844E+02  0.32416206456E+02  0.37648308522E+02  0.00000000000E+00 0.  1.
         22    1    1    2    0    0  0.25308268940E+02 -0.24515990403E+02 -0.93426233399E+02  0.99849904103E+02  0.00000000000E+00 0.  1.
</event>
<event>
 6    1  0.1726037E-005  0.5724527E+02  0.7818608E-02  0.1492253E+00
          2   -1    0    0  502    0  0.00000000000E+00  0.00000000000E+00  0.11517096563E+03  0.11517096563E+03  0.00000000000E+00 0. -1.
          1   -1    0    0  501    0 -0.00000000000E+00 -0.00000000000E+00 -0.25417738719E+03  0.25417738719E+03  0.00000000000E+00 0. -1.
          2    1    1    2  501    0  0.55074758932E+02  0.33990445379E+02  0.70081550382E+02  0.95393936665E+02  0.00000000000E+00 0. -1.
          1    1    1    2  502    0 -0.17397110768E+02 -0.24079242163E+02 -0.10495035633E+03  0.10907358369E+03  0.00000000000E+00 0. -1.
         22    1    1    2    0    0 -0.16084411403E+02  0.54781843869E+01  0.26554708450E+02  0.31525724975E+02  0.00000000000E+00 0. -1.
         22    1    1    2    0    0 -0.21593236760E+02 -0.15389387603E+02 -0.13069232406E+03  0.13335510749E+03  0.00000000000E+00 0. -1.
</event>
<event>
 6    1  0.1726037E-005  0.7602492E+02  0.7818608E-02  0.1341487E+00
          2   -1    0    0  502    0  0.00000000000E+00  0.00000000000E+00  0.19127992183E+03  0.19127992183E+03  0.00000000000E+00 0.  1.
          1   -1    0    0  501    0 -0.00000000000E+00 -0.00000000000E+00 -0.11002835397E+03  0.11002835397E+03  0.00000000000E+00 0. -1.
          2    1    1    2  501    0 -0.43417342282E+02 -0.36395737632E+02  0.10761386603E+03  0.12161603303E+03  0.00000000000E+00 0.  1.
          1    1    1    2  502    0  0.29097635278E+02  0.31656915076E+02 -0.35594073641E+02  0.55819089291E+02  0.00000000000E+00 0. -1.
         22    1    1    2    0    0 -0.15345149960E+02 -0.87594602388E+00  0.61565460394E+02  0.63455077198E+02  0.00000000000E+00 0. -1.
         22    1    1    2    0    0  0.29664856965E+02  0.56147685798E+01 -0.52333684919E+02  0.60418076286E+02  0.00000000000E+00 0. -1.
</event>
<event>
 6    1  0.1726037E-005  0.1040830E+03  0.7818608E-02  0.1356188E+00
          2   -1    0    0  502    0  0.00000000000E+00  0.00000000000E+00  0.78228119145E+02  0.78228119145E+02  0.00000000000E+00 0.  1.
          1   -1    0    0  501    0 -0.00000000000E+00 -0.00000000000E+00 -0.32687739679E+03  0.32687739679E+03  0.00000000000E+00 0. -1.
          2    1    1    2  501    0 -0.83320694745E+02  0.77717451930E+01 -0.20753067875E+02  0.86217330175E+02  0.00000000000E+00 0.  1.
          1    1    1    2  502    0  0.78324838863E+02 -0.13576378747E+02 -0.16122019985E+03  0.17975275041E+03  0.00000000000E+00 0. -1.
         22    1    1    2    0    0 -0.22297138952E+02  0.44783723200E+01  0.30582206431E+02  0.38111541221E+02  0.00000000000E+00 0.  1.
         22    1    1    2    0    0  0.27292994835E+02  0.13262612343E+01 -0.97258216355E+02  0.10102389413E+03  0.00000000000E+00 0. -1.
</event>
<event>
 6    1  0.1726037E-005  0.1216344E+03  0.7818608E-02  0.1274462E+00
          2   -1    0    0  502    0  0.00000000000E+00  0.00000000000E+00  0.14197666799E+03  0.14197666799E+03  0.00000000000E+00 0.  1.
          1   -1    0    0  501    0 -0.00000000000E+00 -0.00000000000E+00 -0.63885014608E+03  0.63885014608E+03  0.00000000000E+00 0.  1.
          2    1    1    2  501    0  0.72099514361E+02 -0.81726110983E+02  0.87253098182E+02  0.13960874016E+03  0.00000000000E+00 0.  1.
          1    1    1    2  502    0 -0.13848464562E+02  0.86109911391E+02 -0.39803553955E+03  0.40747881854E+03  0.00000000000E+00 0.  1.
         22    1    1    2    0    0  0.29228872098E+01 -0.15201406742E+02  0.16031471930E+02  0.22285289516E+02  0.00000000000E+00 0.  1.
         22    1    1    2    0    0 -0.61173937009E+02  0.10817606333E+02 -0.20212250865E+03  0.21145396586E+03  0.00000000000E+00 0. -1.
</event>
<event>
 6    1  0.1726037E-005  0.4353408E+02  0.7818608E-02  0.1565022E+00
          2   -1    0    0  502    0  0.00000000000E+00  0.00000000000E+00  0.23963703322E+03  0.23963703322E+03  0.00000000000E+00 0. -1.
          1   -1    0    0  501    0 -0.00000000000E+00 -0.00000000000E+00 -0.38591185814E+03  0.38591185814E+03  0.00000000000E+00 0. -1.
          2    1    1    2  501    0  0.54701861818E+02  0.45918248911E+01  0.11413330589E+03  0.12664829274E+03  0.00000000000E+00 0. -1.
          1    1    1    2  502    0 -0.39626716373E+02 -0.46776155045E+02 -0.33997541946E+03  0.34545849413E+03  0.00000000000E+00 0. -1.
         22    1    1    2    0    0 -0.10961026023E+02  0.31593354690E+02  0.11315065633E+03  0.11798879260E+03  0.00000000000E+00 0. -1.
         22    1    1    2    0    0 -0.41141194215E+01  0.10590975463E+02 -0.33583367670E+02  0.35453311890E+02  0.00000000000E+00 0.  1.
</event>
<event>
 6    1  0.1726037E-005  0.4205256E+02  0.7818608E-02  0.1510362E+00
          2   -1    0    0  502    0  0.00000000000E+00  0.00000000000E+00  0.24123675731E+03  0.24123675731E+03  0.00000000000E+00 0. -1.
          1   -1    0    0  501    0 -0.00000000000E+00 -0.00000000000E+00 -0.18181689379E+03  0.18181689379E+03  0.00000000000E+00 0.  1.
          2    1    1    2  501    0 -0.83396718400E+02 -0.56836854093E+00  0.16509827071E+03  0.18496695563E+03  0.00000000000E+00 0. -1.
          1    1    1    2  502    0  0.36298712780E+02 -0.95335509576E+01 -0.96773959216E+02  0.10379635989E+03  0.00000000000E+00 0.  1.
         22    1    1    2    0    0  0.15852556941E+02  0.21470179860E+02 -0.64335780720E+02  0.69651739861E+02  0.00000000000E+00 0.  1.
         22    1    1    2    0    0  0.31245448679E+02 -0.11368260362E+02  0.55431332747E+02  0.64638595722E+02  0.00000000000E+00 0. -1.
</event>
<event>
 6    1  0.1726037E-005  0.1223960E+03  0.7818608E-02  0.1332207E+00
          2   -1    0    0  502    0  0.00000000000E+00  0.00000000000E+00  0.35780846485E+02  0.35780846485E+02  0.00000000000E+00 0.  1.
          1   -1    0    0  501    0 -0.00000000000E+00 -0.00000000000E+00 -0.90298521964E+03  0.90298521964E+03  0.00000000000E+00 0.  1.
          2    1    1    2  501    0  0.37716792999E+02 -0.47509182090E+02 -0.37427762705E+03  0.37916147084E+03  0.00000000000E+00 0.  1.
          1    1    1    2  502    0 -0.54173914332E+02  0.21296980147E+02 -0.39447280047E+03  0.39874448544E+03  0.00000000000E+00 0.  1.
         22    1    1    2    0    0  0.31451523358E+02  0.41104646358E+02 -0.11999631252E+03  0.13068245978E+03  0.00000000000E+00 0.  1.
         22    1    1    2    0    0 -0.14994402025E+02 -0.14892444416E+02  0.21542366889E+02  0.30177650073E+02  0.00000000000E+00 0. -1.
</event>
<event>
 6    1  0.1726037E-005  0.4619184E+02  0.7818608E-02  0.1471069E+00
          2   -1    0    0  502    0  0.00000000000E+00  0.00000000000E+00  0.96395808259E+02  0.96395808259E+02  0.00000000000E+00 0. -1.
          1   -1    0    0  501    0 -0.00000000000E+00 -0.00000000000E+00 -0.13120826513E+03  0.13120826513E+03  0.00000000000E+00 0.  1.
          2    1    1    2  501    0 -0.17896944554E+02  0.26796834756E+02 -0.11211771217E+02  0.34118540284E+02  0.00000000000E+00 0. -1.
          1    1    1    2  502    0  0.20204690768E+02  0.20043462626E+02 -0.46168452468E+02  0.54235559611E+02  0.00000000000E+00 0.  1.
         22    1    1    2    0    0  0.97200667956E+01  0.74617087984E+01 -0.47919968543E+02  0.49461906371E+02  0.00000000000E+00 0.  1.
         22    1    1    2    0    0 -0.12027813009E+02 -0.54302006181E+02  0.70487735360E+02  0.89788067120E+02  0.00000000000E+00 0. -1.
</event>
<event>
 6    1  0.1726037E-005  0.6277859E+02  0.7818608E-02  0.1448205E+00
          2   -1    0    0  502    0  0.00000000000E+00  0.00000000000E+00  0.13007495947E+03  0.13007495947E+03  0.00000000000E+00 0.  1.
          1   -1    0    0  501    0 -0.00000000000E+00 -0.00000000000E+00 -0.18447677303E+03  0.18447677303E+03  0.00000000000E+00 0.  1.
          2    1    1    2  501    0 -0.58849990106E+02 -0.35323843136E+02 -0.95437904154E+02  0.11755632173E+03  0.00000000000E+00 0.  1.
          1    1    1    2  502    0  0.33688396978E+02  0.12463992954E+02 -0.33843173537E+02  0.49351996984E+02  0.00000000000E+00 0.  1.
         22    1    1    2    0    0  0.20112973691E+02 -0.82031854735E+00 -0.32137799260E+02  0.37921534442E+02  0.00000000000E+00 0.  1.
         22    1    1    2    0    0  0.50486194372E+01  0.23680168729E+02  0.10701706339E+03  0.10972187934E+03  0.00000000000E+00 0.  1.
</event>
<event>
 6    1  0.1726037E-005  0.5287749E+02  0.7818608E-02  0.1509191E+00
          2   -1    0    0  502    0  0.00000000000E+00  0.00000000000E+00  0.28603160637E+03  0.28603160637E+03  0.00000000000E+00 0. -1.
          1   -1    0    0  501    0 -0.00000000000E+00 -0.00000000000E+00 -0.35905122891E+03  0.35905122891E+03  0.00000000000E+00 0. -1.
          2    1    1    2  501    0 -0.33676807588E+02  0.12071093726E+02  0.25340722101E+03  0.25592002331E+03  0.00000000000E+00 0. -1.
          1    1    1    2  502    0  0.27388661494E+02 -0.85322094927E+01 -0.22461672437E+03  0.22644118496E+03  0.00000000000E+00 0. -1.
         22    1    1    2    0    0  0.14336306299E+02 -0.18611166280E+02 -0.12871957788E+03  0.13084584410E+03  0.00000000000E+00 0. -1.
         22    1    1    2    0    0 -0.80481602050E+01  0.15072282046E+02  0.26909458699E+02  0.31875782912E+02  0.00000000000E+00 0.  1.
</event>
<event>
 6    1  0.2404082E-005  0.1216268E+03  0.7818608E-02  0.1251325E+00
          2   -1    0    0  502    0  0.00000000000E+00  0.00000000000E+00  0.17423412903E+04  0.17423412903E+04  0.00000000000E+00 0. -1.
          1   -1    0    0  501    0 -0.00000000000E+00 -0.00000000000E+00 -0.36544465217E+02  0.36544465217E+02  0.00000000000E+00 0. -1.
          2    1    1    2  501    0  0.49750249285E+02  0.66414148174E+02  0.30878443210E+02  0.88540412449E+02  0.00000000000E+00 0. -1.
          1    1    1    2  502    0  0.58993698684E+01 -0.43411091896E+02  0.10389705100E+04  0.10398937668E+04  0.00000000000E+00 0. -1.
         22    1    1    2    0    0  0.38833362707E+02  0.18805848015E+01  0.18440969713E+03  0.18846353243E+03  0.00000000000E+00 0. -1.
         22    1    1    2    0    0 -0.94482981860E+02 -0.24883641079E+02  0.45153817472E+03  0.46198804388E+03  0.00000000000E+00 0. -1.
</event>
<event>
 6    1  0.1726037E-005  0.1923192E+03  0.7818608E-02  0.1158881E+00
          2   -1    0    0  502    0  0.00000000000E+00  0.00000000000E+00  0.54782327325E+03  0.54782327325E+03  0.00000000000E+00 0. -1.
          1   -1    0    0  501    0 -0.00000000000E+00 -0.00000000000E+00 -0.18372497599E+03  0.18372497599E+03  0.00000000000E+00 0.  1.
          2    1    1    2  501    0  0.80216919986E+02 -0.11020465225E+03  0.28343036956E+03  0.31450372656E+03  0.00000000000E+00 0. -1.
          1    1    1    2  502    0 -0.56546733556E+02  0.15402824991E+03 -0.99669350610E+02  0.19197972366E+03  0.00000000000E+00 0.  1.
         22    1    1    2    0    0 -0.75020742912E+01 -0.48546453629E+02  0.19600126561E+03  0.20206319655E+03  0.00000000000E+00 0.  1.
         22    1    1    2    0    0 -0.16168112139E+02  0.47228559720E+01 -0.15663987293E+02  0.23001602479E+02  0.00000000000E+00 0.  1.
</event>
<event>
 6    1  0.1726037E-005  0.6566574E+02  0.7818608E-02  0.1448948E+00
          2   -1    0    0  502    0  0.00000000000E+00  0.00000000000E+00  0.12182842326E+03  0.12182842326E+03  0.00000000000E+00 0. -1.
          1   -1    0    0  501    0 -0.00000000000E+00 -0.00000000000E+00 -0.10933575163E+04  0.10933575163E+04  0.00000000000E+00 0.  1.
          2    1    1    2  501    0  0.69313523161E+02 -0.36994302367E+02 -0.69980885505E+02  0.10521533746E+03  0.00000000000E+00 0. -1.
          1    1    1    2  502    0 -0.68204874513E+02 -0.72925530750E+01 -0.96191906914E+03  0.96436164473E+03  0.00000000000E+00 0.  1.
         22    1    1    2    0    0 -0.15286644241E+02 -0.79068861676E+01 -0.33277487960E+02  0.37464537178E+02  0.00000000000E+00 0.  1.
         22    1    1    2    0    0  0.14177995593E+02  0.52193741609E+02  0.93648349617E+02  0.10814442014E+03  0.00000000000E+00 0. -1.
</event>
<event>
 6    1  0.1726037E-005  0.2916544E+03  0.7818608E-02  0.1204180E+00
          2   -1    0    0  502    0  0.00000000000E+00  0.00000000000E+00  0.51726522884E+03  0.51726522884E+03  0.00000000000E+00 0. -1.
          1   -1    0    0  501    0 -0.00000000000E+00 -0.00000000000E+00 -0.59014681517E+03  0.59014681517E+03  0.00000000000E+00 0. -1.
          2    1    1    2  501    0  0.18408252468E+02 -0.28932536823E+03  0.42061705226E+03  0.51084903554E+03  0.00000000000E+00 0. -1.
          1    1    1    2  502    0  0.26155621180E+02  0.52921813177E+02 -0.55578234470E+02  0.81078819528E+02  0.00000000000E+00 0. -1.
         22    1    1    2    0    0 -0.95191314417E+01  0.16250832295E+02  0.51227762046E+01  0.19517844392E+02  0.00000000000E+00 0. -1.
         22    1    1    2    0    0 -0.35044742206E+02  0.22015272276E+03 -0.44304318033E+03  0.49596634455E+03  0.00000000000E+00 0. -1.
</event>
<event>
 6    1  0.1726037E-005  0.1589860E+03  0.7818608E-02  0.1287072E+00
          2   -1    0    0  502    0  0.00000000000E+00  0.00000000000E+00  0.73890817615E+03  0.73890817615E+03  0.00000000000E+00 0.  1.
          1   -1    0    0  501    0 -0.00000000000E+00 -0.00000000000E+00 -0.18167002749E+03  0.18167002749E+03  0.00000000000E+00 0.  1.
          2    1    1    2  501    0  0.16691992592E+03  0.48169399009E+02  0.56024537376E+03  0.58656408984E+03  0.00000000000E+00 0.  1.
          1    1    1    2  502    0 -0.13099817695E+03 -0.42886783147E+02 -0.10206392851E+03  0.17151339317E+03  0.00000000000E+00 0.  1.
         22    1    1    2    0    0 -0.14471253708E+02 -0.96471193905E+01 -0.28332330140E+02  0.33244624040E+02  0.00000000000E+00 0.  1.
         22    1    1    2    0    0 -0.21450495267E+02  0.43645035290E+01  0.12738903355E+03  0.12925609659E+03  0.00000000000E+00 0.  1.
</event>
<event>
 6    1  0.1726037E-005  0.1125531E+03  0.7818608E-02  0.1310324E+00
          2   -1    0    0  502    0  0.00000000000E+00  0.00000000000E+00  0.16079912075E+03  0.16079912075E+03  0.00000000000E+00 0.  1.
          1   -1    0    0  501    0 -0.00000000000E+00 -0.00000000000E+00 -0.24549388025E+03  0.24549388025E+03  0.00000000000E+00 0.  1.
          2    1    1    2  501    0 -0.20931692207E+02  0.10207746775E+03  0.90581616132E+02  0.13806873050E+03  0.00000000000E+00 0.  1.
          1    1    1    2  502    0  0.16817491770E+02 -0.76070619103E+02 -0.63925974690E+02  0.10077746455E+03  0.00000000000E+00 0.  1.
         22    1    1    2    0    0 -0.52866705287E+01 -0.39800754893E+02 -0.13367323318E+03  0.13957285640E+03  0.00000000000E+00 0.  1.
         22    1    1    2    0    0  0.94008709659E+01  0.13793906250E+02  0.22322832245E+02  0.27873949558E+02  0.00000000000E+00 0.  1.
</event>
<event>
 6    1  0.1726037E-005  0.8712485E+02  0.7818608E-02  0.1372988E+00
          2   -1    0    0  502    0  0.00000000000E+00  0.00000000000E+00  0.17750061451E+03  0.17750061451E+03  0.00000000000E+00 0. -1.
          1   -1    0    0  501    0 -0.00000000000E+00 -0.00000000000E+00 -0.71703997363E+02  0.71703997363E+02  0.00000000000E+00 0. -1.
          2    1    1    2  501    0 -0.44571904651E+02 -0.52261006544E+02  0.33796602135E+02  0.76551145028E+02  0.00000000000E+00 0. -1.
          1    1    1    2  502    0  0.82921392649E+01  0.19742954231E+02  0.85301578653E+01  0.23050106476E+02  0.00000000000E+00 0. -1.
         22    1    1    2    0    0 -0.27600529738E+02 -0.98130158485E+01  0.66755695863E+02  0.72899982524E+02  0.00000000000E+00 0.  1.
         22    1    1    2    0    0  0.63880295124E+02  0.42331068162E+02 -0.32858387151E+01  0.76703377846E+02  0.00000000000E+00 0. -1.
</event>
<event>
 6    1  0.1726037E-005  0.8663619E+02  0.7818608E-02  0.1414263E+00
          2   -1    0    0  502    0  0.00000000000E+00  0.00000000000E+00  0.72356262650E+02  0.72356262650E+02  0.00000000000E+00 0.  1.
          1   -1    0    0  501    0 -0.00000000000E+00 -0.00000000000E+00 -0.20015646716E+03  0.20015646716E+03  0.00000000000E+00 0. -1.
          2    1    1    2  501    0  0.13840788509E+02  0.32287687407E+02  0.13831212155E+02  0.37754001302E+02  0.00000000000E+00 0.  1.
          1    1    1    2  502    0 -0.28803726232E+02  0.11167556377E+02 -0.80245654550E+02  0.85986824772E+02  0.00000000000E+00 0. -1.
         22    1    1    2    0    0  0.30209343486E+02 -0.45618471615E+02 -0.96218463458E+02  0.11068713609E+03  0.00000000000E+00 0. -1.
         22    1    1    2    0    0 -0.15246405763E+02  0.21632278310E+01  0.34832701344E+02  0.38084767641E+02  0.00000000000E+00 0.  1.
</event>
<event>
 6    1  0.1726037E-005  0.5250397E+02  0.7818608E-02  0.1544103E+00
          2   -1    0    0  502    0  0.00000000000E+00  0.00000000000E+00  0.13818179666E+03  0.13818179666E+03  0.00000000000E+00 0.  1.
          1   -1    0    0  501    0 -0.00000000000E+00 -0.00000000000E+00 -0.56085645726E+03  0.56085645726E+03  0.00000000000E+00 0.  1.
          2    1    1    2  501    0 -0.22485510325E+02 -0.18423209071E+02  0.50782350650E+02  0.58513758592E+02  0.00000000000E+00 0.  1.
          1    1    1    2  502    0  0.32182944063E+02  0.19448760089E+02 -0.50860111099E+03  0.50998930014E+03  0.00000000000E+00 0.  1.
         22    1    1    2    0    0  0.82716736792E+01  0.72325404644E+01 -0.45856977617E+02  0.47154985136E+02  0.00000000000E+00 0. -1.
         22    1    1    2    0    0 -0.17969107417E+02 -0.82580914820E+01  0.81001077351E+02  0.83380210052E+02  0.00000000000E+00 0.  1.
</event>
<event>
 6    1  0.1726037E-005  0.4285465E+02  0.7818608E-02  0.1550240E+00
          2   -1    0    0  502    0  0.00000000000E+00  0.00000000000E+00  0.84306983384E+03  0.84306983384E+03  0.00000000000E+00 0.  1.
          1   -1    0    0  501    0 -0.00000000000E+00 -0.00000000000E+00 -0.28090396681E+02  0.28090396681E+02  0.00000000000E+00 0.  1.
          2    1    1    2  501    0  0.31208819243E+02  0.34302292250E+02  0.60574104953E+03  0.60751366794E+03  0.00000000000E+00 0.  1.
          1    1    1    2  502    0 -0.19293050546E+02 -0.10094025647E+02  0.78511884932E+02  0.81475316683E+02  0.00000000000E+00 0.  1.
         22    1    1    2    0    0 -0.16731293104E+01 -0.39816784813E+02  0.15007990241E+03  0.15528088364E+03  0.00000000000E+00 0.  1.
         22    1    1    2    0    0 -0.10242639387E+02  0.15608518210E+02 -0.19353399711E+02  0.26890362264E+02  0.00000000000E+00 0.  1.
</event>
<event>
 6    1  0.1726037E-005  0.1696459E+03  0.7818608E-02  0.1265238E+00
          2   -1    0    0  502    0  0.00000000000E+00  0.00000000000E+00  0.18550693886E+03  0.18550693886E+03  0.00000000000E+00 0.  1.
          1   -1    0    0  501    0 -0.00000000000E+00 -0.00000000000E+00 -0.43699233256E+03  0.43699233256E+03  0.00000000000E+00 0. -1.
          2    1    1    2  501    0 -0.13222001172E+02  0.17453004523E+03 -0.78457621653E+02  0.19181020931E+03  0.00000000000E+00 0.  1.
          1    1    1    2  502    0  0.36558880376E+02 -0.14718628159E+03 -0.23830451716E+03  0.28247016856E+03  0.00000000000E+00 0. -1.
         22    1    1    2    0    0 -0.23840510249E+02 -0.13444825669E+02  0.10375490987E+03  0.10730430834E+03  0.00000000000E+00 0.  1.
         22    1    1    2    0    0  0.50363104483E+00 -0.13898937967E+02 -0.38478164753E+02  0.40914585218E+02  0.00000000000E+00 0.  1.
</event>
<event>
 6    1  0.1726037E-005  0.4110343E+02  0.7818608E-02  0.1539762E+00
          2   -1    0    0  502    0  0.00000000000E+00  0.00000000000E+00  0.30798467070E+03  0.30798467070E+03  0.00000000000E+00 0.  1.
          1   -1    0    0  501    0 -0.00000000000E+00 -0.00000000000E+00 -0.20675727765E+03  0.20675727765E+03  0.00000000000E+00 0.  1.
          2    1    1    2  501    0  0.57411441872E+02  0.50194811784E+02  0.23272548490E+03  0.24490149879E+03  0.00000000000E+00 0.  1.
          1    1    1    2  502    0 -0.16942027873E+02 -0.38355774357E+02 -0.13150511279E+03  0.13802823054E+03  0.00000000000E+00 0.  1.
         22    1    1    2    0    0 -0.28438417072E+02 -0.36022008653E-01 -0.61650061897E+02  0.67893114489E+02  0.00000000000E+00 0.  1.
         22    1    1    2    0    0 -0.12030996926E+02 -0.11803015419E+02  0.61657082841E+02  0.63919104534E+02  0.00000000000E+00 0. -1.
</event>
<event>
 6    1  0.1726037E-005  0.4330386E+02  0.7818608E-02  0.1591159E+00
          2   -1    0    0  502    0  0.00000000000E+00  0.00000000000E+00  0.92571031607E+03  0.92571031607E+03  0.00000000000E+00 0. -1.
          1   -1    0    0  501    0 -0.00000000000E+00 -0.00000000000E+00 -0.49376116168E+02  0.49376116168E+02  0.00000000000E+00 0. -1.
          2    1    1    2  501    0 -0.38893009719E+02  0.14048341784E+02  0.60520643168E+03  0.60661754595E+03  0.00000000000E+00 0. -1.
          1    1    1    2  502    0 -0.10681344790E+02 -0.33201173715E+02 -0.24074744878E+02  0.42379268558E+02  0.00000000000E+00 0. -1.
         22    1    1    2    0    0  0.54855438256E+02  0.96764900246E+01  0.30585474730E+03  0.31088563815E+03  0.00000000000E+00 0. -1.
         22    1    1    2    0    0 -0.52810837471E+01  0.94763419068E+01 -0.10652234197E+02  0.15203979573E+02  0.00000000000E+00 0. -1.
</event>
<event>
 6    1  0.1726037E-005  0.1094847E+03  0.7818608E-02  0.1379007E+00
          2   -1    0    0  502    0  0.00000000000E+00  0.00000000000E+00  0.27626042022E+03  0.27626042022E+03  0.00000000000E+00 0. -1.
          1   -1    0    0  501    0 -0.00000000000E+00 -0.00000000000E+00 -0.38943949055E+03  0.38943949055E+03  0.00000000000E+00 0.  1.
          2    1    1    2  501    0 -0.10631829371E+03  0.29229006844E+02  0.21541049810E+03  0.24199090295E+03  0.00000000000E+00 0. -1.
          1    1    1    2  502    0  0.88180756078E+02 -0.21985932633E+02 -0.27676374256E+03  0.29130292854E+03  0.00000000000E+00 0.  1.
         22    1    1    2    0    0  0.14857370170E+02  0.57218108498E+01 -0.90290205077E+02  0.91683159308E+02  0.00000000000E+00 0.  1.
         22    1    1    2    0    0  0.32801674625E+01 -0.12964885061E+02  0.38464379219E+02  0.40722919983E+02  0.00000000000E+00 0. -1.
</event>
<event>
 6    1  0.1726037E-005  0.6721724E+02  0.7818608E-02  0.1374444E+00
          2   -1    0    0  502    0  0.00000000000E+00  0.00000000000E+00  0.28070961203E+03  0.28070961203E+03  0.00000000000E+00 0. -1.
          1   -1    0    0  501    0 -0.00000000000E+00 -0.00000000000E+00 -0.13357973968E+03  0.13357973968E+03  0.00000000000E+00 0. -1.
          2    1    1    2  501    0  0.28660990279E+02 -0.18951580429E+02  0.11165257549E+03  0.11681999990E+03  0.00000000000E+00 0. -1.
          1    1    1    2  502    0 -0.46562520326E+02  0.70789493761E+01 -0.99749747600E+02  0.11030952801E+03  0.00000000000E+00 0. -1.
         22    1    1    2    0    0  0.30973596487E+02  0.51608264957E+01  0.15743202470E+03  0.16053298792E+03  0.00000000000E+00 0. -1.
         22    1    1    2    0    0 -0.13072066440E+02  0.67118045568E+01 -0.22204980242E+02  0.26626835880E+02  0.00000000000E+00 0. -1.
</event>
<event>
 6    1  0.1726037E-005  0.8606022E+02  0.7818608E-02  0.1317395E+00
          2   -1    0    0  502    0  0.00000000000E+00  0.00000000000E+00  0.67583854587E+02  0.67583854587E+02  0.00000000000E+00 0. -1.
          1   -1    0    0  501    0 -0.00000000000E+00 -0.00000000000E+00 -0.26501359229E+03  0.26501359229E+03  0.00000000000E+00 0. -1.
          2    1    1    2  501    0 -0.67907134975E+02  0.22813496484E+02 -0.26939763346E+02  0.76534864287E+02  0.00000000000E+00 0. -1.
          1    1    1    2  502    0 -0.26578522598E+02 -0.22464776449E+02 -0.39486946993E+02  0.52633668191E+02  0.00000000000E+00 0. -1.
         22    1    1    2    0    0  0.63230376187E+02  0.47457752887E+02 -0.24828245129E+02  0.82865919038E+02  0.00000000000E+00 0.  1.
         22    1    1    2    0    0  0.31255281385E+02 -0.47806472922E+02 -0.10617478223E+03  0.12056299536E+03  0.00000000000E+00 0. -1.
</event>
<event>
 6    1  0.1726037E-005  0.1058650E+03  0.7818608E-02  0.1286479E+00
          2   -1    0    0  502    0  0.00000000000E+00  0.00000000000E+00  0.11220243341E+03  0.11220243341E+03  0.00000000000E+00 0. -1.
          1   -1    0    0  501    0 -0.00000000000E+00 -0.00000000000E+00 -0.52965017374E+03  0.52965017374E+03  0.00000000000E+00 0. -1.
          2    1    1    2  501    0  0.17202702137E+03  0.99449252714E+02 -0.12183480775E+03  0.23308189618E+03  0.00000000000E+00 0. -1.
          1    1    1    2  502    0 -0.65441538456E+02 -0.49909856222E+02 -0.19870908662E+02  0.84666650546E+02  0.00000000000E+00 0. -1.
         22    1    1    2    0    0 -0.48323340747E+02 -0.72750110055E+02 -0.23129707337E+03  0.24723684985E+03  0.00000000000E+00 0. -1.
         22    1    1    2    0    0 -0.58262142165E+02  0.23210713563E+02 -0.44444950542E+02  0.76867210581E+02  0.00000000000E+00 0. -1.
</event>
<event>
 6    1  0.1726037E-005  0.5393847E+02  0.7818608E-02  0.1446634E+00
          2   -1    0    0  502    0  0.00000000000E+00  0.00000000000E+00  0.59364585298E+02  0.59364585298E+02  0.00000000000E+00 0. -1.
          1   -1    0    0  501    0 -0.00000000000E+00 -0.00000000000E+00 -0.36995773191E+03  0.36995773191E+03  0.00000000000E+00 0. -1.
          2    1    1    2  501    0 -0.54686084541E+02  0.37458653773E+02 -0.13972093720E+03  0.15464688447E+03  0.00000000000E+00 0. -1.
          1    1    1    2  502    0  0.48449644648E+00 -0.23076094796E+02 -0.12879106278E+03  0.13084295449E+03  0.00000000000E+00 0. -1.
         22    1    1    2    0    0  0.38552228638E+02  0.63539291165E+01  0.41088298687E+02  0.56700044419E+02  0.00000000000E+00 0. -1.
         22    1    1    2    0    0  0.15649359457E+02 -0.20736488094E+02 -0.83169445318E+02  0.87132433826E+02  0.00000000000E+00 0.  1.
</event>
<event>
 6    1  0.1726037E-005  0.9135730E+02  0.7818608E-02  0.1359376E+00
          2   -1    0    0  502    0  0.00000000000E+00  0.00000000000E+00  0.35800351749E+03  0.35800351749E+03  0.00000000000E+00 0.  1.
          1   -1    0    0  501    0 -0.00000000000E+00 -0.00000000000E+00 -0.15573042708E+03  0.15573042708E+03  0.00000000000E+00 0.  1.
          2    1    1    2  501    0  0.70660620796E+01  0.81078379350E+02  0.15864408874E+03  0.17830193416E+03  0.00000000000E+00 0.  1.
          1    1    1    2  502    0 -0.43130321219E+02 -0.62736546758E+02 -0.10934861299E+03  0.13324120260E+03  0.00000000000E+00 0.  1.
         22    1    1    2    0    0  0.43283473372E+01 -0.15408512174E+02 -0.20388189421E+02  0.25919782136E+02  0.00000000000E+00 0.  1.
         22    1    1    2    0    0  0.31735911803E+02 -0.29333204189E+01  0.17336580408E+03  0.17627102567E+03  0.00000000000E+00 0.  1.
</event>
<event>
 6    1  0.1726037E-005  0.4858775E+02  0.7818608E-02  0.1543858E+00
          2   -1    0    0  502    0  0.00000000000E+00  0.00000000000E+00  0.40664875804E+02  0.40664875804E+02  0.00000000000E+00 0. -1.
          1   -1    0    0  501    0 -0.00000000000E+00 -0.00000000000E+00 -0.21285971044E+03  0.21285971044E+03  0.00000000000E+00 0.  1.
          2    1    1    2  501    0  0.24546528268E+02 -0.25972785904E+01 -0.46767586814E+02  0.52881802943E+02  0.00000000000E+00 0. -1.
          1    1    1    2  502    0 -0.18068047763E+02  0.16953253037E+02 -0.52705653170E+02  0.58238758697E+02  0.00000000000E+00 0.  1.
         22    1    1    2    0    0 -0.19794133608E+02 -0.18373690864E+02 -0.10438409554E+03  0.10782133204E+03  0.00000000000E+00 0. -1.
         22    1    1    2    0    0  0.13315653103E+02  0.40177164181E+01  0.31662500885E+02  0.34582692566E+02  0.00000000000E+00 0. -1.
</event>
<event>
 6    1  0.1726037E-005  0.8658220E+02  0.7818608E-02  0.1433239E+00
          2   -1    0    0  502    0  0.00000000000E+00  0.00000000000E+00  0.89117503016E+02  0.89117503016E+02  0.00000000000E+00 0.  1.
          1   -1    0    0  501    0 -0.00000000000E+00 -0.00000000000E+00 -0.29329053917E+03  0.29329053917E+03  0.00000000000E+00 0. -1.
          2    1    1    2  501    0 -0.26869295210E+02  0.75008816291E+02 -0.63906964217E+02  0.10213903084E+03  0.00000000000E+00 0.  1.
          1    1    1    2  502    0  0.17404301404E+02 -0.54696245887E+02 -0.14541467816E+03  0.15633303441E+03  0.00000000000E+00 0. -1.
         22    1    1    2    0    0 -0.11423301619E+02  0.16419570370E+01  0.60091734997E+02  0.61189904868E+02  0.00000000000E+00 0.  1.
         22    1    1    2    0    0  0.20888295425E+02 -0.21954527440E+02 -0.54943128775E+02  0.62746072072E+02  0.00000000000E+00 0. -1.
</event>
<event>
 6    1  0.1726037E-005  0.2078986E+03  0.7818608E-02  0.1236861E+00
          2   -1    0    0  502    0  0.00000000000E+00  0.00000000000E+00  0.99142983839E+03  0.99142983839E+03  0.00000000000E+00 0. -1.
          1   -1    0    0  501    0 -0.00000000000E+00 -0.00000000000E+00 -0.46484147703E+02  0.46484147703E+02  0.00000000000E+00 0. -1.
          2    1    1    2  501    0 -0.58468490931E+02 -0.14481967649E+03  0.54672871172E+03  0.56859791360E+03  0.00000000000E+00 0. -1.
          1    1    1    2  502    0  0.51668092070E+02  0.12887775147E+02  0.41773061693E+02  0.67680685351E+02  0.00000000000E+00 0. -1.
         22    1    1    2    0    0  0.16525229822E+02 -0.20321346593E+02  0.98765443265E+02  0.10217951425E+03  0.00000000000E+00 0. -1.
         22    1    1    2    0    0 -0.97248309603E+01  0.15225324794E+03  0.25767847401E+03  0.29945587290E+03  0.00000000000E+00 0. -1.
</event>
<event>
 6    1  0.1726037E-005  0.2342480E+03  0.7818608E-02  0.1184480E+00
          2   -1    0    0  502    0  0.00000000000E+00  0.00000000000E+00  0.90301646855E+03  0.90301646855E+03  0.00000000000E+00 0. -1.
          1   -1    0    0  501    0 -0.00000000000E+00 -0.00000000000E+00 -0.25711805050E+03  0.25711805050E+03  0.00000000000E+00 0.  1.
          2    1    1    2  501    0  0.14656420979E+03  0.33968539071E+03  0.36658688788E+03  0.52081971797E+03  0.00000000000E+00 0. -1.
          1    1    1    2  502    0 -0.27891904451E+03 -0.22994435888E+03  0.20464845244E+03  0.41539286304E+03  0.00000000000E+00 0.  1.
         22    1    1    2    0    0  0.96409753165E+02 -0.11622596672E+03  0.12118481002E+02  0.15149314647E+03  0.00000000000E+00 0.  1.
         22    1    1    2    0    0  0.35945081557E+02  0.64849348912E+01  0.62544596727E+02  0.72428791571E+02  0.00000000000E+00 0.  1.
</event>
<event>
 6    1  0.1726037E-005  0.5701889E+02  0.7818608E-02  0.1494581E+00
          2   -1    0    0  502    0  0.00000000000E+00  0.00000000000E+00  0.96170212824E+02  0.96170212824E+02  0.00000000000E+00 0. -1.
          1   -1    0    0  501    0 -0.00000000000E+00 -0.00000000000E+00 -0.31664712364E+03  0.31664712364E+03  0.00000000000E+00 0. -1.
          2    1    1    2  501    0 -0.17568529948E+02  0.83356016050E+02  0.41847667860E+01  0.85290040035E+02  0.00000000000E+00 0. -1.
          1    1    1    2  502    0 -0.93976364208E+01 -0.75327998568E+02 -0.17058942278E+03  0.18671736423E+03  0.00000000000E+00 0. -1.
         22    1    1    2    0    0 -0.11166261744E+02  0.11279279777E+01  0.38591030615E+02  0.40189865225E+02  0.00000000000E+00 0. -1.
         22    1    1    2    0    0  0.38132428113E+02 -0.91559454596E+01 -0.92663285438E+02  0.10062006698E+03  0.00000000000E+00 0. -1.
</event>
<event>
 6    1  0.1726037E-005  0.7351018E+02  0.7818608E-02  0.1352404E+00
          2   -1    0    0  502    0  0.00000000000E+00  0.00000000000E+00  0.93370744017E+02  0.93370744017E+02  0.00000000000E+00 0. -1.
          1   -1    0    0  501    0 -0.00000000000E+00 -0.00000000000E+00 -0.30549294621E+03  0.30549294621E+03  0.00000000000E+00 0.  1.
          2    1    1    2  501    0  0.83045069839E+01 -0.54727571646E+02  0.45626736406E+02  0.71734726664E+02  0.00000000000E+00 0. -1.
          1    1    1    2  502    0 -0.19347072327E+02  0.37595027218E+02 -0.17340278949E+03  0.17848311596E+03  0.00000000000E+00 0.  1.
         22    1    1    2    0    0 -0.18748586454E+01  0.26474526435E+02 -0.11288138787E+03  0.11595957646E+03  0.00000000000E+00 0.  1.
         22    1    1    2    0    0  0.12917423988E+02 -0.93419820070E+01  0.28535238762E+02  0.32686271147E+02  0.00000000000E+00 0. -1.
</event>
<event>
 6    1  0.1726037E-005  0.1153456E+03  0.7818608E-02  0.1296791E+00
          2   -1    0    0  502    0  0.00000000000E+00  0.00000000000E+00  0.12087734173E+03  0.12087734173E+03  0.00000000000E+00 0.  1.
          1   -1    0    0  501    0 -0.00000000000E+00 -0.00000000000E+00 -0.64000392528E+03  0.64000392528E+03  0.00000000000E+00 0.  1.
          2    1    1    2  501    0 -0.20749532639E+03  0.70347520130E+02 -0.11320213312E+03  0.24661266594E+03  0.00000000000E+00 0.  1.
          1    1    1    2  502    0  0.12592036859E+03 -0.84405110982E+02 -0.13281575485E+03  0.20154450308E+03  0.00000000000E+00 0.  1.
         22    1    1    2    0    0  0.71237888379E+02 -0.14326416072E+02 -0.27301158945E+03  0.28251621354E+03  0.00000000000E+00 0.  1.
         22    1    1    2    0    0  0.10337069413E+02  0.28384006924E+02 -0.97106128972E-01  0.30207884446E+02  0.00000000000E+00 0. -1.
</event>
<event>
 6    1  0.1726037E-005  0.5464321E+02  0.7818608E-02  0.1488292E+00
          2   -1    0    0  502    0  0.00000000000E+00  0.00000000000E+00  0.15978499302E+03  0.15978499302E+03  0.00000000000E+00 0. -1.
          1   -1    0    0  501    0 -0.00000000000E+00 -0.00000000000E+00 -0.19114678162E+03  0.19114678162E+03  0.00000000000E+00 0.  1.
          2    1    1    2  501    0  0.44340104742E+02  0.35257838849E+01  0.10024134251E+03  0.10966678070E+03  0.00000000000E+00 0. -1.
          1    1    1    2  502    0 -0.29777940512E+02 -0.19966873471E+02 -0.10424932941E+03  0.11024211745E+03  0.00000000000E+00 0.  1.
         22    1    1    2    0    0 -0.18170251099E+02 -0.38858043678E+01 -0.75967676356E+02  0.78207067146E+02  0.00000000000E+00 0. -1.
         22    1    1    2    0    0  0.36080868699E+01  0.20326893954E+02  0.48613874649E+02  0.52815809348E+02  0.00000000000E+00 0. -1.
</event>
<event>
 6    1  0.1726037E-005  0.3462273E+03  0.7818608E-02  0.1127171E+00
          2   -1    0    0  502    0  0.00000000000E+00  0.00000000000E+00  0.80302166409E+02  0.80302166409E+02  0.00000000000E+00 0.  1.
          1   -1    0    0  501    0 -0.00000000000E+00 -0.00000000000E+00 -0.23295180688E+04  0.23295180688E+04  0.00000000000E+00 0.  1.
          2    1    1    2  501    0  0.31758040036E+03 -0.82785123251E+02 -0.78172288965E+03  0.84782153991E+03  0.00000000000E+00 0.  1.
          1    1    1    2  502    0 -0.29078950585E+03  0.15333524768E+03 -0.13006960176E+04  0.13415962005E+04  0.00000000000E+00 0.  1.
         22    1    1    2    0    0 -0.21889930504E+01 -0.66510610787E+02 -0.17188115860E+02  0.68730519893E+02  0.00000000000E+00 0. -1.
         22    1    1    2    0    0 -0.24601901453E+02 -0.40395136456E+01 -0.14960887929E+03  0.15167197496E+03  0.00000000000E+00 0. -1.
</event>
<event>
 6    1  0.1726037E-005  0.7573209E+02  0.7818608E-02  0.1462712E+00
          2   -1    0    0  502    0  0.00000000000E+00  0.00000000000E+00  0.43423240289E+03  0.43423240289E+03  0.00000000000E+00 0. -1.
          1   -1    0    0  501    0 -0.00000000000E+00 -0.00000000000E+00 -0.13574235959E+03  0.13574235959E+03  0.00000000000E+00 0.  1.
          2    1    1    2  501    0 -0.26369295607E+02  0.63785736856E+02  0.36293549489E+03  0.36944029751E+03  0.00000000000E+00 0. -1.
          1    1    1    2  502    0  0.14132779159E+01 -0.33349163406E+02 -0.59640924690E+02  0.68346206568E+02  0.00000000000E+00 0.  1.
         22    1    1    2    0    0  0.76729223648E+01  0.80983709932E+01  0.56585057660E+02  0.57674310579E+02  0.00000000000E+00 0.  1.
         22    1    1    2    0    0  0.17283095326E+02 -0.38534944443E+02 -0.61389584560E+02  0.74513947820E+02  0.00000000000E+00 0.  1.
</event>
<event>
 6    1  0.1726037E-005  0.1152645E+03  0.7818608E-02  0.1321847E+00
          2   -1    0    0  502    0  0.00000000000E+00  0.00000000000E+00  0.15871446560E+03  0.15871446560E+03  0.00000000000E+00 0.  1.
          1   -1    0    0  501    0 -0.00000000000E+00 -0.00000000000E+00 -0.14506394981E+03  0.14506394981E+03  0.00000000000E+00 0. -1.
          2    1    1    2  501    0 -0.96945665044E+02 -0.18169361120E+02 -0.38952758291E+02  0.10604671156E+03  0.00000000000E+00 0.  1.
          1    1    1    2  502    0  0.51346602189E+02  0.27952269516E+02  0.12880828387E+02  0.59864168477E+02  0.00000000000E+00 0. -1.
         22    1    1    2    0    0  0.71083098295E+02  0.67703913489E+01 -0.17105264253E+02  0.73425030659E+02  0.00000000000E+00 0. -1.
         22    1    1    2    0    0 -0.25484035439E+02 -0.16553299745E+02  0.56827709949E+02  0.64442504706E+02  0.00000000000E+00 0. -1.
</event>
<event>
 6    1  0.1726037E-005  0.1867062E+03  0.7818608E-02  0.1219016E+00
          2   -1    0    0  502    0  0.00000000000E+00  0.00000000000E+00  0.12174130038E+03  0.12174130038E+03  0.00000000000E+00 0.  1.
          1   -1    0    0  501    0 -0.00000000000E+00 -0.00000000000E+00 -0.95509473948E+03  0.95509473948E+03  0.00000000000E+00 0. -1.
          2    1    1    2  501    0 -0.15513598343E+03 -0.61401537760E+02 -0.12175706921E+02  0.16728888198E+03  0.00000000000E+00 0.  1.
          1    1    1    2  502    0  0.16380061509E+03  0.50023074297E+01 -0.72687984191E+03  0.74512413003E+03  0.00000000000E+00 0. -1.
         22    1    1    2    0    0 -0.30440004215E+02  0.42579309696E+02  0.13113407459E+02  0.53958807678E+02  0.00000000000E+00 0.  1.
         22    1    1    2    0    0  0.21775372554E+02  0.13819920633E+02 -0.10741129774E+03  0.11046422017E+03  0.00000000000E+00 0.  1.
</event>
<event>
 6    1  0.1726037E-005  0.1189915E+03  0.7818608E-02  0.1376286E+00
          2   -1    0    0  502    0  0.00000000000E+00  0.00000000000E+00  0.27529391984E+03  0.27529391984E+03  0.00000000000E+00 0. -1.
          1   -1    0    0  501    0 -0.00000000000E+00 -0.00000000000E+00 -0.23035783475E+03  0.23035783475E+03  0.00000000000E+00 0.  1.
          2    1    1    2  501    0  0.50436285448E+02  0.52817788900E+02  0.22782049617E+03  0.23923987165E+03  0.00000000000E+00 0. -1.
          1    1    1    2  502    0  0.83940910619E+01 -0.48748138451E+02 -0.90359287845E+02  0.10301282768E+03  0.00000000000E+00 0.  1.
         22    1    1    2    0    0 -0.69702237797E+02 -0.34125022136E+01 -0.11721343923E+03  0.13641494588E+03  0.00000000000E+00 0.  1.
         22    1    1    2    0    0  0.10871861288E+02 -0.65714823503E+00  0.24688315993E+02  0.26984109365E+02  0.00000000000E+00 0.  1.
</event>
<event>
 6    1  0.1726037E-005  0.4979669E+02  0.7818608E-02  0.1520378E+00
          2   -1    0    0  502    0  0.00000000000E+00  0.00000000000E+00  0.10644283093E+03  0.10644283093E+03  0.00000000000E+00 0.  1.
          1   -1    0    0  501    0 -0.00000000000E+00 -0.00000000000E+00 -0.25697622180E+03  0.25697622180E+03  0.00000000000E+00 0. -1.
          2    1    1    2  501    0  0.59918141506E+02 -0.20886117736E+02  0.38324422735E+02  0.74129447412E+02  0.00000000000E+00 0.  1.
          1    1    1    2  502    0 -0.35406481112E+02  0.21883010992E+01 -0.15630101438E+03  0.16027605767E+03  0.00000000000E+00 0. -1.
         22    1    1    2    0    0 -0.10934694859E+02  0.75037565698E+01 -0.78605967930E+02  0.79716824501E+02  0.00000000000E+00 0. -1.
         22    1    1    2    0    0 -0.13576965535E+02  0.11194060067E+02  0.46049168708E+02  0.49296723143E+02  0.00000000000E+00 0.  1.
</event>
<event>
 6    1  0.1726037E-005  0.7015458E+02  0.7818608E-02  0.1391391E+00
          2   -1    0    0  502    0  0.00000000000E+00  0.00000000000E+00  0.42946976036E+02  0.42946976036E+02  0.00000000000E+00 0.  1.
          1   -1    0    0  501    0 -0.00000000000E+00 -0.00000000000E+00 -0.81169605480E+03  0.81169605480E+03  0.00000000000E+00 0. -1.
          2    1    1    2  501    0 -0.20130235415E+02  0.18141992607E+02  0.11264434688E+02  0.29346988985E+02  0.00000000000E+00 0.  1.
          1    1    1    2  502    0 -0.49937887912E+02 -0.45263393119E+02 -0.53407694278E+03  0.53831287205E+03  0.00000000000E+00 0. -1.
         22    1    1    2    0    0  0.83485255349E+02  0.22299106453E+02 -0.25556530301E+03  0.26977891340E+03  0.00000000000E+00 0. -1.
         22    1    1    2    0    0 -0.13417132021E+02  0.48222940591E+01  0.96287323460E+01  0.17204256400E+02  0.00000000000E+00 0.  1.
</event>
<event>
 6    1  0.1726037E-005  0.5512097E+02  0.7818608E-02  0.1432967E+00
          2   -1    0    0  502    0  0.00000000000E+00  0.00000000000E+00  0.88495772523E+02  0.88495772523E+02  0.00000000000E+00 0. -1.
          1   -1    0    0  501    0 -0.00000000000E+00 -0.00000000000E+00 -0.18278987201E+03  0.18278987201E+03  0.00000000000E+00 0.  1.
          2    1    1    2  501    0 -0.52588306017E+02 -0.27453546022E+02 -0.26806820222E+02  0.65098638460E+02  0.00000000000E+00 0. -1.
          1    1    1    2  502    0 -0.10643910607E+02  0.18411015235E+02 -0.58138918035E+02  0.61906317167E+02  0.00000000000E+00 0.  1.
         22    1    1    2    0    0  0.55565640341E+02 -0.13316005808E+02  0.52793965172E+02  0.77794981559E+02  0.00000000000E+00 0. -1.
         22    1    1    2    0    0  0.76665762831E+01  0.22358536594E+02 -0.62142326406E+02  0.66485707349E+02  0.00000000000E+00 0.  1.
</event>
<event>
 6    1  0.1726037E-005  0.1410483E+03  0.7818608E-02  0.1303264E+00
          2   -1    0    0  502    0  0.00000000000E+00  0.00000000000E+00  0.12678514529E+03  0.12678514529E+03  0.00000000000E+00 0.  1.
          1   -1    0    0  501    0 -0.00000000000E+00 -0.00000000000E+00 -0.37080129857E+03  0.37080129857E+03  0.00000000000E+00 0. -1.
          2    1    1    2  501    0 -0.89360751414E+02  0.12192354854E+03 -0.12644997332E+03  0.19707940363E+03  0.00000000000E+00 0.  1.
          1    1    1    2  502    0  0.45170258627E+02 -0.86827818229E+02 -0.12825528417E+03  0.16133455984E+03  0.00000000000E+00 0. -1.
         22    1    1    2    0    0  0.14491835924E+02 -0.18123645756E+02  0.68320764831E+02  0.72154048750E+02  0.00000000000E+00 0.  1.
         22    1    1    2    0    0  0.29698656864E+02 -0.16972084556E+02 -0.57631660617E+02  0.67018431638E+02  0.00000000000E+00 0. -1.
</event>
<event>
 6    1  0.1726037E-005  0.4152511E+02  0.7818608E-02  0.1500736E+00
          2   -1    0    0  502    0  0.00000000000E+00  0.00000000000E+00  0.70688971428E+02  0.70688971428E+02  0.00000000000E+00 0.  1.
          1   -1    0    0  501    0 -0.00000000000E+00 -0.00000000000E+00 -0.73351349230E+03  0.73351349230E+03  0.00000000000E+00 0. -1.
          2    1    1    2  501    0  0.39965457154E+02 -0.16057280473E+02  0.17597057624E+02  0.46526663955E+02  0.00000000000E+00 0.  1.
          1    1    1    2  502    0 -0.36915839894E+02  0.11529012128E+02 -0.60773483847E+03  0.60896414611E+03  0.00000000000E+00 0. -1.
         22    1    1    2    0    0 -0.19953735451E+02 -0.22312528445E+02 -0.10152258078E+03  0.10584344520E+03  0.00000000000E+00 0. -1.
         22    1    1    2    0    0  0.16904118191E+02  0.26840796791E+02  0.28835840758E+02  0.42868208458E+02  0.00000000000E+00 0. -1.
</event>
<event>
 6    1  0.1726037E-005  0.7914128E+02  0.7818608E-02  0.1342982E+00
          2   -1    0    0  502    0  0.00000000000E+00  0.00000000000E+00  0.18651005088E+03  0.18651005088E+03  0.00000000000E+00 0.  1.
          1   -1    0    0  501    0 -0.00000000000E+00 -0.00000000000E+00 -0.16599052391E+03  0.16599052391E+03  0.00000000000E+00 0.  1.
          2    1    1    2  501    0  0.44030002190E+01 -0.66567343083E+02 -0.68495252608E+01  0.67063504026E+02  0.00000000000E+00 0.  1.
          1    1    1    2  502    0 -0.58322077691E+02  0.54659664811E+02 -0.80483363002E+02  0.11343154510E+03  0.00000000000E+00 0.  1.
         22    1    1    2    0    0 -0.10569780529E+02  0.53932712697E+01 -0.23055372112E+02  0.25929863453E+02  0.00000000000E+00 0.  1.
         22    1    1    2    0    0  0.64488858002E+02  0.65144070022E+01  0.13090778734E+03  0.14607566222E+03  0.00000000000E+00 0.  1.
</event>
<event>
 6    1  0.1726037E-005  0.8249678E+02  0.7818608E-02  0.1414586E+00
          2   -1    0    0  502    0  0.00000000000E+00  0.00000000000E+00  0.17331603456E+03  0.17331603456E+03  0.00000000000E+00 0. -1.
          1   -1    0    0  501    0 -0.00000000000E+00 -0.00000000000E+00 -0.30661251479E+03  0.30661251479E+03  0.00000000000E+00 0. -1.
          2    1    1    2  501    0 -0.11208305538E+03 -0.80265145444E+02  0.57518388010E+02  0.14937693877E+03  0.00000000000E+00 0. -1.
          1    1    1    2  502    0  0.75486842540E+02  0.95688942663E+02 -0.15119310950E+03  0.19420091016E+03  0.00000000000E+00 0. -1.
         22    1    1    2    0    0  0.47158854546E+02 -0.16723378590E+02 -0.80129191244E+02  0.94468599244E+02  0.00000000000E+00 0. -1.
         22    1    1    2    0    0 -0.10562641709E+02  0.12995813706E+01  0.40507432504E+02  0.41882101185E+02  0.00000000000E+00 0. -1.
</event>
<event>
 6    1  0.1726037E-005  0.4390028E+02  0.7818608E-02  0.1567814E+00
          2   -1    0    0  502    0  0.00000000000E+00  0.00000000000E+00  0.95723873355E+02  0.95723873355E+02  0.00000000000E+00 0. -1.
          1   -1    0    0  501    0 -0.00000000000E+00 -0.00000000000E+00 -0.20114202095E+03  0.20114202095E+03  0.00000000000E+00 0.  1.
          2    1    1    2  501    0 -0.11828694096E+02 -0.52288439359E+02  0.40605638079E+02  0.67251890222E+02  0.00000000000E+00 0. -1.
          1    1    1    2  502    0 -0.99509989256E+01  0.40150529364E+02 -0.60780909823E+02  0.73521468883E+02  0.00000000000E+00 0.  1.
         22    1    1    2    0    0 -0.10658943786E+02 -0.36444141060E+01  0.31736903693E+02  0.33676785666E+02  0.00000000000E+00 0. -1.
         22    1    1    2    0    0  0.32438636808E+02  0.15782324101E+02 -0.11697977955E+03  0.12241574954E+03  0.00000000000E+00 0.  1.
</event>
<event>
 6    1  0.1726037E-005  0.1093415E+03  0.7818608E-02  0.1285984E+00
          2   -1    0    0  502    0  0.00000000000E+00  0.00000000000E+00  0.25749064397E+02  0.25749064397E+02  0.00000000000E+00 0. -1.
          1   -1    0    0  501    0 -0.00000000000E+00 -0.00000000000E+00 -0.10733821353E+04  0.10733821353E+04  0.00000000000E+00 0.  1.
          2    1    1    2  501    0 -0.73049227494E+02  0.32712355342E+02 -0.32728225681E+03  0.33692723762E+03  0.00000000000E+00 0. -1.
          1    1    1    2  502    0  0.10369080157E+03 -0.48466860538E+02 -0.44249430500E+03  0.45705801476E+03  0.00000000000E+00 0.  1.
         22    1    1    2    0    0  0.22427542726E+02 -0.27851715509E+02 -0.19147117887E+03  0.19478173700E+03  0.00000000000E+00 0.  1.
         22    1    1    2    0    0 -0.53069116802E+02  0.43606220705E+02 -0.86385330251E+02  0.11036421034E+03  0.00000000000E+00 0. -1.
</event>
<event>
 6    1  0.1726037E-005  0.1994246E+03  0.7818608E-02  0.1247971E+00
          2   -1    0    0  502    0  0.00000000000E+00  0.00000000000E+00  0.20935755316E+03  0.20935755316E+03  0.00000000000E+00 0. -1.
          1   -1    0    0  501    0 -0.00000000000E+00 -0.00000000000E+00 -0.29914834816E+03  0.29914834816E+03  0.00000000000E+00 0. -1.
          2    1    1    2  501    0 -0.15590902795E+03  0.10071630844E+03 -0.98562160916E+02  0.21015684463E+03  0.00000000000E+00 0. -1.
          1    1    1    2  502    0  0.86908591908E+02 -0.95096605064E+02 -0.59177390451E+02  0.14176893589E+03  0.00000000000E+00 0. -1.
         22    1    1    2    0    0  0.97374299857E+01 -0.21609570065E+02  0.88678931436E+02  0.91791851173E+02  0.00000000000E+00 0.  1.
         22    1    1    2    0    0  0.59263006052E+02  0.15989866685E+02 -0.20730175061E+02  0.64788269625E+02  0.00000000000E+00 0. -1.
</event>
<event>
 6    1  0.1726037E-005  0.3195972E+02  0.7818608E-02  0.1650310E+00
          2   -1    0    0  502    0  0.00000000000E+00  0.00000000000E+00  0.12645643627E+03  0.12645643627E+03  0.00000000000E+00 0.  1.
          1   -1    0    0  501    0 -0.00000000000E+00 -0.00000000000E+00 -0.38972643232E+03  0.38972643232E+03  0.00000000000E+00 0.  1.
          2    1    1    2  501    0  0.26597130842E+02 -0.75860128475E+01 -0.15864941174E+02  0.31884970102E+02  0.00000000000E+00 0.  1.
          1    1    1    2  502    0  0.81580963908E+01  0.35378998771E+02 -0.32914285890E+03  0.33113932061E+03  0.00000000000E+00 0.  1.
         22    1    1    2    0    0 -0.29252439094E+02 -0.15476081576E+02  0.11372537557E+03  0.11844270912E+03  0.00000000000E+00 0.  1.
         22    1    1    2    0    0 -0.55027881391E+01 -0.12316904348E+02 -0.31987571552E+02  0.34715868761E+02  0.00000000000E+00 0.  1.
</event>
<event>
 6    1  0.1726037E-005  0.6657469E+02  0.7818608E-02  0.1376843E+00
          2   -1    0    0  502    0  0.00000000000E+00  0.00000000000E+00  0.26422428438E+03  0.26422428438E+03  0.00000000000E+00 0. -1.
          1   -1    0    0  501    0 -0.00000000000E+00 -0.00000000000E+00 -0.27960998356E+03  0.27960998356E+03  0.00000000000E+00 0. -1.
          2    1    1    2  501    0 -0.52774267827E+02  0.10302180471E+02 -0.23994591139E+03  0.24589692690E+03  0.00000000000E+00 0. -1.
          1    1    1    2  502    0  0.60513160206E+02  0.16798574940E+01  0.11259648924E+03  0.12783831143E+03  0.00000000000E+00 0. -1.
         22    1    1    2    0    0  0.50620418132E+02  0.25199272253E+02  0.66556599798E+02  0.87333905389E+02  0.00000000000E+00 0.  1.
         22    1    1    2    0    0 -0.58359310510E+02 -0.37181310218E+02  0.45407123165E+02  0.82765124218E+02  0.00000000000E+00 0. -1.
</event>
<event>
 6    1  0.1726037E-005  0.1051618E+03  0.7818608E-02  0.1316317E+00
          2   -1    0    0  502    0  0.00000000000E+00  0.00000000000E+00  0.64875714427E+03  0.64875714427E+03  0.00000000000E+00 0.  1.
          1   -1    0    0  501    0 -0.00000000000E+00 -0.00000000000E+00 -0.21097330349E+03  0.21097330349E+03  0.00000000000E+00 0.  1.
          2    1    1    2  501    0  0.14718169015E+03 -0.12780012813E+03  0.46445006014E+03  0.50369552413E+03  0.00000000000E+00 0.  1.
          1    1    1    2  502    0 -0.12288493123E+03  0.40060223283E+02 -0.11981791619E+03  0.17624375409E+03  0.00000000000E+00 0.  1.
         22    1    1    2    0    0 -0.16631979943E+02  0.22589160327E+02  0.10879374246E+03  0.11235199740E+03  0.00000000000E+00 0. -1.
         22    1    1    2    0    0 -0.76647789718E+01  0.65150744520E+02 -0.15642045620E+02  0.67439172143E+02  0.00000000000E+00 0. -1.
</event>
<event>
 6    1  0.1726037E-005  0.9360132E+02  0.7818608E-02  0.1295546E+00
          2   -1    0    0  502    0  0.00000000000E+00  0.00000000000E+00  0.35534037552E+03  0.35534037552E+03  0.00000000000E+00 0. -1.
          1   -1    0    0  501    0 -0.00000000000E+00 -0.00000000000E+00 -0.79381511447E+02  0.79381511447E+02  0.00000000000E+00 0. -1.
          2    1    1    2  501    0 -0.61555749083E+02 -0.24980520428E+02  0.20479678979E+03  0.21530179226E+03  0.00000000000E+00 0. -1.
          1    1    1    2  502    0  0.56191540155E+02  0.28394741366E+02 -0.16473131302E+02  0.65077757929E+02  0.00000000000E+00 0. -1.
         22    1    1    2    0    0 -0.20726585337E+02 -0.10900656046E+02  0.11407257104E+03  0.11645156549E+03  0.00000000000E+00 0. -1.
         22    1    1    2    0    0  0.26090794265E+02  0.74864351075E+01 -0.26437365453E+02  0.37890771279E+02  0.00000000000E+00 0. -1.
</event>
<event>
 6    1  0.1726037E-005  0.2837519E+02  0.7818608E-02  0.1645958E+00
          2   -1    0    0  502    0  0.00000000000E+00  0.00000000000E+00  0.15958994034E+03  0.15958994034E+03  0.00000000000E+00 0.  1.
          1   -1    0    0  501    0 -0.00000000000E+00 -0.00000000000E+00 -0.24613024637E+03  0.24613024637E+03  0.00000000000E+00 0. -1.
          2    1    1    2  501    0  0.96276835046E+01 -0.51741878270E+02 -0.10867458235E+02  0.53740263351E+02  0.00000000000E+00 0.  1.
          1    1    1    2  502    0  0.64311628140E+01  0.34440891846E+02 -0.18255063992E+03  0.18588241182E+03  0.00000000000E+00 0. -1.
         22    1    1    2    0    0 -0.15952718835E+02 -0.73491174837E+01 -0.25765764149E+02  0.31182901857E+02  0.00000000000E+00 0.  1.
         22    1    1    2    0    0 -0.10612748321E+00  0.24650103907E+02  0.13264355628E+03  0.13491460969E+03  0.00000000000E+00 0.  1.
</event>
<event>
 6    1  0.1726037E-005  0.2575181E+02  0.7818608E-02  0.1674395E+00
          2   -1    0    0  502    0  0.00000000000E+00  0.00000000000E+00  0.34612580870E+03  0.34612580870E+03  0.00000000000E+00 0.  1.
          1   -1    0    0  501    0 -0.00000000000E+00 -0.00000000000E+00 -0.18121115911E+04  0.18121115911E+04  0.00000000000E+00 0.  1.
          2    1    1    2  501    0  0.51878262067E+02  0.18974256130E+02  0.27984724413E+03  0.28524700966E+03  0.00000000000E+00 0.  1.
          1    1    1    2  502    0 -0.29682329374E+02 -0.12322260651E+01 -0.17409388524E+04  0.17411923061E+04  0.00000000000E+00 0.  1.
         22    1    1    2    0    0 -0.16716403065E+02 -0.54359175394E+01  0.61545495554E+02  0.64006525869E+02  0.00000000000E+00 0. -1.
         22    1    1    2    0    0 -0.54795296280E+01 -0.12306112525E+02 -0.66439669766E+02  0.67791558244E+02  0.00000000000E+00 0.  1.
</event>
<event>
 6    1  0.1726037E-005  0.4578952E+02  0.7818608E-02  0.1541343E+00
          2   -1    0    0  502    0  0.00000000000E+00  0.00000000000E+00  0.25523936873E+03  0.25523936873E+03  0.00000000000E+00 0. -1.
          1   -1    0    0  501    0 -0.00000000000E+00 -0.00000000000E+00 -0.30871928821E+03  0.30871928821E+03  0.00000000000E+00 0. -1.
          2    1    1    2  501    0 -0.87944380125E+01  0.56167519022E+02  0.18208969738E+03  0.19075846043E+03  0.00000000000E+00 0. -1.
          1    1    1    2  502    0  0.13450364882E+01 -0.26813932723E+02 -0.24732120154E+03  0.24877414022E+03  0.00000000000E+00 0. -1.
         22    1    1    2    0    0  0.89938893880E+01 -0.14624227463E+02  0.65997868359E+02  0.68194403752E+02  0.00000000000E+00 0. -1.
         22    1    1    2    0    0 -0.15444878637E+01 -0.14729358835E+02 -0.54246283671E+02  0.56231652533E+02  0.00000000000E+00 0.  1.
</event>
<event>
 6    1  0.1726037E-005  0.2847260E+02  0.7818608E-02  0.1650330E+00
          2   -1    0    0  502    0  0.00000000000E+00  0.00000000000E+00  0.48930151360E+02  0.48930151360E+02  0.00000000000E+00 0.  1.
          1   -1    0    0  501    0 -0.00000000000E+00 -0.00000000000E+00 -0.29333913343E+03  0.29333913343E+03  0.00000000000E+00 0. -1.
          2    1    1    2  501    0  0.23168715008E+02 -0.18204963750E+02  0.25533660011E+01  0.29575830305E+02  0.00000000000E+00 0.  1.
          1    1    1    2  502    0 -0.24123096516E+02  0.52322316355E+01 -0.16040375430E+03  0.16229191116E+03  0.00000000000E+00 0. -1.
         22    1    1    2    0    0 -0.13397919245E+02  0.25536555811E+02  0.24424500459E+02  0.37791217835E+02  0.00000000000E+00 0.  1.
         22    1    1    2    0    0  0.14352300753E+02 -0.12563823696E+02 -0.11098309422E+03  0.11261032548E+03  0.00000000000E+00 0.  1.
</event>
<event>
 6    1  0.1726037E-005  0.7676688E+02  0.7818608E-02  0.1341467E+00
          2   -1    0    0  502    0  0.00000000000E+00  0.00000000000E+00  0.35074507043E+03  0.35074507043E+03  0.00000000000E+00 0.  1.
          1   -1    0    0  501    0 -0.00000000000E+00 -0.00000000000E+00 -0.17669964729E+03  0.17669964729E+03  0.00000000000E+00 0. -1.
          2    1    1    2  501    0 -0.44753345360E-01  0.62132217125E+02  0.27963245864E+03  0.28645196165E+03  0.00000000000E+00 0.  1.
          1    1    1    2  502    0 -0.14406662283E+02 -0.49811442710E+02 -0.10660504754E+03  0.11854690170E+03  0.00000000000E+00 0. -1.
         22    1    1    2    0    0  0.22292173977E+01 -0.20259352433E+02 -0.58093020905E+02  0.61564680208E+02  0.00000000000E+00 0. -1.
         22    1    1    2    0    0  0.12222198231E+02  0.79385780174E+01  0.59111032943E+02  0.60881174152E+02  0.00000000000E+00 0. -1.
</event>
<event>
 6    1  0.1726037E-005  0.9886524E+02  0.7818608E-02  0.1402606E+00
          2   -1    0    0  502    0  0.00000000000E+00  0.00000000000E+00  0.63509369866E+02  0.63509369866E+02  0.00000000000E+00 0. -1.
          1   -1    0    0  501    0 -0.00000000000E+00 -0.00000000000E+00 -0.82510671884E+03  0.82510671884E+03  0.00000000000E+00 0. -1.
          2    1    1    2  501    0  0.88842281449E+02 -0.74699912045E+01 -0.87803066679E+02  0.12513245087E+03  0.00000000000E+00 0. -1.
          1    1    1    2  502    0 -0.81879174342E+02  0.31270670104E+01 -0.62566169140E+03  0.63100438178E+03  0.00000000000E+00 0. -1.
         22    1    1    2    0    0 -0.17127700971E+02 -0.28203744738E+01 -0.88527711104E+02  0.90213459562E+02  0.00000000000E+00 0.  1.
         22    1    1    2    0    0  0.10164593863E+02  0.71632986680E+01  0.40395120213E+02  0.42265796494E+02  0.00000000000E+00 0. -1.
</event>
<event>
 6    1  0.1726037E-005  0.2120884E+02  0.7818608E-02  0.1748573E+00
          2   -1    0    0  502    0  0.00000000000E+00  0.00000000000E+00  0.53681939160E+03  0.53681939160E+03  0.00000000000E+00 0. -1.
          1   -1    0    0  501    0 -0.00000000000E+00 -0.00000000000E+00 -0.14494434886E+03  0.14494434886E+03  0.00000000000E+00 0.  1.
          2    1    1    2  501    0 -0.85625884190E+01  0.20434158188E+02  0.48378657918E+03  0.48429363711E+03  0.00000000000E+00 0. -1.
          1    1    1    2  502    0 -0.23546459629E+02 -0.79560795792E+01 -0.55250731637E+02  0.60583647214E+02  0.00000000000E+00 0.  1.
         22    1    1    2    0    0  0.16322644786E+02 -0.86924216349E+01  0.47605199092E+02  0.51070949740E+02  0.00000000000E+00 0. -1.
         22    1    1    2    0    0  0.15786403262E+02 -0.37856569741E+01 -0.84266003894E+02  0.85815506401E+02  0.00000000000E+00 0.  1.
</event>
<event>
 6    1  0.1726037E-005  0.7185695E+02  0.7818608E-02  0.1457819E+00
          2   -1    0    0  502    0  0.00000000000E+00  0.00000000000E+00  0.34825681359E+02  0.34825681359E+02  0.00000000000E+00 0. -1.
          1   -1    0    0  501    0 -0.00000000000E+00 -0.00000000000E+00 -0.39228480573E+03  0.39228480573E+03  0.00000000000E+00 0. -1.
          2    1    1    2  501    0 -0.61672428002E+02 -0.16508537573E+02 -0.71847121917E+02  0.96114666499E+02  0.00000000000E+00 0. -1.
          1    1    1    2  502    0  0.19558220001E+02  0.23113965859E+02 -0.10574448934E+03  0.10999398353E+03  0.00000000000E+00 0. -1.
         22    1    1    2    0    0  0.41632616908E+02  0.74082937720E+01 -0.19548898400E+03  0.20001025092E+03  0.00000000000E+00 0.  1.
         22    1    1    2    0    0  0.48159109280E+00 -0.14013722058E+02  0.15621470888E+02  0.20991586138E+02  0.00000000000E+00 0. -1.
</event>
<event>
 6    1  0.1726037E-005  0.1394396E+03  0.7818608E-02  0.1217544E+00
          2   -1    0    0  502    0  0.00000000000E+00  0.00000000000E+00  0.27302120611E+03  0.27302120611E+03  0.00000000000E+00 0.  1.
          1   -1    0    0  501    0 -0.00000000000E+00 -0.00000000000E+00 -0.30177564095E+03  0.30177564095E+03  0.00000000000E+00 0.  1.
          2    1    1    2  501    0  0.11002098118E+03 -0.92458694696E+00  0.18929176437E+03  0.21894484059E+03  0.00000000000E+00 0.  1.
          1    1    1    2  502    0 -0.80975939448E+02  0.18851914548E+02 -0.21269542579E+03  0.22836777707E+03  0.00000000000E+00 0.  1.
         22    1    1    2    0    0  0.17698309841E+02 -0.37696905096E+01  0.50291256862E+02  0.53447649663E+02  0.00000000000E+00 0.  1.
         22    1    1    2    0    0 -0.46743351573E+02 -0.14157637092E+02 -0.55642030279E+02  0.74036579728E+02  0.00000000000E+00 0.  1.
</event>
<event>
 6    1  0.1726037E-005  0.4694647E+02  0.7818608E-02  0.1567822E+00
          2   -1    0    0  502    0  0.00000000000E+00  0.00000000000E+00  0.11107571622E+03  0.11107571622E+03  0.00000000000E+00 0. -1.
          1   -1    0    0  501    0 -0.00000000000E+00 -0.00000000000E+00 -0.12593375428E+03  0.12593375428E+03  0.00000000000E+00 0.  1.
          2    1    1    2  501    0  0.19279599762E+02 -0.34495134323E+02  0.38906481438E+02  0.55455671999E+02  0.00000000000E+00 0. -1.
          1    1    1    2  502    0 -0.49049900537E+01  0.26997099208E+02 -0.47426356452E+02  0.54791984627E+02  0.00000000000E+00 0.  1.
         22    1    1    2    0    0 -0.67129344404E+01  0.15885690920E+02 -0.64877420213E+02  0.67130457457E+02  0.00000000000E+00 0.  1.
         22    1    1    2    0    0 -0.76616752678E+01 -0.83876558042E+01  0.58539257169E+02  0.59631356414E+02  0.00000000000E+00 0.  1.
</event>
<event>
 6    1  0.1726037E-005  0.2581397E+02  0.7818608E-02  0.1679600E+00
          2   -1    0    0  502    0  0.00000000000E+00  0.00000000000E+00  0.35451433328E+02  0.35451433328E+02  0.00000000000E+00 0.  1.
          1   -1    0    0  501    0 -0.00000000000E+00 -0.00000000000E+00 -0.29919951757E+03  0.29919951757E+03  0.00000000000E+00 0. -1.
          2    1    1    2  501    0  0.89211409232E+01 -0.19956190428E+02 -0.17514803132E+01  0.21929522910E+02  0.00000000000E+00 0.  1.
          1    1    1    2  502    0  0.20159052836E+02 -0.15379961875E+01 -0.10244291207E+03  0.10441888276E+03  0.00000000000E+00 0. -1.
         22    1    1    2    0    0 -0.35790620022E+02  0.42505832177E+01 -0.17833319749E+03  0.18193890531E+03  0.00000000000E+00 0.  1.
         22    1    1    2    0    0  0.67104262630E+01  0.17243603397E+02  0.18779505621E+02  0.26363639926E+02  0.00000000000E+00 0.  1.
</event>
<event>
 6    1  0.1726037E-005  0.3189505E+03  0.7818608E-02  0.1171593E+00
          2   -1    0    0  502    0  0.00000000000E+00  0.00000000000E+00  0.19244545693E+03  0.19244545693E+03  0.00000000000E+00 0.  1.
          1   -1    0    0  501    0 -0.00000000000E+00 -0.00000000000E+00 -0.79802532025E+03  0.79802532025E+03  0.00000000000E+00 0. -1.
          2    1    1    2  501    0  0.26805026073E+02 -0.31462355653E+03 -0.19882261427E+03  0.37314464178E+03  0.00000000000E+00 0.  1.
          1    1    1    2  502    0  0.18642703623E+02  0.27488629537E+03 -0.39452708532E+03  0.48120852739E+03  0.00000000000E+00 0. -1.
         22    1    1    2    0    0 -0.29647912944E+02 -0.10186336110E+01  0.51147564634E+02  0.59127909859E+02  0.00000000000E+00 0.  1.
         22    1    1    2    0    0 -0.15799816752E+02  0.40755894769E+02 -0.63377728362E+02  0.76989698143E+02  0.00000000000E+00 0. -1.
</event>
<event>
 6    1  0.1726037E-005  0.5458271E+02  0.7818608E-02  0.1541922E+00
          2   -1    0    0  502    0  0.00000000000E+00  0.00000000000E+00  0.36457580167E+02  0.36457580167E+02  0.00000000000E+00 0.  1.
          1   -1    0    0  501    0 -0.00000000000E+00 -0.00000000000E+00 -0.50917671143E+03  0.50917671143E+03  0.00000000000E+00 0. -1.
          2    1    1    2  501    0  0.12888631573E+02  0.16444627219E+02 -0.39529431710E+01  0.21264250467E+02  0.00000000000E+00 0.  1.
          1    1    1    2  502    0  0.77785765035E+01 -0.21365150121E+02 -0.34921327753E+03  0.34995269551E+03  0.00000000000E+00 0. -1.
         22    1    1    2    0    0  0.53303148214E+01  0.85318295758E+01  0.25288994764E+02  0.27216495516E+02  0.00000000000E+00 0.  1.
         22    1    1    2    0    0 -0.25997522898E+02 -0.36113066743E+01 -0.14484190532E+03  0.14720085010E+03  0.00000000000E+00 0.  1.
</event>
<event>
 6    1  0.1726037E-005  0.3768046E+02  0.7818608E-02  0.1594506E+00
          2   -1    0    0  502    0  0.00000000000E+00  0.00000000000E+00  0.88381405812E+02  0.88381405812E+02  0.00000000000E+00 0.  1.
          1   -1    0    0  501    0 -0.00000000000E+00 -0.00000000000E+00 -0.15618569962E+03  0.15618569962E+03  0.00000000000E+00 0. -1.
          2    1    1    2  501    0 -0.12128816824E+01 -0.36122800196E+02 -0.20381840725E+02  0.41493941815E+02  0.00000000000E+00 0.  1.
          1    1    1    2  502    0  0.13655027181E+02  0.22830399541E+02 -0.69804952301E+02  0.74702197265E+02  0.00000000000E+00 0. -1.
         22    1    1    2    0    0 -0.15429290952E+02  0.34509633241E+01  0.74035055190E+02  0.75704435564E+02  0.00000000000E+00 0.  1.
         22    1    1    2    0    0  0.29871454536E+01  0.98414373312E+01 -0.51652555973E+02  0.52666530788E+02  0.00000000000E+00 0. -1.
</event>
<event>
 6    1  0.1726037E-005  0.7407185E+02  0.7818608E-02  0.1468606E+00
          2   -1    0    0  502    0  0.00000000000E+00  0.00000000000E+00  0.64048607798E+02  0.64048607798E+02  0.00000000000E+00 0.  1.
          1   -1    0    0  501    0 -0.00000000000E+00 -0.00000000000E+00 -0.17614923472E+03  0.17614923472E+03  0.00000000000E+00 0.  1.
          2    1    1    2  501    0  0.57963312865E+01  0.49978631914E+02 -0.26136385358E+01  0.50381466937E+02  0.00000000000E+00 0.  1.
          1    1    1    2  502    0  0.39070916800E+01 -0.21080298753E+02 -0.10110480359E+02  0.23703716459E+02  0.00000000000E+00 0.  1.
         22    1    1    2    0    0 -0.31250780205E+01  0.10496868746E+02  0.29352819859E+02  0.31329513239E+02  0.00000000000E+00 0.  1.
         22    1    1    2    0    0 -0.65783449461E+01 -0.39395201907E+02 -0.12872932789E+03  0.13478314588E+03  0.00000000000E+00 0.  1.
</event>
<event>
 6    1  0.1726037E-005  0.7096989E+02  0.7818608E-02  0.1420539E+00
          2   -1    0    0  502    0  0.00000000000E+00  0.00000000000E+00  0.22841566728E+03  0.22841566728E+03  0.00000000000E+00 0.  1.
          1   -1    0    0  501    0 -0.00000000000E+00 -0.00000000000E+00 -0.58277522107E+02  0.58277522107E+02  0.00000000000E+00 0.  1.
          2    1    1    2  501    0 -0.32562694290E+02 -0.42281852708E+02  0.35633273314E+02  0.64170197872E+02  0.00000000000E+00 0.  1.
          1    1    1    2  502    0  0.36736840352E+02  0.16200382649E+02  0.67608196880E+01  0.40715556239E+02  0.00000000000E+00 0.  1.
         22    1    1    2    0    0 -0.25073862957E+02 -0.42217108322E+01  0.14055052738E+03  0.14283197189E+03  0.00000000000E+00 0.  1.
         22    1    1    2    0    0  0.20899716896E+02  0.30303180891E+02 -0.12806475217E+02  0.38975463383E+02  0.00000000000E+00 0. -1.
</event>
<event>
 6    1  0.1726037E-005  0.4110817E+02  0.7818608E-02  0.1595096E+00
          2   -1    0    0  502    0  0.00000000000E+00  0.00000000000E+00  0.13520423048E+03  0.13520423048E+03  0.00000000000E+00 0. -1.
          1   -1    0    0  501    0 -0.00000000000E+00 -0.00000000000E+00 -0.24258315239E+03  0.24258315239E+03  0.00000000000E+00 0.  1.
          2    1    1    2  501    0 -0.14514965152E+02  0.23934220296E+02  0.72264639042E+02  0.77496510698E+02  0.00000000000E+00 0. -1.
          1    1    1    2  502    0  0.55633068681E+01 -0.33811917063E+02 -0.17264992804E+03  0.17601759506E+03  0.00000000000E+00 0.  1.
         22    1    1    2    0    0  0.12018797976E+02 -0.13054654431E+01 -0.64492955436E+02  0.65616286436E+02  0.00000000000E+00 0.  1.
         22    1    1    2    0    0 -0.30671396917E+01  0.11183162210E+02  0.57499322531E+02  0.58656990670E+02  0.00000000000E+00 0. -1.
</event>
<event>
 6    1  0.1726037E-005  0.6807454E+02  0.7818608E-02  0.1466729E+00
          2   -1    0    0  502    0  0.00000000000E+00  0.00000000000E+00  0.66854409596E+02  0.66854409596E+02  0.00000000000E+00 0. -1.
          1   -1    0    0  501    0 -0.00000000000E+00 -0.00000000000E+00 -0.52500000237E+03  0.52500000237E+03  0.00000000000E+00 0.  1.
          2    1    1    2  501    0 -0.27942416129E+02  0.64396891211E+02 -0.37045480395E+02  0.79373206024E+02  0.00000000000E+00 0. -1.
          1    1    1    2  502    0 -0.23055181604E+02 -0.11137401703E+03 -0.30897337627E+03  0.32924194798E+03  0.00000000000E+00 0.  1.
         22    1    1    2    0    0  0.74661608102E+01  0.10079683517E+02  0.28682933181E+02  0.31305817877E+02  0.00000000000E+00 0.  1.
         22    1    1    2    0    0  0.43531436923E+02  0.36897442305E+02 -0.14080966929E+03  0.15193344008E+03  0.00000000000E+00 0. -1.
</event>
<event>
 6    1  0.1726037E-005  0.8197638E+02  0.7818608E-02  0.1372202E+00
          2   -1    0    0  502    0  0.00000000000E+00  0.00000000000E+00  0.12935803503E+03  0.12935803503E+03  0.00000000000E+00 0.  1.
          1   -1    0    0  501    0 -0.00000000000E+00 -0.00000000000E+00 -0.25333921375E+03  0.25333921375E+03  0.00000000000E+00 0.  1.
          2    1    1    2  501    0  0.56505347341E+02  0.68495605800E+02  0.42572906612E+02  0.98473116481E+02  0.00000000000E+00 0.  1.
          1    1    1    2  502    0 -0.58240603562E+02 -0.21924536395E+02 -0.13759910921E+03  0.15101711180E+03  0.00000000000E+00 0.  1.
         22    1    1    2    0    0  0.11312075517E+02 -0.33781325884E+02  0.45085774383E+02  0.57461883738E+02  0.00000000000E+00 0.  1.
         22    1    1    2    0    0 -0.95768192958E+01 -0.12789743521E+02 -0.74040750504E+02  0.75745136758E+02  0.00000000000E+00 0.  1.
</event>
<event>
 6    1  0.1726037E-005  0.7433100E+02  0.7818608E-02  0.1437636E+00
          2   -1    0    0  502    0  0.00000000000E+00  0.00000000000E+00  0.18145863649E+03  0.18145863649E+03  0.00000000000E+00 0.  1.
          1   -1    0    0  501    0 -0.00000000000E+00 -0.00000000000E+00 -0.99716371790E+02  0.99716371790E+02  0.00000000000E+00 0.  1.
          2    1    1    2  501    0 -0.63441768137E+02 -0.13279995144E+02  0.55859542788E+02  0.85565791856E+02  0.00000000000E+00 0.  1.
          1    1    1    2  502    0  0.41233490326E+02  0.80845161390E+01 -0.36941514200E+02  0.55948508444E+02  0.00000000000E+00 0.  1.
         22    1    1    2    0    0 -0.11421312785E+02  0.12688688615E+02  0.92576991095E+02  0.94137922670E+02  0.00000000000E+00 0.  1.
         22    1    1    2    0    0  0.33629590596E+02 -0.74932096093E+01 -0.29752754980E+02  0.45522785314E+02  0.00000000000E+00 0.  1.
</event>
<event>
 6    1  0.1726037E-005  0.4936889E+02  0.7818608E-02  0.1519739E+00
          2   -1    0    0  502    0  0.00000000000E+00  0.00000000000E+00  0.84699646263E+02  0.84699646263E+02  0.00000000000E+00 0.  1.
          1   -1    0    0  501    0 -0.00000000000E+00 -0.00000000000E+00 -0.10485927589E+04  0.10485927589E+04  0.00000000000E+00 0.  1.
          2    1    1    2  501    0 -0.47045827678E+01 -0.91477965729E+02  0.65486450518E+00  0.91601201741E+02  0.00000000000E+00 0.  1.
          1    1    1    2  502    0 -0.20154514264E+02  0.63608206864E+02 -0.88535567412E+03  0.88786647539E+03  0.00000000000E+00 0.  1.
         22    1    1    2    0    0 -0.13735621617E+00  0.11177657475E+02  0.34479405170E+02  0.36246217378E+02  0.00000000000E+00 0.  1.
         22    1    1    2    0    0  0.24996453248E+02  0.16692101391E+02 -0.11367170819E+03  0.11757851065E+03  0.00000000000E+00 0. -1.
</event>
<event>
 6    1  0.1726037E-005  0.3861902E+02  0.7818608E-02  0.1558520E+00
          2   -1    0    0  502    0  0.00000000000E+00  0.00000000000E+00  0.81846794295E+02  0.81846794295E+02  0.00000000000E+00 0. -1.
          1   -1    0    0  501    0 -0.00000000000E+00 -0.00000000000E+00 -0.17382038817E+03  0.17382038817E+03  0.00000000000E+00 0. -1.
          2    1    1    2  501    0 -0.26235968200E+02  0.27654249225E+02 -0.93349299290E+01  0.39245693322E+02  0.00000000000E+00 0. -1.
          1    1    1    2  502    0  0.79569536440E+01 -0.20013701816E+02 -0.88836581493E+02  0.91410062810E+02  0.00000000000E+00 0. -1.
         22    1    1    2    0    0 -0.24831182642E+01 -0.17420842728E+02 -0.56007760670E+02  0.58707077025E+02  0.00000000000E+00 0. -1.
         22    1    1    2    0    0  0.20762132820E+02  0.97802953189E+01  0.62205678212E+02  0.66304349311E+02  0.00000000000E+00 0. -1.
</event>
<event>
 6    1  0.1726037E-005  0.5776964E+02  0.7818608E-02  0.1510310E+00
          2   -1    0    0  502    0  0.00000000000E+00  0.00000000000E+00  0.23560938868E+03  0.23560938868E+03  0.00000000000E+00 0.  1.
          1   -1    0    0  501    0 -0.00000000000E+00 -0.00000000000E+00 -0.89521021583E+02  0.89521021583E+02  0.00000000000E+00 0.  1.
          2    1    1    2  501    0  0.58974817288E+02 -0.36974167547E+02  0.65493643666E+02  0.95574763932E+02  0.00000000000E+00 0.  1.
          1    1    1    2  502    0 -0.13957601709E+02  0.56350303315E+02 -0.19978074780E+02  0.61394582832E+02  0.00000000000E+00 0.  1.
         22    1    1    2    0    0 -0.56937712650E+02 -0.24321190444E+02  0.12558375561E+03  0.14001679578E+03  0.00000000000E+00 0.  1.
         22    1    1    2    0    0  0.11920497071E+02  0.49450546762E+01 -0.25010957394E+02  0.28144267728E+02  0.00000000000E+00 0. -1.
</event>
<event>
 6    1  0.1726037E-005  0.1215703E+03  0.7818608E-02  0.1276511E+00
          2   -1    0    0  502    0  0.00000000000E+00  0.00000000000E+00  0.11588383335E+03  0.11588383335E+03  0.00000000000E+00 0.  1.
          1   -1    0    0  501    0 -0.00000000000E+00 -0.00000000000E+00 -0.37485176630E+03  0.37485176630E+03  0.00000000000E+00 0.  1.
          2    1    1    2  501    0 -0.11550101051E+03 -0.10138116485E+03 -0.11867960425E+03  0.19417382028E+03  0.00000000000E+00 0.  1.
          1    1    1    2  502    0  0.45210081181E+02  0.68404609183E+02 -0.11911495647E+03  0.14460814242E+03  0.00000000000E+00 0.  1.
         22    1    1    2    0    0  0.11735786536E+02  0.20716761162E+02 -0.70502296940E+02  0.74414291319E+02  0.00000000000E+00 0. -1.
         22    1    1    2    0    0  0.58555142791E+02  0.12259794509E+02  0.49328924712E+02  0.77539345638E+02  0.00000000000E+00 0.  1.
</event>
<event>
 6    1  0.1726037E-005  0.5967820E+02  0.7818608E-02  0.1426365E+00
          2   -1    0    0  502    0  0.00000000000E+00  0.00000000000E+00  0.13403516057E+03  0.13403516057E+03  0.00000000000E+00 0. -1.
          1   -1    0    0  501    0 -0.00000000000E+00 -0.00000000000E+00 -0.81060861344E+02  0.81060861344E+02  0.00000000000E+00 0. -1.
          2    1    1    2  501    0  0.66201193614E+00 -0.36207381399E+02  0.34231590072E+02  0.49831862161E+02  0.00000000000E+00 0. -1.
          1    1    1    2  502    0  0.15250446109E+02  0.23807675236E+02 -0.11349337121E+02  0.30466193720E+02  0.00000000000E+00 0. -1.
         22    1    1    2    0    0  0.14968742208E+02  0.36405961366E+02 -0.38994072033E+02  0.55407534866E+02  0.00000000000E+00 0. -1.
         22    1    1    2    0    0 -0.30881200253E+02 -0.24006255203E+02  0.69086118306E+02  0.79390431165E+02  0.00000000000E+00 0.  1.
</event>
<event>
 6    1  0.1726037E-005  0.2213468E+03  0.7818608E-02  0.1151117E+00
          2   -1    0    0  502    0  0.00000000000E+00  0.00000000000E+00  0.48163986028E+03  0.48163986028E+03  0.00000000000E+00 0. -1.
          1   -1    0    0  501    0 -0.00000000000E+00 -0.00000000000E+00 -0.52931052022E+03  0.52931052022E+03  0.00000000000E+00 0. -1.
          2    1    1    2  501    0  0.18781778958E+03 -0.59879280309E+02 -0.24362782688E+03  0.31339363159E+03  0.00000000000E+00 0. -1.
          1    1    1    2  502    0 -0.27232779379E+03 -0.52001574374E+02 -0.14167528213E+03  0.31134944448E+03  0.00000000000E+00 0. -1.
         22    1    1    2    0    0 -0.12219210062E+02  0.68291104058E+01 -0.51133219827E+01  0.14902748243E+02  0.00000000000E+00 0.  1.
         22    1    1    2    0    0  0.96729214273E+02  0.10505174428E+03  0.34274577105E+03  0.37130455618E+03  0.00000000000E+00 0. -1.
</event>
<event>
 6    1  0.1726037E-005  0.3785340E+02  0.7818608E-02  0.1534664E+00
          2   -1    0    0  502    0  0.00000000000E+00  0.00000000000E+00  0.37478330957E+03  0.37478330957E+03  0.00000000000E+00 0. -1.
          1   -1    0    0  501    0 -0.00000000000E+00 -0.00000000000E+00 -0.56639479517E+03  0.56639479517E+03  0.00000000000E+00 0.  1.
          2    1    1    2  501    0 -0.39231200759E+02  0.19253769183E+02  0.33045609135E+03  0.33333320124E+03  0.00000000000E+00 0. -1.
          1    1    1    2  502    0  0.22831485895E+02 -0.40796970036E+02 -0.46899810333E+03  0.47132249091E+03  0.00000000000E+00 0.  1.
         22    1    1    2    0    0  0.23727908880E+02  0.20360764771E+01 -0.90555012560E+02  0.93634232880E+02  0.00000000000E+00 0.  1.
         22    1    1    2    0    0 -0.73281940157E+01  0.19507124376E+02  0.37485538940E+02  0.42888179707E+02  0.00000000000E+00 0.  1.
</event>
<event>
 6    1  0.1726037E-005  0.1029046E+03  0.7818608E-02  0.1377046E+00
          2   -1    0    0  502    0  0.00000000000E+00  0.00000000000E+00  0.31887943757E+03  0.31887943757E+03  0.00000000000E+00 0. -1.
          1   -1    0    0  501    0 -0.00000000000E+00 -0.00000000000E+00 -0.14964926569E+03  0.14964926569E+03  0.00000000000E+00 0. -1.
          2    1    1    2  501    0  0.89196463334E+02 -0.49407612400E+00  0.19555447708E+03  0.21493675043E+03  0.00000000000E+00 0. -1.
          1    1    1    2  502    0 -0.58619578030E+02  0.12379376764E+02 -0.93766657606E+02  0.11127304245E+03  0.00000000000E+00 0. -1.
         22    1    1    2    0    0 -0.39364308027E+02  0.22350633964E+01 -0.26116792580E+02  0.47293034472E+02  0.00000000000E+00 0.  1.
         22    1    1    2    0    0  0.87874227237E+01 -0.14120364036E+02  0.93559144993E+02  0.95025875900E+02  0.00000000000E+00 0. -1.
</event>
<event>
 6    1  0.1726037E-005  0.1211701E+03  0.7818608E-02  0.1285963E+00
          2   -1    0    0  502    0  0.00000000000E+00  0.00000000000E+00  0.13304289157E+03  0.13304289157E+03  0.00000000000E+00 0.  1.
          1   -1    0    0  501    0 -0.00000000000E+00 -0.00000000000E+00 -0.26655628769E+04  0.26655628769E+04  0.00000000000E+00 0.  1.
          2    1    1    2  501    0 -0.24904530853E+03  0.14215219872E+03 -0.16131141081E+03  0.32901699738E+03  0.00000000000E+00 0.  1.
          1    1    1    2  502    0  0.24041419826E+03 -0.18097104865E+03 -0.22973008196E+04  0.23169248074E+04  0.00000000000E+00 0.  1.
         22    1    1    2    0    0 -0.21101695931E+02 -0.28677183980E+01 -0.94947370620E+02  0.97306261708E+02  0.00000000000E+00 0. -1.
         22    1    1    2    0    0  0.29732806208E+02  0.41686568327E+02  0.21039615712E+02  0.55357702022E+02  0.00000000000E+00 0. -1.
</event>
<event>
 6    1  0.1726037E-005  0.4065404E+02  0.7818608E-02  0.1583352E+00
          2   -1    0    0  502    0  0.00000000000E+00  0.00000000000E+00  0.59736873624E+02  0.59736873624E+02  0.00000000000E+00 0. -1.
          1   -1    0    0  501    0 -0.00000000000E+00 -0.00000000000E+00 -0.27754280074E+03  0.27754280074E+03  0.00000000000E+00 0.  1.
          2    1    1    2  501    0  0.28255812421E+02 -0.87741110117E+01 -0.16263815709E+02  0.33762222395E+02  0.00000000000E+00 0. -1.
          1    1    1    2  502    0 -0.17573547128E+02  0.13265138951E+02 -0.17157197020E+03  0.17297899996E+03  0.00000000000E+00 0.  1.
         22    1    1    2    0    0  0.58258381615E+01 -0.13196214021E+02  0.48127035541E+02  0.50242332795E+02  0.00000000000E+00 0.  1.
         22    1    1    2    0    0 -0.16508103455E+02  0.87051860812E+01 -0.78097176753E+02  0.80296119216E+02  0.00000000000E+00 0.  1.
</event>
<event>
 6    1  0.1726037E-005  0.8570580E+02  0.7818608E-02  0.1325173E+00
          2   -1    0    0  502    0  0.00000000000E+00  0.00000000000E+00  0.81396234492E+02  0.81396234492E+02  0.00000000000E+00 0. -1.
          1   -1    0    0  501    0 -0.00000000000E+00 -0.00000000000E+00 -0.14717311868E+04  0.14717311868E+04  0.00000000000E+00 0. -1.
          2    1    1    2  501    0 -0.11360917629E+03 -0.17896773735E+03 -0.25981953469E+03  0.33532474790E+03  0.00000000000E+00 0. -1.
          1    1    1    2  502    0  0.16916749430E+03  0.15981012157E+03 -0.99930282315E+03  0.10260424204E+04  0.00000000000E+00 0. -1.
         22    1    1    2    0    0 -0.23380881748E+02  0.13042317436E+02 -0.15109230897E+03  0.15344593023E+03  0.00000000000E+00 0. -1.
         22    1    1    2    0    0 -0.32177436259E+02  0.61152983435E+01  0.19879714519E+02  0.38314322745E+02  0.00000000000E+00 0. -1.
</event>
<event>
 6    1  0.1726037E-005  0.1694574E+03  0.7818608E-02  0.1255007E+00
          2   -1    0    0  502    0  0.00000000000E+00  0.00000000000E+00  0.23013420887E+03  0.23013420887E+03  0.00000000000E+00 0. -1.
          1   -1    0    0  501    0 -0.00000000000E+00 -0.00000000000E+00 -0.32901780280E+03  0.32901780280E+03  0.00000000000E+00 0.  1.
          2    1    1    2  501    0 -0.15440043215E+03  0.10000358536E+03 -0.92444993593E+02  0.20587930292E+03  0.00000000000E+00 0. -1.
          1    1    1    2  502    0  0.10718721531E+03 -0.89745034896E+02 -0.11345546640E+03  0.18004280955E+03  0.00000000000E+00 0.  1.
         22    1    1    2    0    0  0.33555398629E+02  0.12126794580E+01  0.13551366341E+03  0.13961156234E+03  0.00000000000E+00 0. -1.
         22    1    1    2    0    0  0.13657818212E+02 -0.11471229922E+02 -0.28496797350E+02  0.33618336863E+02  0.00000000000E+00 0.  1.
</event>
<event>
 6    1  0.1726037E-005  0.7496266E+02  0.7818608E-02  0.1389860E+00
          2   -1    0    0  502    0  0.00000000000E+00  0.00000000000E+00  0.14667496430E+03  0.14667496430E+03  0.00000000000E+00 0. -1.
          1   -1    0    0  501    0 -0.00000000000E+00 -0.00000000000E+00 -0.90392616705E+02  0.90392616705E+02  0.00000000000E+00 0. -1.
          2    1    1    2  501    0 -0.17064639244E+01 -0.22119999202E+02 -0.34864992326E+02  0.41325223214E+02  0.00000000000E+00 0. -1.
          1    1    1    2  502    0  0.50482591418E+00  0.42291832308E+02  0.17875819842E+02  0.45917304627E+02  0.00000000000E+00 0. -1.
         22    1    1    2    0    0 -0.28800892395E+02 -0.22536319396E+01 -0.29491053963E+02  0.41283077932E+02  0.00000000000E+00 0. -1.
         22    1    1    2    0    0  0.30002530406E+02 -0.17918201166E+02  0.10276257405E+03  0.10854197524E+03  0.00000000000E+00 0. -1.
</event>
<event>
 6    1  0.1726037E-005  0.2594411E+03  0.7818608E-02  0.1152401E+00
          2   -1    0    0  502    0  0.00000000000E+00  0.00000000000E+00  0.23456641084E+03  0.23456641084E+03  0.00000000000E+00 0.  1.
          1   -1    0    0  501    0 -0.00000000000E+00 -0.00000000000E+00 -0.41919014387E+03  0.41919014387E+03  0.00000000000E+00 0.  1.
          2    1    1    2  501    0  0.14527861994E+03 -0.14195795334E+03 -0.19924925717E+03  0.28453155257E+03  0.00000000000E+00 0.  1.
          1    1    1    2  502    0 -0.16153586754E+03  0.78376080336E+02  0.10209180468E+03  0.20654148023E+03  0.00000000000E+00 0.  1.
         22    1    1    2    0    0  0.60689189276E+02  0.60979149786E+02 -0.32523412626E+02  0.91975033419E+02  0.00000000000E+00 0.  1.
         22    1    1    2    0    0 -0.44431941678E+02  0.26027232170E+01 -0.54942867916E+02  0.70708488488E+02  0.00000000000E+00 0. -1.
</event>
<event>
 6    1  0.1726037E-005  0.7760286E+02  0.7818608E-02  0.1422134E+00
          2   -1    0    0  502    0  0.00000000000E+00  0.00000000000E+00  0.18797349266E+03  0.18797349266E+03  0.00000000000E+00 0.  1.
          1   -1    0    0  501    0 -0.00000000000E+00 -0.00000000000E+00 -0.20574092621E+03  0.20574092621E+03  0.00000000000E+00 0. -1.
          2    1    1    2  501    0  0.73845391961E+02  0.16857364098E+02  0.13677355505E+03  0.15634678762E+03  0.00000000000E+00 0.  1.
          1    1    1    2  502    0 -0.92126264026E+00 -0.24341164652E+02 -0.63641509038E+02  0.68143838269E+02  0.00000000000E+00 0. -1.
         22    1    1    2    0    0 -0.91806913947E+02  0.93799936212E+01 -0.18166772976E+02  0.94055969344E+02  0.00000000000E+00 0. -1.
         22    1    1    2    0    0  0.18882784627E+02 -0.18961930673E+01 -0.72732706583E+02  0.75167823637E+02  0.00000000000E+00 0.  1.
</event>
<event>
 6    1  0.1726037E-005  0.1098484E+03  0.7818608E-02  0.1388509E+00
          2   -1    0    0  502    0  0.00000000000E+00  0.00000000000E+00  0.32602071469E+02  0.32602071469E+02  0.00000000000E+00 0.  1.
          1   -1    0    0  501    0 -0.00000000000E+00 -0.00000000000E+00 -0.44028075955E+03  0.44028075955E+03  0.00000000000E+00 0.  1.
          2    1    1    2  501    0 -0.91000714736E+01  0.51477632884E+02 -0.33393854997E+02  0.62031504413E+02  0.00000000000E+00 0.  1.
          1    1    1    2  502    0 -0.19267199810E+02  0.11507778512E+02 -0.26490128451E+02  0.34718595308E+02  0.00000000000E+00 0.  1.
         22    1    1    2    0    0  0.39535496144E+02 -0.60963137954E+02 -0.35521641670E+03  0.36257173406E+03  0.00000000000E+00 0.  1.
         22    1    1    2    0    0 -0.11168224860E+02 -0.20222734423E+01  0.74217120603E+01  0.13560997246E+02  0.00000000000E+00 0.  1.
</event>
<event>
 6    1  0.1726037E-005  0.4183840E+02  0.7818608E-02  0.1509573E+00
          2   -1    0    0  502    0  0.00000000000E+00  0.00000000000E+00  0.54489408358E+02  0.54489408358E+02  0.00000000000E+00 0. -1.
          1   -1    0    0  501    0 -0.00000000000E+00 -0.00000000000E+00 -0.32622573766E+03  0.32622573766E+03  0.00000000000E+00 0. -1.
          2    1    1    2  501    0  0.14005683934E+02 -0.63013449531E+02 -0.81274948169E+02  0.10379051596E+03  0.00000000000E+00 0. -1.
          1    1    1    2  502    0  0.15646611738E+02  0.66735140103E+02 -0.99068341650E+02  0.12046962979E+03  0.00000000000E+00 0. -1.
         22    1    1    2    0    0 -0.12992185359E+02  0.18548725885E+02 -0.11668498963E+03  0.11886226869E+03  0.00000000000E+00 0.  1.
         22    1    1    2    0    0 -0.16660110312E+02 -0.22270416457E+02  0.25291950153E+02  0.37592731576E+02  0.00000000000E+00 0. -1.
</event>
<event>
 6    1  0.1726037E-005  0.3396554E+02  0.7818608E-02  0.1558257E+00
          2   -1    0    0  502    0  0.00000000000E+00  0.00000000000E+00  0.21017254188E+03  0.21017254188E+03  0.00000000000E+00 0. -1.
          1   -1    0    0  501    0 -0.00000000000E+00 -0.00000000000E+00 -0.11466794381E+03  0.11466794381E+03  0.00000000000E+00 0. -1.
          2    1    1    2  501    0 -0.44572399321E+02  0.52472636620E+01  0.14190653826E+03  0.14883446563E+03  0.00000000000E+00 0. -1.
          1    1    1    2  502    0  0.37855264919E+02 -0.27935035216E+01 -0.29949615884E+02  0.48350845242E+02  0.00000000000E+00 0. -1.
         22    1    1    2    0    0  0.58368765810E+00 -0.26902694461E+02  0.49890753679E+02  0.56684944767E+02  0.00000000000E+00 0.  1.
         22    1    1    2    0    0  0.61334467440E+01  0.24448934321E+02 -0.66343077981E+02  0.70970230057E+02  0.00000000000E+00 0.  1.
</event>
<event>
 6    1  0.1726037E-005  0.1132543E+03  0.7818608E-02  0.1264652E+00
          2   -1    0    0  502    0  0.00000000000E+00  0.00000000000E+00  0.26154686532E+03  0.26154686532E+03  0.00000000000E+00 0. -1.
          1   -1    0    0  501    0 -0.00000000000E+00 -0.00000000000E+00 -0.14129763267E+03  0.14129763267E+03  0.00000000000E+00 0.  1.
          2    1    1    2  501    0 -0.14103399805E+03  0.23439189248E+02  0.18290781511E+02  0.14413374652E+03  0.00000000000E+00 0. -1.
          1    1    1    2  502    0  0.51369821756E+02  0.14600344560E+02 -0.18540689573E+02  0.56531281769E+02  0.00000000000E+00 0.  1.
         22    1    1    2    0    0  0.55257361279E+02 -0.74863873679E+02  0.11991202800E+03  0.15177901705E+03  0.00000000000E+00 0. -1.
         22    1    1    2    0    0  0.34406815014E+02  0.36824339871E+02  0.58711271498E+00  0.50400452653E+02  0.00000000000E+00 0. -1.
</event>
<event>
 6    1  0.1726037E-005  0.1967439E+03  0.7818608E-02  0.1209813E+00
          2   -1    0    0  502    0  0.00000000000E+00  0.00000000000E+00  0.11680210947E+03  0.11680210947E+03  0.00000000000E+00 0.  1.
          1   -1    0    0  501    0 -0.00000000000E+00 -0.00000000000E+00 -0.72287169684E+03  0.72287169684E+03  0.00000000000E+00 0.  1.
          2    1    1    2  501    0 -0.22753305127E+03 -0.12086993764E+02 -0.24073569546E+03  0.33146803754E+03  0.00000000000E+00 0.  1.
          1    1    1    2  502    0  0.14308315578E+03  0.94602321415E+01 -0.32431873378E+03  0.35460531093E+03  0.00000000000E+00 0.  1.
         22    1    1    2    0    0  0.51372665388E+02 -0.17792239584E+02  0.37462010222E+02  0.66023607508E+02  0.00000000000E+00 0.  1.
         22    1    1    2    0    0  0.33077230103E+02  0.20419001206E+02 -0.78477168351E+02  0.87576850331E+02  0.00000000000E+00 0. -1.
</event>
<event>
 6    1  0.1726037E-005  0.1315717E+03  0.7818608E-02  0.1320443E+00
          2   -1    0    0  502    0  0.00000000000E+00  0.00000000000E+00  0.85408721255E+02  0.85408721255E+02  0.00000000000E+00 0.  1.
          1   -1    0    0  501    0 -0.00000000000E+00 -0.00000000000E+00 -0.38883965775E+03  0.38883965775E+03  0.00000000000E+00 0.  1.
          2    1    1    2  501    0 -0.24760145565E+01  0.32152650355E+02 -0.24828434954E+02  0.40698584192E+02  0.00000000000E+00 0.  1.
          1    1    1    2  502    0  0.12404828858E+03  0.35562497107E+02 -0.18225297518E+03  0.22331326889E+03  0.00000000000E+00 0.  1.
         22    1    1    2    0    0 -0.12702677485E+03 -0.47487736572E+02 -0.11825118580E+03  0.17992840131E+03  0.00000000000E+00 0.  1.
         22    1    1    2    0    0  0.54545008230E+01 -0.20227410890E+02  0.21901659452E+02  0.30308124608E+02  0.00000000000E+00 0.  1.
</event>
<event>
 6    1  0.1726037E-005  0.5977943E+02  0.7818608E-02  0.1423086E+00
          2   -1    0    0  502    0  0.00000000000E+00  0.00000000000E+00  0.19565020238E+03  0.19565020238E+03  0.00000000000E+00 0. -1.
          1   -1    0    0  501    0 -0.00000000000E+00 -0.00000000000E+00 -0.16484102308E+03  0.16484102308E+03  0.00000000000E+00 0. -1.
          2    1    1    2  501    0  0.20870037135E+02 -0.25776349494E+02 -0.12473060488E+03  0.12906472190E+03  0.00000000000E+00 0. -1.
          1    1    1    2  502    0 -0.23900565105E+02  0.36206770729E+02  0.26269345709E+02  0.50717312458E+02  0.00000000000E+00 0. -1.
         22    1    1    2    0    0 -0.75459736426E+01 -0.40213496098E+02  0.14113821518E+03  0.14694918431E+03  0.00000000000E+00 0.  1.
         22    1    1    2    0    0  0.10576501612E+02  0.29783074862E+02 -0.11867776704E+02  0.33760006790E+02  0.00000000000E+00 0. -1.
</event>
<event>
 6    1  0.1726037E-005  0.5992678E+02  0.7818608E-02  0.1466028E+00
          2   -1    0    0  502    0  0.00000000000E+00  0.00000000000E+00  0.48858220628E+02  0.48858220628E+02  0.00000000000E+00 0.  1.
          1   -1    0    0  501    0 -0.00000000000E+00 -0.00000000000E+00 -0.61688788815E+03  0.61688788815E+03  0.00000000000E+00 0.  1.
          2    1    1    2  501    0  0.38419803083E+02  0.38528186019E+02 -0.43699159740E+03  0.44036593713E+03  0.00000000000E+00 0.  1.
          1    1    1    2  502    0 -0.34952982400E+02 -0.22735947165E+02 -0.79444301185E+02  0.89721966446E+02  0.00000000000E+00 0.  1.
         22    1    1    2    0    0 -0.21666813653E+02 -0.27168998418E+02 -0.87319821903E+02  0.93980618141E+02  0.00000000000E+00 0.  1.
         22    1    1    2    0    0  0.18199992971E+02  0.11376759564E+02  0.35726052968E+02  0.41677587058E+02  0.00000000000E+00 0.  1.
</event>
<event>
 6    1  0.1726037E-005  0.4296122E+02  0.7818608E-02  0.1487936E+00
          2   -1    0    0  502    0  0.00000000000E+00  0.00000000000E+00  0.40461987923E+02  0.40461987923E+02  0.00000000000E+00 0. -1.
          1   -1    0    0  501    0 -0.00000000000E+00 -0.00000000000E+00 -0.43368082635E+03  0.43368082635E+03  0.00000000000E+00 0. -1.
          2    1    1    2  501    0  0.27950848402E+02 -0.54175779745E+02 -0.57868127163E+02  0.84053466191E+02  0.00000000000E+00 0. -1.
          1    1    1    2  502    0 -0.49082778612E+02  0.36893254264E+02 -0.17676094931E+03  0.18712205794E+03  0.00000000000E+00 0. -1.
         22    1    1    2    0    0  0.25427390360E+02 -0.11285007027E+02  0.11747411395E+02  0.30197768769E+02  0.00000000000E+00 0. -1.
         22    1    1    2    0    0 -0.42954601506E+01  0.28567532508E+02 -0.17033717334E+03  0.17276952137E+03  0.00000000000E+00 0. -1.
</event>
<event>
 6    1  0.1726037E-005  0.1288015E+03  0.7818608E-02  0.1338367E+00
          2   -1    0    0  502    0  0.00000000000E+00  0.00000000000E+00  0.61425395570E+02  0.61425395570E+02  0.00000000000E+00 0. -1.
          1   -1    0    0  501    0 -0.00000000000E+00 -0.00000000000E+00 -0.52718108983E+03  0.52718108983E+03  0.00000000000E+00 0.  1.
          2    1    1    2  501    0 -0.51184487496E+02 -0.10535412165E+03 -0.11447707396E+03  0.16378138835E+03  0.00000000000E+00 0. -1.
          1    1    1    2  502    0  0.43201119113E+02  0.75911104171E+02 -0.22582499191E+03  0.24212756844E+03  0.00000000000E+00 0.  1.
         22    1    1    2    0    0  0.79862627663E+01 -0.14193862417E+02  0.22876606506E+02  0.28081760067E+02  0.00000000000E+00 0. -1.
         22    1    1    2    0    0 -0.28943827226E-02  0.43636879896E+02 -0.14833023490E+03  0.15461576854E+03  0.00000000000E+00 0.  1.
</event>
<event>
 6    1  0.1726037E-005  0.7268024E+02  0.7818608E-02  0.1386460E+00
          2   -1    0    0  502    0  0.00000000000E+00  0.00000000000E+00  0.68708311349E+02  0.68708311349E+02  0.00000000000E+00 0.  1.
          1   -1    0    0  501    0 -0.00000000000E+00 -0.00000000000E+00 -0.35421125816E+03  0.35421125816E+03  0.00000000000E+00 0.  1.
          2    1    1    2  501    0  0.25477459250E+02  0.40112857490E+02 -0.68525025212E+02  0.83389575764E+02  0.00000000000E+00 0.  1.
          1    1    1    2  502    0  0.18813315452E+02  0.95539803104E+01 -0.19102921960E+03  0.19219100427E+03  0.00000000000E+00 0.  1.
         22    1    1    2    0    0 -0.53723035499E+02 -0.62246637788E+02  0.31292628064E+02  0.87977480246E+02  0.00000000000E+00 0.  1.
         22    1    1    2    0    0  0.94322607973E+01  0.12579799988E+02 -0.57241330060E+02  0.59361509234E+02  0.00000000000E+00 0.  1.
</event>
<event>
 6    1  0.1726037E-005  0.1211278E+03  0.7818608E-02  0.1275040E+00
          2   -1    0    0  502    0  0.00000000000E+00  0.00000000000E+00  0.16511164211E+02  0.16511164211E+02  0.00000000000E+00 0. -1.
          1   -1    0    0  501    0 -0.00000000000E+00 -0.00000000000E+00 -0.12170102473E+04  0.12170102473E+04  0.00000000000E+00 0. -1.
          2    1    1    2  501    0 -0.50803952837E+02 -0.34849722822E+02 -0.32702538275E+03  0.33277792259E+03  0.00000000000E+00 0. -1.
          1    1    1    2  502    0  0.44027507110E+02  0.34796935132E+02 -0.54429499444E+03  0.54718030763E+03  0.00000000000E+00 0. -1.
         22    1    1    2    0    0  0.60048385302E+02 -0.16262271089E+02 -0.10051349492E+03  0.11820842906E+03  0.00000000000E+00 0. -1.
         22    1    1    2    0    0 -0.53271939575E+02  0.16315058779E+02 -0.22866521098E+03  0.23535475224E+03  0.00000000000E+00 0.  1.
</event>
<event>
 6    1  0.1726037E-005  0.3404110E+02  0.7818608E-02  0.1602467E+00
          2   -1    0    0  502    0  0.00000000000E+00  0.00000000000E+00  0.10487333969E+03  0.10487333969E+03  0.00000000000E+00 0. -1.
          1   -1    0    0  501    0 -0.00000000000E+00 -0.00000000000E+00 -0.15980039261E+03  0.15980039261E+03  0.00000000000E+00 0. -1.
          2    1    1    2  501    0  0.26687077961E+02  0.24316948095E+02  0.54822904610E+02  0.65643468561E+02  0.00000000000E+00 0. -1.
          1    1    1    2  502    0  0.63172290494E+01 -0.38025697222E+02 -0.17566463941E+02  0.42360850882E+02  0.00000000000E+00 0. -1.
         22    1    1    2    0    0 -0.40906792158E+01  0.16131236913E+02  0.28251458849E+02  0.32788647241E+02  0.00000000000E+00 0.  1.
         22    1    1    2    0    0 -0.28913627795E+02 -0.24224877861E+01 -0.12043495244E+03  0.12388076562E+03  0.00000000000E+00 0. -1.
</event>
<event>
 6    1  0.1726037E-005  0.1007567E+03  0.7818608E-02  0.1364574E+00
          2   -1    0    0  502    0  0.00000000000E+00  0.00000000000E+00  0.21338194866E+03  0.21338194866E+03  0.00000000000E+00 0. -1.
          1   -1    0    0  501    0 -0.00000000000E+00 -0.00000000000E+00 -0.34795795940E+03  0.34795795940E+03  0.00000000000E+00 0. -1.
          2    1    1    2  501    0 -0.14874847844E+03 -0.98383313477E+02  0.40622261827E+02  0.18290859566E+03  0.00000000000E+00 0. -1.
          1    1    1    2  502    0  0.11931457489E+03  0.34546381957E+02 -0.19357484067E+03  0.23000138962E+03  0.00000000000E+00 0. -1.
         22    1    1    2    0    0  0.15666520531E+02  0.61828619016E+02 -0.48495967980E+02  0.80125382403E+02  0.00000000000E+00 0. -1.
         22    1    1    2    0    0  0.13767383017E+02  0.20083125039E+01  0.66872536079E+02  0.68304540376E+02  0.00000000000E+00 0. -1.
</event>
<event>
 6    1  0.1726037E-005  0.7726841E+02  0.7818608E-02  0.1453493E+00
          2   -1    0    0  502    0  0.00000000000E+00  0.00000000000E+00  0.60909633688E+03  0.60909633688E+03  0.00000000000E+00 0.  1.
          1   -1    0    0  501    0 -0.00000000000E+00 -0.00000000000E+00 -0.36949389756E+02  0.36949389756E+02  0.00000000000E+00 0.  1.
          2    1    1    2  501    0  0.65651949314E+02 -0.69390890226E+02  0.98207215323E+02  0.13700339863E+03  0.00000000000E+00 0.  1.
          1    1    1    2  502    0 -0.33323675897E+02 -0.94103467239E+01  0.63802880601E+02  0.72593591823E+02  0.00000000000E+00 0.  1.
         22    1    1    2    0    0 -0.99723722994E+01  0.66988940411E+01 -0.60641486445E+01  0.13457239295E+02  0.00000000000E+00 0. -1.
         22    1    1    2    0    0 -0.22355901117E+02  0.72102342909E+02  0.41620099985E+03  0.42299149689E+03  0.00000000000E+00 0.  1.
</event>
<event>
 6    1  0.1726037E-005  0.1095500E+03  0.7818608E-02  0.1268001E+00
          2   -1    0    0  502    0  0.00000000000E+00  0.00000000000E+00  0.94198573713E+03  0.94198573713E+03  0.00000000000E+00 0.  1.
          1   -1    0    0  501    0 -0.00000000000E+00 -0.00000000000E+00 -0.90916352100E+02  0.90916352100E+02  0.00000000000E+00 0. -1.
          2    1    1    2  501    0  0.17548718655E+03  0.51513386936E+02  0.38527435583E+03  0.42648061028E+03  0.00000000000E+00 0.  1.
          1    1    1    2  502    0 -0.82303032219E+02  0.12539343704E+02 -0.25510638660E+02  0.87073629405E+02  0.00000000000E+00 0. -1.
         22    1    1    2    0    0 -0.19009172242E+02 -0.25997590857E+01  0.51399143913E+00  0.19193008202E+02  0.00000000000E+00 0.  1.
         22    1    1    2    0    0 -0.74174982093E+02 -0.61452971554E+02  0.49079167642E+03  0.50015484135E+03  0.00000000000E+00 0.  1.
</event>
<event>
 6    1  0.1726037E-005  0.4499463E+02  0.7818608E-02  0.1528476E+00
          2   -1    0    0  502    0  0.00000000000E+00  0.00000000000E+00  0.10814282852E+03  0.10814282852E+03  0.00000000000E+00 0.  1.
          1   -1    0    0  501    0 -0.00000000000E+00 -0.00000000000E+00 -0.18787229977E+03  0.18787229977E+03  0.00000000000E+00 0. -1.
          2    1    1    2  501    0 -0.16155407903E+02  0.71697176921E+02  0.18316626112E+02  0.75742862206E+02  0.00000000000E+00 0.  1.
          1    1    1    2  502    0  0.24036296915E+02 -0.57887767181E+02 -0.59896275057E+02  0.86696602727E+02  0.00000000000E+00 0. -1.
         22    1    1    2    0    0 -0.69490909134E+01 -0.26702104977E+02 -0.82703540396E+02  0.87184676800E+02  0.00000000000E+00 0. -1.
         22    1    1    2    0    0 -0.93179809918E+00  0.12892695236E+02  0.44553718087E+02  0.46390986555E+02  0.00000000000E+00 0. -1.
</event>
<event>
 6    1  0.1726037E-005  0.5485684E+02  0.7818608E-02  0.1431219E+00
          2   -1    0    0  502    0  0.00000000000E+00  0.00000000000E+00  0.11331797862E+03  0.11331797862E+03  0.00000000000E+00 0. -1.
          1   -1    0    0  501    0 -0.00000000000E+00 -0.00000000000E+00 -0.27367825853E+03  0.27367825853E+03  0.00000000000E+00 0. -1.
          2    1    1    2  501    0 -0.93005409470E+01 -0.57881457345E+02 -0.76024574633E+02  0.96002599519E+02  0.00000000000E+00 0. -1.
          1    1    1    2  502    0  0.52783662109E+02 -0.21323765720E+02 -0.12212113987E+03  0.13473823055E+03  0.00000000000E+00 0. -1.
         22    1    1    2    0    0 -0.27276286183E+01  0.46702711226E+02  0.77634216932E+02  0.90640249516E+02  0.00000000000E+00 0. -1.
         22    1    1    2    0    0 -0.40755492544E+02  0.32502511839E+02 -0.39848782340E+02  0.65615157565E+02  0.00000000000E+00 0. -1.
</event>
<event>
 6    1  0.1726037E-005  0.7455650E+02  0.7818608E-02  0.1353340E+00
          2   -1    0    0  502    0  0.00000000000E+00  0.00000000000E+00  0.21888691470E+04  0.21888691470E+04  0.00000000000E+00 0.  1.
          1   -1    0    0  501    0 -0.00000000000E+00 -0.00000000000E+00 -0.19825414300E+02  0.19825414300E+02  0.00000000000E+00 0. -1.
          2    1    1    2  501    0  0.17085879702E+02 -0.62043854039E+02  0.14966976300E+04  0.14980804927E+04  0.00000000000E+00 0.  1.
          1    1    1    2  502    0  0.19852152130E+02 -0.52155977999E+02  0.12830964237E+03  0.13992039991E+03  0.00000000000E+00 0. -1.
         22    1    1    2    0    0 -0.49932122338E+02  0.13083900374E+03  0.52079354463E+03  0.53929396239E+03  0.00000000000E+00 0. -1.
         22    1    1    2    0    0  0.12994090506E+02 -0.16639171702E+02  0.23242915722E+02  0.31399706276E+02  0.00000000000E+00 0. -1.
</event>
<event>
 6    1  0.1726037E-005  0.6849317E+02  0.7818608E-02  0.1366202E+00
          2   -1    0    0  502    0  0.00000000000E+00  0.00000000000E+00  0.87096614023E+02  0.87096614023E+02  0.00000000000E+00 0. -1.
          1   -1    0    0  501    0 -0.00000000000E+00 -0.00000000000E+00 -0.28259447796E+03  0.28259447796E+03  0.00000000000E+00 0.  1.
          2    1    1    2  501    0 -0.27543130133E+02  0.33233730625E+02  0.36833425183E+02  0.56743335111E+02  0.00000000000E+00 0. -1.
          1    1    1    2  502    0  0.23757761533E+02 -0.16853986729E+02 -0.16122008209E+03  0.16383040918E+03  0.00000000000E+00 0.  1.
         22    1    1    2    0    0 -0.21371300503E+02  0.94530296315E+01  0.32147669972E+02  0.39743740879E+02  0.00000000000E+00 0. -1.
         22    1    1    2    0    0  0.25156669103E+02 -0.25832773528E+02 -0.10325887700E+03  0.10937360682E+03  0.00000000000E+00 0.  1.
</event>
<event>
 6    1  0.2947349E-005  0.8920228E+02  0.7818608E-02  0.1433078E+00
          2   -1    0    0  502    0  0.00000000000E+00  0.00000000000E+00  0.22219853565E+03  0.22219853565E+03  0.00000000000E+00 0.  1.
          1   -1    0    0  501    0 -0.00000000000E+00 -0.00000000000E+00 -0.36994456059E+03  0.36994456059E+03  0.00000000000E+00 0. -1.
          2    1    1    2  501    0  0.41316985257E+01  0.77697245862E+02  0.14851379708E+03  0.16766120860E+03  0.00000000000E+00 0.  1.
          1    1    1    2  502    0  0.44458852055E+01 -0.76206216255E+02 -0.28482357963E+03  0.29487560904E+03  0.00000000000E+00 0. -1.
         22    1    1    2    0    0 -0.47724713144E+01 -0.11362032786E+02 -0.69501274316E+02  0.70585405028E+02  0.00000000000E+00 0. -1.
         22    1    1    2    0    0 -0.38051124168E+01  0.98710031783E+01  0.58065031935E+02  0.59020873577E+02  0.00000000000E+00 0. -1.
</event>
<event>
 6    1  0.1726037E-005  0.1631445E+03  0.7818608E-02  0.1185192E+00
          2   -1    0    0  502    0  0.00000000000E+00  0.00000000000E+00  0.62091230143E+03  0.62091230143E+03  0.00000000000E+00 0. -1.
          1   -1    0    0  501    0 -0.00000000000E+00 -0.00000000000E+00 -0.56593067998E+02  0.56593067998E+02  0.00000000000E+00 0. -1.
          2    1    1    2  501    0 -0.57068484646E+02 -0.11638839907E+03  0.31088110769E+03  0.33682359552E+03  0.00000000000E+00 0. -1.
          1    1    1    2  502    0  0.50670893030E+02  0.80188592037E+02  0.98801020896E+02  0.13696492771E+03  0.00000000000E+00 0. -1.
         22    1    1    2    0    0 -0.21613925928E+02 -0.17552092272E+02  0.13811361812E+03  0.14089219015E+03  0.00000000000E+00 0.  1.
         22    1    1    2    0    0  0.28011517544E+02  0.53751899304E+02  0.16523486735E+02  0.62824656050E+02  0.00000000000E+00 0. -1.
</event>
<event>
 6    1  0.1726037E-005  0.9912870E+02  0.7818608E-02  0.1335856E+00
          2   -1    0    0  502    0  0.00000000000E+00  0.00000000000E+00  0.28966230115E+03  0.28966230115E+03  0.00000000000E+00 0.  1.
          1   -1    0    0  501    0 -0.00000000000E+00 -0.00000000000E+00 -0.24056325292E+03  0.24056325292E+03  0.00000000000E+00 0.  1.
          2    1    1    2  501    0  0.60511760029E+02 -0.18910943314E+02  0.67876028531E+02  0.92878695770E+02  0.00000000000E+00 0.  1.
          1    1    1    2  502    0 -0.87427863353E+02  0.19390784886E+02 -0.19909564816E+03  0.21830875142E+03  0.00000000000E+00 0.  1.
         22    1    1    2    0    0 -0.92593772251E+01  0.87004588928E+01 -0.15301782495E+02  0.19889157827E+02  0.00000000000E+00 0.  1.
         22    1    1    2    0    0  0.36175480549E+02 -0.91803004651E+01  0.19562045036E+03  0.19914894905E+03  0.00000000000E+00 0.  1.
</event>
<event>
 6    1  0.1726037E-005  0.1563283E+03  0.7818608E-02  0.1322478E+00
          2   -1    0    0  502    0  0.00000000000E+00  0.00000000000E+00  0.93628109418E+03  0.93628109418E+03  0.00000000000E+00 0.  1.
          1   -1    0    0  501    0 -0.00000000000E+00 -0.00000000000E+00 -0.14742776626E+03  0.14742776626E+03  0.00000000000E+00 0. -1.
          2    1    1    2  501    0 -0.12239146911E+03  0.58444295829E+02  0.85965621522E+03  0.87028973095E+03  0.00000000000E+00 0.  1.
          1    1    1    2  502    0  0.34879341600E+02  0.47593416109E+01 -0.96852992151E+01  0.36510612483E+02  0.00000000000E+00 0. -1.
         22    1    1    2    0    0 -0.67338870217E+01  0.99867190841E+01  0.26339559610E+02  0.28962945170E+02  0.00000000000E+00 0.  1.
         22    1    1    2    0    0  0.94246014536E+02 -0.73190356524E+02 -0.87457147693E+02  0.14794557184E+03  0.00000000000E+00 0. -1.
</event>
<event>
 6    1  0.1726037E-005  0.3683370E+02  0.7818608E-02  0.1621771E+00
          2   -1    0    0  502    0  0.00000000000E+00  0.00000000000E+00  0.96585945258E+02  0.96585945258E+02  0.00000000000E+00 0.  1.
          1   -1    0    0  501    0 -0.00000000000E+00 -0.00000000000E+00 -0.22375214484E+03  0.22375214484E+03  0.00000000000E+00 0. -1.
          2    1    1    2  501    0 -0.32286885498E+01  0.23109827988E+02  0.21769865050E+02  0.31912624519E+02  0.00000000000E+00 0.  1.
          1    1    1    2  502    0  0.15739109312E+02 -0.20384841711E+02 -0.16292132181E+03  0.16494428888E+03  0.00000000000E+00 0. -1.
         22    1    1    2    0    0 -0.33294749398E+01 -0.10810198582E+02 -0.53608724719E+02  0.54789060612E+02  0.00000000000E+00 0. -1.
         22    1    1    2    0    0 -0.91809458226E+01  0.80852123048E+01  0.67593981897E+02  0.68692116089E+02  0.00000000000E+00 0.  1.
</event>
<event>
 6    1  0.1726037E-005  0.2873856E+02  0.7818608E-02  0.1656661E+00
          2   -1    0    0  502    0  0.00000000000E+00  0.00000000000E+00  0.81036061291E+02  0.81036061291E+02  0.00000000000E+00 0.  1.
          1   -1    0    0  501    0 -0.00000000000E+00 -0.00000000000E+00 -0.16969100903E+03  0.16969100903E+03  0.00000000000E+00 0.  1.
          2    1    1    2  501    0  0.53858965681E+01  0.25547517779E+02  0.29740416993E+02  0.39574940928E+02  0.00000000000E+00 0.  1.
          1    1    1    2  502    0 -0.16250269043E+02 -0.46414649354E+02 -0.41057269107E+02  0.64063174017E+02  0.00000000000E+00 0.  1.
         22    1    1    2    0    0 -0.10442630254E+02  0.98365844219E+01  0.32042725178E+02  0.35107594001E+02  0.00000000000E+00 0.  1.
         22    1    1    2    0    0  0.21307002729E+02  0.11030547153E+02 -0.10938082080E+03  0.11198136137E+03  0.00000000000E+00 0.  1.
</event>
<event>
 6    1  0.1726037E-005  0.6375330E+02  0.7818608E-02  0.1456946E+00
          2   -1    0    0  502    0  0.00000000000E+00  0.00000000000E+00  0.15933373431E+03  0.15933373431E+03  0.00000000000E+00 0. -1.
          1   -1    0    0  501    0 -0.00000000000E+00 -0.00000000000E+00 -0.15002965648E+03  0.15002965648E+03  0.00000000000E+00 0. -1.
          2    1    1    2  501    0 -0.59605343957E+01 -0.33723490571E+02  0.83658466429E+02  0.90396575111E+02  0.00000000000E+00 0. -1.
          1    1    1    2  502    0 -0.35204485810E+02  0.60066385362E+02 -0.92546157933E-01  0.69622805433E+02  0.00000000000E+00 0. -1.
         22    1    1    2    0    0  0.61261288104E+02 -0.23240241511E+02 -0.98126560821E+02  0.11799100044E+03  0.00000000000E+00 0. -1.
         22    1    1    2    0    0 -0.20096267898E+02 -0.31026532804E+01  0.23864718374E+02  0.31353009806E+02  0.00000000000E+00 0. -1.
</event>
<event>
 6    1  0.1726037E-005  0.4240879E+02  0.7818608E-02  0.1495269E+00
          2   -1    0    0  502    0  0.00000000000E+00  0.00000000000E+00  0.12561150083E+03  0.12561150083E+03  0.00000000000E+00 0. -1.
          1   -1    0    0  501    0 -0.00000000000E+00 -0.00000000000E+00 -0.47088463613E+03  0.47088463613E+03  0.00000000000E+00 0. -1.
          2    1    1    2  501    0 -0.76692212902E+02 -0.25375584672E+02  0.69200325773E+02  0.10636870265E+03  0.00000000000E+00 0. -1.
          1    1    1    2  502    0  0.22987063383E+02  0.31540661060E+02 -0.32971784815E+03  0.33201969486E+03  0.00000000000E+00 0. -1.
         22    1    1    2    0    0  0.25392793007E+02 -0.10606252119E+02  0.29482373338E+02  0.40329850711E+02  0.00000000000E+00 0. -1.
         22    1    1    2    0    0  0.28312356512E+02  0.44411757311E+01 -0.11423798625E+03  0.11777788874E+03  0.00000000000E+00 0.  1.
</event>
<event>
 6    1  0.1726037E-005  0.2249142E+03  0.7818608E-02  0.1236738E+00
          2   -1    0    0  502    0  0.00000000000E+00  0.00000000000E+00  0.26256739435E+03  0.26256739435E+03  0.00000000000E+00 0. -1.
          1   -1    0    0  501    0 -0.00000000000E+00 -0.00000000000E+00 -0.56691304475E+03  0.56691304475E+03  0.00000000000E+00 0.  1.
          2    1    1    2  501    0 -0.19522610260E+03 -0.69601509181E+02  0.17465422473E+03  0.27103818814E+03  0.00000000000E+00 0. -1.
          1    1    1    2  502    0  0.10638694328E+03  0.18637931163E+02 -0.29408643765E+03  0.31329281350E+03  0.00000000000E+00 0.  1.
         22    1    1    2    0    0  0.86952990159E+02  0.71615782686E+02 -0.19252425872E+03  0.22305881068E+03  0.00000000000E+00 0. -1.
         22    1    1    2    0    0  0.18861691604E+01 -0.20652204667E+02  0.76108212350E+01  0.22090626781E+02  0.00000000000E+00 0.  1.
</event>
<event>
 6    1  0.1726037E-005  0.3419039E+03  0.7818608E-02  0.1151826E+00
          2   -1    0    0  502    0  0.00000000000E+00  0.00000000000E+00  0.64816684453E+03  0.64816684453E+03  0.00000000000E+00 0.  1.
          1   -1    0    0  501    0 -0.00000000000E+00 -0.00000000000E+00 -0.24821953003E+03  0.24821953003E+03  0.00000000000E+00 0. -1.
          2    1    1    2  501    0  0.36303188463E+02  0.12396834646E+03  0.48525728760E+03  0.50215605899E+03  0.00000000000E+00 0.  1.
          1    1    1    2  502    0 -0.97736349505E+02 -0.17818635982E+03  0.27045520418E+02  0.20502251831E+03  0.00000000000E+00 0. -1.
         22    1    1    2    0    0 -0.28299906301E+02  0.25514258614E+02  0.53111795741E+01  0.38471687223E+02  0.00000000000E+00 0.  1.
         22    1    1    2    0    0  0.89733067344E+02  0.28703754742E+02 -0.11766667309E+03  0.15073611003E+03  0.00000000000E+00 0.  1.
</event>
<event>
 6    1  0.1726037E-005  0.1748052E+03  0.7818608E-02  0.1173307E+00
          2   -1    0    0  502    0  0.00000000000E+00  0.00000000000E+00  0.33855828761E+03  0.33855828761E+03  0.00000000000E+00 0.  1.
          1   -1    0    0  501    0 -0.00000000000E+00 -0.00000000000E+00 -0.10775685882E+03  0.10775685882E+03  0.00000000000E+00 0.  1.
          2    1    1    2  501    0  0.97353264826E+02 -0.62836606123E+02  0.11082602779E+03  0.16033872170E+03  0.00000000000E+00 0.  1.
          1    1    1    2  502    0 -0.11341550216E+03  0.48170647614E+02  0.15200368979E+02  0.12415530049E+03  0.00000000000E+00 0.  1.
         22    1    1    2    0    0 -0.28223825761E+02  0.43133377600E+02  0.87121427991E+01  0.52277854164E+02  0.00000000000E+00 0. -1.
         22    1    1    2    0    0  0.44286063096E+02 -0.28467419091E+02  0.96062889226E+02  0.10954327008E+03  0.00000000000E+00 0.  1.
</event>
<event>
 6    1  0.1726037E-005  0.4792435E+02  0.7818608E-02  0.1492268E+00
          2   -1    0    0  502    0  0.00000000000E+00  0.00000000000E+00  0.31461963477E+02  0.31461963477E+02  0.00000000000E+00 0. -1.
          1   -1    0    0  501    0 -0.00000000000E+00 -0.00000000000E+00 -0.41743011254E+03  0.41743011254E+03  0.00000000000E+00 0. -1.
          2    1    1    2  501    0 -0.90645163022E+00 -0.23899993243E+02 -0.11547785235E+03  0.11792864671E+03  0.00000000000E+00 0. -1.
          1    1    1    2  502    0  0.15481792461E+02  0.26275417043E+02 -0.16119687881E+03  0.16405644509E+03  0.00000000000E+00 0. -1.
         22    1    1    2    0    0  0.50863044344E+01 -0.28503126003E+02  0.18921603450E+02  0.34587942434E+02  0.00000000000E+00 0. -1.
         22    1    1    2    0    0 -0.19661645266E+02  0.26127702202E+02 -0.12821502135E+03  0.13231904178E+03  0.00000000000E+00 0.  1.
</event>
<event>
 6    1  0.1726037E-005  0.1255545E+03  0.7818608E-02  0.1356147E+00
          2   -1    0    0  502    0  0.00000000000E+00  0.00000000000E+00  0.33707562171E+02  0.33707562171E+02  0.00000000000E+00 0.  1.
          1   -1    0    0  501    0 -0.00000000000E+00 -0.00000000000E+00 -0.38057443457E+03  0.38057443457E+03  0.00000000000E+00 0.  1.
          2    1    1    2  501    0 -0.18505489205E+02  0.43355258428E+02 -0.92421240908E+02  0.10374881848E+03  0.00000000000E+00 0.  1.
          1    1    1    2  502    0 -0.15481595040E+02  0.16316344925E+02 -0.46696775955E+01  0.22971912971E+02  0.00000000000E+00 0.  1.
         22    1    1    2    0    0  0.46945040887E+02 -0.59237468044E+02 -0.26018083424E+03  0.27093722702E+03  0.00000000000E+00 0.  1.
         22    1    1    2    0    0 -0.12957956642E+02 -0.43413530963E+00  0.10404880334E+02  0.16624038275E+02  0.00000000000E+00 0.  1.
</event>
<event>
 6    1  0.1726037E-005  0.1789807E+03  0.7818608E-02  0.1282305E+00
          2   -1    0    0  502    0  0.00000000000E+00  0.00000000000E+00  0.68514655881E+03  0.68514655881E+03  0.00000000000E+00 0.  1.
          1   -1    0    0  501    0 -0.00000000000E+00 -0.00000000000E+00 -0.83955336915E+02  0.83955336915E+02  0.00000000000E+00 0.  1.
          2    1    1    2  501    0  0.17071765811E+03 -0.23870276267E+02  0.46957102846E+03  0.50021121503E+03  0.00000000000E+00 0.  1.
          1    1    1    2  502    0 -0.72813619080E+02 -0.12587966342E+02  0.41240961641E+02  0.84623264752E+02  0.00000000000E+00 0.  1.
         22    1    1    2    0    0 -0.99017465200E+02  0.19706616808E+02  0.92083397043E+01  0.10137851193E+03  0.00000000000E+00 0.  1.
         22    1    1    2    0    0  0.11134261682E+01  0.16751625801E+02  0.81170892092E+02  0.82888904009E+02  0.00000000000E+00 0.  1.
</event>
<event>
 6    1  0.1726037E-005  0.3175717E+02  0.7818608E-02  0.1631841E+00
          2   -1    0    0  502    0  0.00000000000E+00  0.00000000000E+00  0.30506649930E+03  0.30506649930E+03  0.00000000000E+00 0.  1.
          1   -1    0    0  501    0 -0.00000000000E+00 -0.00000000000E+00 -0.13674390983E+03  0.13674390983E+03  0.00000000000E+00 0.  1.
          2    1    1    2  501    0  0.47949315547E+02  0.10635372989E+02  0.25167002747E+03  0.25641772705E+03  0.00000000000E+00 0.  1.
          1    1    1    2  502    0 -0.40912394071E+02 -0.16631315854E+02 -0.30119457083E+02  0.53456583791E+02  0.00000000000E+00 0.  1.
         22    1    1    2    0    0 -0.12491389577E+02  0.14747696176E+02 -0.90872313654E+02  0.92904826274E+02  0.00000000000E+00 0.  1.
         22    1    1    2    0    0  0.54544681007E+01 -0.87517533110E+01  0.37644332734E+02  0.39031272017E+02  0.00000000000E+00 0. -1.
</event>
<event>
 6    1  0.1726037E-005  0.1597877E+03  0.7818608E-02  0.1298808E+00
          2   -1    0    0  502    0  0.00000000000E+00  0.00000000000E+00  0.75628490345E+03  0.75628490345E+03  0.00000000000E+00 0. -1.
          1   -1    0    0  501    0 -0.00000000000E+00 -0.00000000000E+00 -0.54680131341E+03  0.54680131341E+03  0.00000000000E+00 0.  1.
          2    1    1    2  501    0  0.15111083388E+03 -0.77146753474E+02  0.71118843574E+03  0.73114642638E+03  0.00000000000E+00 0. -1.
          1    1    1    2  502    0 -0.66841151574E+02  0.57669058334E+02 -0.33236153069E+03  0.34388609585E+03  0.00000000000E+00 0.  1.
         22    1    1    2    0    0 -0.16126152538E+02  0.63323553165E+01  0.19959950017E+02  0.26430117748E+02  0.00000000000E+00 0.  1.
         22    1    1    2    0    0 -0.68143529769E+02  0.13145339823E+02 -0.18930326502E+03  0.20162357688E+03  0.00000000000E+00 0.  1.
</event>
<event>
 6    1  0.1726037E-005  0.5904935E+02  0.7818608E-02  0.1450392E+00
          2   -1    0    0  502    0  0.00000000000E+00  0.00000000000E+00  0.30108009554E+03  0.30108009554E+03  0.00000000000E+00 0. -1.
          1   -1    0    0  501    0 -0.00000000000E+00 -0.00000000000E+00 -0.18155952732E+03  0.18155952732E+03  0.00000000000E+00 0.  1.
          2    1    1    2  501    0  0.19257715014E+02  0.26281509393E+02  0.24002062679E+03  0.24222196145E+03  0.00000000000E+00 0. -1.
          1    1    1    2  502    0 -0.10825921216E+02 -0.41430563837E+02 -0.10839609413E+03  0.11654786747E+03  0.00000000000E+00 0.  1.
         22    1    1    2    0    0  0.10001462615E+00  0.28172019506E+02  0.51330165657E+02  0.58553040846E+02  0.00000000000E+00 0. -1.
         22    1    1    2    0    0 -0.85318084241E+01 -0.13022965062E+02 -0.63434130094E+02  0.65316753094E+02  0.00000000000E+00 0. -1.
</event>
<event>
 6    1  0.1726037E-005  0.7626129E+02  0.7818608E-02  0.1363503E+00
          2   -1    0    0  502    0  0.00000000000E+00  0.00000000000E+00  0.75532269041E+02  0.75532269041E+02  0.00000000000E+00 0. -1.
          1   -1    0    0  501    0 -0.00000000000E+00 -0.00000000000E+00 -0.15547949258E+03  0.15547949258E+03  0.00000000000E+00 0. -1.
          2    1    1    2  501    0  0.65827691442E+01 -0.49138382485E+02 -0.24220929029E+02  0.55177594056E+02  0.00000000000E+00 0. -1.
          1    1    1    2  502    0 -0.83537101255E+01  0.36017070453E+02 -0.20309223989E+02  0.42183864402E+02  0.00000000000E+00 0. -1.
         22    1    1    2    0    0 -0.48715816480E+02  0.50504578651E+01 -0.59558097184E+02  0.77109693555E+02  0.00000000000E+00 0. -1.
         22    1    1    2    0    0  0.50486757461E+02  0.80708541668E+01  0.24141026666E+02  0.56540609604E+02  0.00000000000E+00 0. -1.
</event>
<event>
 6    1  0.1726037E-005  0.4499265E+02  0.7818608E-02  0.1482038E+00
          2   -1    0    0  502    0  0.00000000000E+00  0.00000000000E+00  0.16872745068E+03  0.16872745068E+03  0.00000000000E+00 0. -1.
          1   -1    0    0  501    0 -0.00000000000E+00 -0.00000000000E+00 -0.30996074505E+03  0.30996074505E+03  0.00000000000E+00 0. -1.
          2    1    1    2  501    0  0.70506718346E+02  0.44571189873E+02 -0.23161602031E+03  0.24617832797E+03  0.00000000000E+00 0. -1.
          1    1    1    2  502    0 -0.61678411843E+02 -0.61492464099E+02  0.25700860563E+02  0.90807950435E+02  0.00000000000E+00 0. -1.
         22    1    1    2    0    0  0.22971895705E+02  0.13886390033E+02  0.94356812788E+02  0.98100703055E+02  0.00000000000E+00 0. -1.
         22    1    1    2    0    0 -0.31800202208E+02  0.30348841934E+01 -0.29674947408E+02  0.43601214274E+02  0.00000000000E+00 0.  1.
</event>
<event>
 6    1  0.1726037E-005  0.8137877E+02  0.7818608E-02  0.1326857E+00
          2   -1    0    0  502    0  0.00000000000E+00  0.00000000000E+00  0.14271839412E+03  0.14271839412E+03  0.00000000000E+00 0.  1.
          1   -1    0    0  501    0 -0.00000000000E+00 -0.00000000000E+00 -0.26853165173E+03  0.26853165173E+03  0.00000000000E+00 0.  1.
          2    1    1    2  501    0  0.24991491023E+02  0.51093760652E+02  0.82945656008E+02  0.10057399690E+03  0.00000000000E+00 0.  1.
          1    1    1    2  502    0 -0.31250398879E+02 -0.48387017844E+02 -0.16755033375E+03  0.17717506954E+03  0.00000000000E+00 0.  1.
         22    1    1    2    0    0  0.21679777071E+02  0.11085073991E+02  0.41569965224E+02  0.48176276402E+02  0.00000000000E+00 0.  1.
         22    1    1    2    0    0 -0.15420869215E+02 -0.13791816798E+02 -0.82778545087E+02  0.85324703015E+02  0.00000000000E+00 0. -1.
</event>
<event>
 6    1  0.1726037E-005  0.1010027E+03  0.7818608E-02  0.1403164E+00
          2   -1    0    0  502    0  0.00000000000E+00  0.00000000000E+00  0.56783233065E+02  0.56783233065E+02  0.00000000000E+00 0. -1.
          1   -1    0    0  501    0 -0.00000000000E+00 -0.00000000000E+00 -0.55141461995E+03  0.55141461995E+03  0.00000000000E+00 0. -1.
          2    1    1    2  501    0  0.50928701556E+02 -0.85846087070E+02 -0.32085704854E+02  0.10484643896E+03  0.00000000000E+00 0. -1.
          1    1    1    2  502    0 -0.30742787547E+02  0.18978449682E+02 -0.20206702362E+03  0.20527148504E+03  0.00000000000E+00 0. -1.
         22    1    1    2    0    0  0.69544181518E+01  0.92343088880E+01  0.12932130249E+02  0.17345788689E+02  0.00000000000E+00 0. -1.
         22    1    1    2    0    0 -0.27140332161E+02  0.57633328499E+02 -0.27341078867E+03  0.28073414032E+03  0.00000000000E+00 0. -1.
</event>
<event>
 6    1  0.1726037E-005  0.2419661E+02  0.7818608E-02  0.1698778E+00
          2   -1    0    0  502    0  0.00000000000E+00  0.00000000000E+00  0.73198711163E+02  0.73198711163E+02  0.00000000000E+00 0. -1.
          1   -1    0    0  501    0 -0.00000000000E+00 -0.00000000000E+00 -0.69720489186E+03  0.69720489186E+03  0.00000000000E+00 0. -1.
          2    1    1    2  501    0 -0.65652143254E+01 -0.44042336506E+02 -0.13047214618E+03  0.13786156235E+03  0.00000000000E+00 0. -1.
          1    1    1    2  502    0 -0.11732417261E+02  0.18349663929E+02 -0.50367012158E+03  0.50414080489E+03  0.00000000000E+00 0. -1.
         22    1    1    2    0    0  0.18188577195E+02  0.18081166272E+01 -0.55564572935E+02  0.58493720958E+02  0.00000000000E+00 0. -1.
         22    1    1    2    0    0  0.10905439152E+00  0.23884555949E+02  0.65700659997E+02  0.69907514830E+02  0.00000000000E+00 0. -1.
</event>
<event>
 6    1  0.1726037E-005  0.1114579E+03  0.7818608E-02  0.1387043E+00
          2   -1    0    0  502    0  0.00000000000E+00  0.00000000000E+00  0.48398305516E+03  0.48398305516E+03  0.00000000000E+00 0. -1.
          1   -1    0    0  501    0 -0.00000000000E+00 -0.00000000000E+00 -0.59538248852E+02  0.59538248852E+02  0.00000000000E+00 0. -1.
          2    1    1    2  501    0  0.42054654110E+02 -0.24244464630E+02  0.12223166412E+03  0.13151793684E+03  0.00000000000E+00 0. -1.
          1    1    1    2  502    0 -0.96089296239E+02  0.13859076490E+02  0.21962943486E+02  0.99536916465E+02  0.00000000000E+00 0. -1.
         22    1    1    2    0    0 -0.39445540291E+01  0.10402182599E+02 -0.10914645955E+02  0.15585069960E+02  0.00000000000E+00 0.  1.
         22    1    1    2    0    0  0.57979196158E+02 -0.16794459256E-01  0.29116484465E+03  0.29688138074E+03  0.00000000000E+00 0. -1.
</event>
<event>
 6    1  0.1726037E-005  0.1396607E+03  0.7818608E-02  0.1269853E+00
          2   -1    0    0  502    0  0.00000000000E+00  0.00000000000E+00  0.31107542727E+03  0.31107542727E+03  0.00000000000E+00 0. -1.
          1   -1    0    0  501    0 -0.00000000000E+00 -0.00000000000E+00 -0.17658701646E+03  0.17658701646E+03  0.00000000000E+00 0. -1.
          2    1    1    2  501    0  0.10392397094E+03 -0.20357040862E+02  0.80355100274E+02  0.13293435594E+03  0.00000000000E+00 0. -1.
          1    1    1    2  502    0 -0.13305254745E+03  0.20294037964E+02 -0.90742700381E+02  0.16232395397E+03  0.00000000000E+00 0. -1.
         22    1    1    2    0    0 -0.15606615109E+02 -0.31616668434E+01 -0.17668450704E+02  0.23785220677E+02  0.00000000000E+00 0. -1.
         22    1    1    2    0    0  0.44735191615E+02  0.32246697418E+01  0.16254446163E+03  0.16861891314E+03  0.00000000000E+00 0. -1.
</event>
<event>
 6    1  0.1726037E-005  0.3078602E+02  0.7818608E-02  0.1665656E+00
          2   -1    0    0  502    0  0.00000000000E+00  0.00000000000E+00  0.48374517474E+02  0.48374517474E+02  0.00000000000E+00 0. -1.
          1   -1    0    0  501    0 -0.00000000000E+00 -0.00000000000E+00 -0.24987505923E+03  0.24987505923E+03  0.00000000000E+00 0. -1.
          2    1    1    2  501    0  0.37957370505E+02 -0.22064907770E+02 -0.39099359944E+01  0.44078449724E+02  0.00000000000E+00 0. -1.
          1    1    1    2  502    0 -0.33106267198E+01  0.30688907275E+02 -0.38266652910E+02  0.49164072288E+02  0.00000000000E+00 0. -1.
         22    1    1    2    0    0 -0.97135238055E+01  0.76692990705E+01  0.19840289155E+02  0.23383921115E+02  0.00000000000E+00 0.  1.
         22    1    1    2    0    0 -0.24933219980E+02 -0.16293298575E+02 -0.17916424201E+03  0.18162313358E+03  0.00000000000E+00 0. -1.
</event>
<event>
 6    1  0.1726037E-005  0.8438529E+02  0.7818608E-02  0.1377558E+00
          2   -1    0    0  502    0  0.00000000000E+00  0.00000000000E+00  0.11678740654E+03  0.11678740654E+03  0.00000000000E+00 0. -1.
          1   -1    0    0  501    0 -0.00000000000E+00 -0.00000000000E+00 -0.14257160903E+03  0.14257160903E+03  0.00000000000E+00 0. -1.
          2    1    1    2  501    0 -0.18203871689E+02 -0.57914649154E+02  0.22875762456E+02  0.64875172748E+02  0.00000000000E+00 0. -1.
          1    1    1    2  502    0  0.16447307972E+02  0.50092068890E+02 -0.42175014689E+02  0.67516377045E+02  0.00000000000E+00 0. -1.
         22    1    1    2    0    0  0.20953215714E+02  0.30757295836E+02 -0.57111034352E+02  0.68166844878E+02  0.00000000000E+00 0.  1.
         22    1    1    2    0    0 -0.19196651997E+02 -0.22934715572E+02  0.50626084100E+02  0.58800620894E+02  0.00000000000E+00 0. -1.
</event>
<event>
 6    1  0.1726037E-005  0.4107658E+02  0.7818608E-02  0.1503046E+00
          2   -1    0    0  502    0  0.00000000000E+00  0.00000000000E+00  0.20366238412E+03  0.20366238412E+03  0.00000000000E+00 0.  1.
          1   -1    0    0  501    0 -0.00000000000E+00 -0.00000000000E+00 -0.93424971956E+02  0.93424971956E+02  0.00000000000E+00 0. -1.
          2    1    1    2  501    0 -0.15534970513E+02 -0.18653861406E+02  0.11880263744E+03  0.12125744726E+03  0.00000000000E+00 0.  1.
          1    1    1    2  502    0  0.12202188452E+02  0.20854730300E+02 -0.37166160060E+02  0.44329861634E+02  0.00000000000E+00 0. -1.
         22    1    1    2    0    0 -0.34922232386E+01 -0.14946366338E+02  0.78274515523E+02  0.79765213409E+02  0.00000000000E+00 0. -1.
         22    1    1    2    0    0  0.68250052996E+01  0.12745497444E+02 -0.49673580735E+02  0.51734833773E+02  0.00000000000E+00 0.  1.
</event>
<event>
 6    1  0.1726037E-005  0.1884649E+03  0.7818608E-02  0.1224303E+00
          2   -1    0    0  502    0  0.00000000000E+00  0.00000000000E+00  0.14612115321E+03  0.14612115321E+03  0.00000000000E+00 0. -1.
          1   -1    0    0  501    0 -0.00000000000E+00 -0.00000000000E+00 -0.54846622439E+03  0.54846622439E+03  0.00000000000E+00 0. -1.
          2    1    1    2  501    0  0.15518666466E+03  0.67551006792E+02 -0.70979759267E+02  0.18353246479E+03  0.00000000000E+00 0. -1.
          1    1    1    2  502    0 -0.17708308790E+03 -0.31736531423E+02 -0.33693114572E+03  0.38195317043E+03  0.00000000000E+00 0. -1.
         22    1    1    2    0    0  0.32819578416E+02 -0.31595432520E+02  0.58919885442E+02  0.74477842235E+02  0.00000000000E+00 0.  1.
         22    1    1    2    0    0 -0.10923155180E+02 -0.42190428495E+01 -0.53354051624E+02  0.54623900138E+02  0.00000000000E+00 0. -1.
</event>
<event>
 6    1  0.1726037E-005  0.4813585E+02  0.7818608E-02  0.1506573E+00
          2   -1    0    0  502    0  0.00000000000E+00  0.00000000000E+00  0.41270807096E+02  0.41270807096E+02  0.00000000000E+00 0.  1.
          1   -1    0    0  501    0 -0.00000000000E+00 -0.00000000000E+00 -0.91767033150E+03  0.91767033150E+03  0.00000000000E+00 0.  1.
          2    1    1    2  501    0 -0.13198350042E+02  0.47802415820E+02 -0.87040157111E+01  0.50349054525E+02  0.00000000000E+00 0.  1.
          1    1    1    2  502    0  0.38301078474E+02 -0.47408523444E+02 -0.68667579468E+03  0.68937521547E+03  0.00000000000E+00 0.  1.
         22    1    1    2    0    0 -0.37960405244E+02 -0.14507791487E+02 -0.19263094268E+03  0.19687089286E+03  0.00000000000E+00 0.  1.
         22    1    1    2    0    0  0.12857676811E+02  0.14113899111E+02  0.11611228655E+02  0.22345975745E+02  0.00000000000E+00 0.  1.
</event>
<event>
 6    1  0.1726037E-005  0.1400815E+03  0.7818608E-02  0.1344773E+00
          2   -1    0    0  502    0  0.00000000000E+00  0.00000000000E+00  0.78568505006E+02  0.78568505006E+02  0.00000000000E+00 0.  1.
          1   -1    0    0  501    0 -0.00000000000E+00 -0.00000000000E+00 -0.25281289269E+03  0.25281289269E+03  0.00000000000E+00 0. -1.
          2    1    1    2  501    0 -0.43094546897E+02 -0.61913926333E+02 -0.11031142257E+02  0.76237525836E+02  0.00000000000E+00 0.  1.
          1    1    1    2  502    0  0.38120770948E+02 -0.17790345357E+02 -0.22571955600E+02  0.47740787019E+02  0.00000000000E+00 0. -1.
         22    1    1    2    0    0  0.82318205152E+01  0.90559254077E+02 -0.16053938038E+03  0.18450375069E+03  0.00000000000E+00 0. -1.
         22    1    1    2    0    0 -0.32580445666E+01 -0.10854982388E+02  0.19898090548E+02  0.22899334150E+02  0.00000000000E+00 0.  1.
</event>
<event>
 6    1  0.1726037E-005  0.1031139E+03  0.7818608E-02  0.1318043E+00
          2   -1    0    0  502    0  0.00000000000E+00  0.00000000000E+00  0.47469238402E+03  0.47469238402E+03  0.00000000000E+00 0. -1.
          1   -1    0    0  501    0 -0.00000000000E+00 -0.00000000000E+00 -0.16906559656E+03  0.16906559656E+03  0.00000000000E+00 0.  1.
          2    1    1    2  501    0 -0.58875989144E+02 -0.17793866090E+03  0.24559220707E+03  0.30894025525E+03  0.00000000000E+00 0. -1.
          1    1    1    2  502    0  0.22798805066E+02  0.17751091607E+03 -0.27538678028E+02  0.18107537001E+03  0.00000000000E+00 0.  1.
         22    1    1    2    0    0  0.56633732502E+02 -0.14115766429E+02  0.10703682146E+03  0.12191601891E+03  0.00000000000E+00 0.  1.
         22    1    1    2    0    0 -0.20556548424E+02  0.14543511262E+02 -0.19463563044E+02  0.31826336410E+02  0.00000000000E+00 0. -1.
</event>
<event>
 6    1  0.3157559E-005  0.2379989E+03  0.7818608E-02  0.1235458E+00
          2   -1    0    0  502    0  0.00000000000E+00  0.00000000000E+00  0.98627776386E+03  0.98627776386E+03  0.00000000000E+00 0. -1.
          1   -1    0    0  501    0 -0.00000000000E+00 -0.00000000000E+00 -0.51489995164E+03  0.51489995164E+03  0.00000000000E+00 0.  1.
          2    1    1    2  501    0 -0.22416641344E+03 -0.29029143284E+00  0.93107445861E+03  0.95767965033E+03  0.00000000000E+00 0. -1.
          1    1    1    2  502    0  0.14013121553E+03 -0.76271840808E+01 -0.19862113829E+03  0.24319804292E+03  0.00000000000E+00 0.  1.
         22    1    1    2    0    0  0.82504631401E+02 -0.99837151472E+01 -0.26834434974E+03  0.28091881177E+03  0.00000000000E+00 0.  1.
         22    1    1    2    0    0  0.15305665021E+01  0.17901190661E+02  0.72688416369E+01  0.19381210479E+02  0.00000000000E+00 0. -1.
</event>
<event>
 6    1  0.1726037E-005  0.9646676E+02  0.7818608E-02  0.1389201E+00
          2   -1    0    0  502    0  0.00000000000E+00  0.00000000000E+00  0.11938418557E+03  0.11938418557E+03  0.00000000000E+00 0.  1.
          1   -1    0    0  501    0 -0.00000000000E+00 -0.00000000000E+00 -0.56845182872E+03  0.56845182872E+03  0.00000000000E+00 0.  1.
          2    1    1    2  501    0 -0.24381333778E+02 -0.21269041215E+02  0.57185949823E+02  0.65704295204E+02  0.00000000000E+00 0.  1.
          1    1    1    2  502    0  0.44988057558E+02  0.76804902239E+02 -0.47231534320E+03  0.48062948490E+03  0.00000000000E+00 0.  1.
         22    1    1    2    0    0 -0.34769293201E+02 -0.46928605743E+02  0.36678066415E+02  0.68967226584E+02  0.00000000000E+00 0. -1.
         22    1    1    2    0    0  0.14162569421E+02 -0.86072552804E+01 -0.70616316193E+02  0.72535007609E+02  0.00000000000E+00 0. -1.
</event>
<event>
 6    1  0.1726037E-005  0.9909566E+02  0.7818608E-02  0.1341111E+00
          2   -1    0    0  502    0  0.00000000000E+00  0.00000000000E+00  0.47269807648E+03  0.47269807648E+03  0.00000000000E+00 0. -1.
          1   -1    0    0  501    0 -0.00000000000E+00 -0.00000000000E+00 -0.16618504889E+03  0.16618504889E+03  0.00000000000E+00 0.  1.
          2    1    1    2  501    0  0.37124118790E+02  0.11352297062E+03  0.28123803206E+03  0.30554949800E+03  0.00000000000E+00 0. -1.
          1    1    1    2  502    0 -0.16420670234E+02 -0.73444757944E+02 -0.11845274314E+03  0.14033824582E+03  0.00000000000E+00 0.  1.
         22    1    1    2    0    0 -0.27465281254E+02 -0.20212648004E+02  0.16176725216E+03  0.16532252322E+03  0.00000000000E+00 0. -1.
         22    1    1    2    0    0  0.67618326981E+01 -0.19865564675E+02 -0.18039513479E+02  0.27672858324E+02  0.00000000000E+00 0.  1.
</event>
<event>
 6    1  0.1726037E-005  0.1636114E+03  0.7818608E-02  0.1239418E+00
          2   -1    0    0  502    0  0.00000000000E+00  0.00000000000E+00  0.10243019013E+04  0.10243019013E+04  0.00000000000E+00 0.  1.
          1   -1    0    0  501    0 -0.00000000000E+00 -0.00000000000E+00 -0.12779710360E+03  0.12779710360E+03  0.00000000000E+00 0. -1.
          2    1    1    2  501    0  0.90056569000E+02 -0.96107467235E+02  0.85817256723E+03  0.86822058604E+03  0.00000000000E+00 0.  1.
          1    1    1    2  502    0 -0.56983766655E+02  0.96475058717E+02 -0.54247394401E+02  0.12448841880E+03  0.00000000000E+00 0. -1.
         22    1    1    2    0    0 -0.16203626700E+02 -0.48369961058E+02  0.95665466834E+02  0.10841629119E+03  0.00000000000E+00 0. -1.
         22    1    1    2    0    0 -0.16869175645E+02  0.48002369575E+02 -0.30858420000E+01  0.50973708837E+02  0.00000000000E+00 0. -1.
</event>
<event>
 6    1  0.1726037E-005  0.1270080E+03  0.7818608E-02  0.1305587E+00
          2   -1    0    0  502    0  0.00000000000E+00  0.00000000000E+00  0.18904310241E+03  0.18904310241E+03  0.00000000000E+00 0. -1.
          1   -1    0    0  501    0 -0.00000000000E+00 -0.00000000000E+00 -0.31628947076E+03  0.31628947076E+03  0.00000000000E+00 0. -1.
          2    1    1    2  501    0 -0.88084064109E+02  0.83653376431E+02 -0.24407118549E+03  0.27263058032E+03  0.00000000000E+00 0. -1.
          1    1    1    2  502    0  0.35927820242E+02 -0.41199847011E+02  0.19772928170E+02  0.58130924209E+02  0.00000000000E+00 0. -1.
         22    1    1    2    0    0  0.54802521441E+01 -0.29962499665E+02  0.11802866648E+03  0.12189565481E+03  0.00000000000E+00 0. -1.
         22    1    1    2    0    0  0.46675991723E+02 -0.12491029755E+02 -0.20976777517E+02  0.52675413835E+02  0.00000000000E+00 0. -1.
</event>
<event>
 6    1  0.1726037E-005  0.8750276E+02  0.7818608E-02  0.1419676E+00
          2   -1    0    0  502    0  0.00000000000E+00  0.00000000000E+00  0.71288594528E+02  0.71288594528E+02  0.00000000000E+00 0.  1.
          1   -1    0    0  501    0 -0.00000000000E+00 -0.00000000000E+00 -0.11405305284E+04  0.11405305284E+04  0.00000000000E+00 0. -1.
          2    1    1    2  501    0  0.18811007237E+02 -0.12488755549E+02  0.42796449227E+01  0.22981261259E+02  0.00000000000E+00 0.  1.
          1    1    1    2  502    0 -0.78757313913E+02  0.45187433257E+02 -0.10333572521E+04  0.10373388208E+04  0.00000000000E+00 0. -1.
         22    1    1    2    0    0  0.52092156240E+02 -0.43981063698E+02 -0.82478616094E+02  0.10700770448E+03  0.00000000000E+00 0.  1.
         22    1    1    2    0    0  0.78541504364E+01  0.11282385991E+02  0.42314289489E+02  0.44491336322E+02  0.00000000000E+00 0.  1.
</event>
<event>
 6    1  0.1726037E-005  0.4903835E+02  0.7818608E-02  0.1531157E+00
          2   -1    0    0  502    0  0.00000000000E+00  0.00000000000E+00  0.63056919833E+02  0.63056919833E+02  0.00000000000E+00 0. -1.
          1   -1    0    0  501    0 -0.00000000000E+00 -0.00000000000E+00 -0.20123966490E+03  0.20123966490E+03  0.00000000000E+00 0. -1.
          2    1    1    2  501    0 -0.61327446464E+01 -0.50131410117E+02 -0.57300445350E-01  0.50505169246E+02  0.00000000000E+00 0. -1.
          1    1    1    2  502    0  0.94182602931E+01  0.22464246190E+02 -0.59874612986E+02  0.64639889110E+02  0.00000000000E+00 0. -1.
         22    1    1    2    0    0  0.10099022457E+02  0.18955358060E+02 -0.11081764741E+03  0.11287978929E+03  0.00000000000E+00 0.  1.
         22    1    1    2    0    0 -0.13384538104E+02  0.87118058671E+01  0.32566815772E+02  0.36271737086E+02  0.00000000000E+00 0.  1.
</event>
<event>
 6    1  0.1726037E-005  0.2953534E+02  0.7818608E-02  0.1604104E+00
          2   -1    0    0  502    0  0.00000000000E+00  0.00000000000E+00  0.11527693377E+03  0.11527693377E+03  0.00000000000E+00 0.  1.
          1   -1    0    0  501    0 -0.00000000000E+00 -0.00000000000E+00 -0.34781771522E+03  0.34781771522E+03  0.00000000000E+00 0.  1.
          2    1    1    2  501    0  0.55484559550E+02 -0.13213061779E+02  0.49976787270E+02  0.75834033361E+02  0.00000000000E+00 0.  1.
          1    1    1    2  502    0 -0.48020731395E+02  0.32298889347E+02 -0.25045223731E+03  0.25705161363E+03  0.00000000000E+00 0.  1.
         22    1    1    2    0    0  0.44378747005E+01 -0.12826796709E+02  0.47558640011E+02  0.49457513943E+02  0.00000000000E+00 0.  1.
         22    1    1    2    0    0 -0.11901702856E+02 -0.62590308586E+01 -0.79623971416E+02  0.80751488050E+02  0.00000000000E+00 0.  1.
</event>
<event>
 6    1  0.1726037E-005  0.8521446E+02  0.7818608E-02  0.1411994E+00
          2   -1    0    0  502    0  0.00000000000E+00  0.00000000000E+00  0.14368283654E+03  0.14368283654E+03  0.00000000000E+00 0. -1.
          1   -1    0    0  501    0 -0.00000000000E+00 -0.00000000000E+00 -0.18981803708E+03  0.18981803708E+03  0.00000000000E+00 0. -1.
          2    1    1    2  501    0 -0.39473159742E+02  0.79657777044E+02  0.63661468615E+02  0.10934475008E+03  0.00000000000E+00 0. -1.
          1    1    1    2  502    0  0.33983964389E+02 -0.32969051969E+02 -0.71139738339E+02  0.85456015553E+02  0.00000000000E+00 0. -1.
         22    1    1    2    0    0 -0.90202928450E+01 -0.14129635689E+02  0.44862422425E+02  0.47892058147E+02  0.00000000000E+00 0. -1.
         22    1    1    2    0    0  0.14509488198E+02 -0.32559089386E+02 -0.83519353248E+02  0.90808049844E+02  0.00000000000E+00 0. -1.
</event>
<event>
 6    1  0.1726037E-005  0.8727015E+02  0.7818608E-02  0.1389844E+00
          2   -1    0    0  502    0  0.00000000000E+00  0.00000000000E+00  0.45675534851E+03  0.45675534851E+03  0.00000000000E+00 0. -1.
          1   -1    0    0  501    0 -0.00000000000E+00 -0.00000000000E+00 -0.11446645361E+03  0.11446645361E+03  0.00000000000E+00 0.  1.
          2    1    1    2  501    0 -0.23714796584E+02  0.12708404195E+03  0.33855445346E+03  0.36239738307E+03  0.00000000000E+00 0. -1.
          1    1    1    2  502    0  0.35120814822E+00 -0.69387503879E+02  0.19386414180E+02  0.72045694504E+02  0.00000000000E+00 0.  1.
         22    1    1    2    0    0 -0.17525582206E+02 -0.13641712055E+01  0.42553962445E+02  0.46041793128E+02  0.00000000000E+00 0.  1.
         22    1    1    2    0    0  0.40889170642E+02 -0.56332366868E+02 -0.58205935181E+02  0.90736931418E+02  0.00000000000E+00 0.  1.
</event>
<event>
 6    1  0.1726037E-005  0.3574040E+02  0.7818608E-02  0.1555997E+00
          2   -1    0    0  502    0  0.00000000000E+00  0.00000000000E+00  0.20671542685E+03  0.20671542685E+03  0.00000000000E+00 0. -1.
          1   -1    0    0  501    0 -0.00000000000E+00 -0.00000000000E+00 -0.55143515463E+02  0.55143515463E+02  0.00000000000E+00 0.  1.
          2    1    1    2  501    0 -0.12339073914E+02  0.29974444249E+02  0.53065559367E+02  0.62182583125E+02  0.00000000000E+00 0. -1.
          1    1    1    2  502    0  0.22783058703E+02 -0.25306835573E+02 -0.97359327386E+01  0.35415986177E+02  0.00000000000E+00 0.  1.
         22    1    1    2    0    0 -0.19589963681E+02 -0.29674686093E+02 -0.14693467058E+02  0.38474038596E+02  0.00000000000E+00 0.  1.
         22    1    1    2    0    0  0.91459788925E+01  0.25007077416E+02  0.12293575181E+03  0.12578633441E+03  0.00000000000E+00 0. -1.
</event>
<event>
 6    1  0.1726037E-005  0.5363581E+02  0.7818608E-02  0.1471063E+00
          2   -1    0    0  502    0  0.00000000000E+00  0.00000000000E+00  0.66325161593E+02  0.66325161593E+02  0.00000000000E+00 0. -1.
          1   -1    0    0  501    0 -0.00000000000E+00 -0.00000000000E+00 -0.47148380633E+03  0.47148380633E+03  0.00000000000E+00 0. -1.
          2    1    1    2  501    0  0.32520369411E+02 -0.10336431498E+03 -0.25249388474E+03  0.27476338524E+03  0.00000000000E+00 0. -1.
          1    1    1    2  502    0 -0.26838188659E+02  0.68522439474E+02 -0.85518795243E+02  0.11282321313E+03  0.00000000000E+00 0. -1.
         22    1    1    2    0    0 -0.16946277958E+02  0.33273729039E+01  0.36999604489E+02  0.40831586785E+02  0.00000000000E+00 0. -1.
         22    1    1    2    0    0  0.11264097206E+02  0.31514502606E+02 -0.10414556924E+03  0.10939078276E+03  0.00000000000E+00 0. -1.
</event>
<event>
 6    1  0.1726037E-005  0.3247735E+02  0.7818608E-02  0.1580127E+00
          2   -1    0    0  502    0  0.00000000000E+00  0.00000000000E+00  0.10309865118E+03  0.10309865118E+03  0.00000000000E+00 0. -1.
          1   -1    0    0  501    0 -0.00000000000E+00 -0.00000000000E+00 -0.32516833818E+03  0.32516833818E+03  0.00000000000E+00 0. -1.
          2    1    1    2  501    0  0.40634475650E+02  0.55622580737E+02 -0.31133963356E+02  0.75593357999E+02  0.00000000000E+00 0. -1.
          1    1    1    2  502    0 -0.43616990774E+02 -0.62748378806E+02 -0.21389744648E+03  0.22713854481E+03  0.00000000000E+00 0. -1.
         22    1    1    2    0    0 -0.93785844865E+01  0.11585822561E+02 -0.49600834785E+02  0.51792199633E+02  0.00000000000E+00 0. -1.
         22    1    1    2    0    0  0.12361099610E+02 -0.44600244918E+01  0.72562557620E+02  0.73742886914E+02  0.00000000000E+00 0. -1.
</event>
<event>
 6    1  0.1726037E-005  0.4780415E+02  0.7818608E-02  0.1504351E+00
          2   -1    0    0  502    0  0.00000000000E+00  0.00000000000E+00  0.22423576657E+03  0.22423576657E+03  0.00000000000E+00 0. -1.
          1   -1    0    0  501    0 -0.00000000000E+00 -0.00000000000E+00 -0.11214819851E+03  0.11214819851E+03  0.00000000000E+00 0.  1.
          2    1    1    2  501    0 -0.36974705652E+02  0.26379933517E+01  0.15448745514E+03  0.15887246981E+03  0.00000000000E+00 0. -1.
          1    1    1    2  502    0  0.27955799422E+02 -0.30911609103E+02 -0.10836060476E+02  0.43063609989E+02  0.00000000000E+00 0.  1.
         22    1    1    2    0    0  0.15889695928E+02  0.18909749716E+02 -0.80473242342E+02  0.84178404618E+02  0.00000000000E+00 0.  1.
         22    1    1    2    0    0 -0.68707896980E+01  0.93638660352E+01  0.48909415737E+02  0.50269480661E+02  0.00000000000E+00 0.  1.
</event>
<event>
 6    1  0.1726037E-005  0.4315715E+02  0.7818608E-02  0.1511682E+00
          2   -1    0    0  502    0  0.00000000000E+00  0.00000000000E+00  0.12232920523E+03  0.12232920523E+03  0.00000000000E+00 0.  1.
          1   -1    0    0  501    0 -0.00000000000E+00 -0.00000000000E+00 -0.60050556550E+03  0.60050556550E+03  0.00000000000E+00 0.  1.
          2    1    1    2  501    0 -0.11363829675E+02  0.10385421249E+03  0.26738018436E+02  0.10784134507E+03  0.00000000000E+00 0.  1.
          1    1    1    2  502    0 -0.13854412210E+02 -0.99145491317E+02 -0.47638903751E+03  0.48679388682E+03  0.00000000000E+00 0.  1.
         22    1    1    2    0    0  0.11062923848E+02  0.50897587653E+01  0.48123881983E+02  0.49640728696E+02  0.00000000000E+00 0.  1.
         22    1    1    2    0    0  0.14155318037E+02 -0.97984799331E+01 -0.76649223178E+02  0.78558810146E+02  0.00000000000E+00 0.  1.
</event>
<event>
 6    1  0.1726037E-005  0.7426010E+02  0.7818608E-02  0.1348258E+00
          2   -1    0    0  502    0  0.00000000000E+00  0.00000000000E+00  0.34553836128E+03  0.34553836128E+03  0.00000000000E+00 0. -1.
          1   -1    0    0  501    0 -0.00000000000E+00 -0.00000000000E+00 -0.13098343858E+03  0.13098343858E+03  0.00000000000E+00 0.  1.
          2    1    1    2  501    0 -0.53516507049E+02 -0.19449228389E+02  0.29380551625E+03  0.29927240165E+03  0.00000000000E+00 0. -1.
          1    1    1    2  502    0  0.24816516325E+02  0.19617392240E+02 -0.29368634914E+02  0.43165012192E+02  0.00000000000E+00 0.  1.
         22    1    1    2    0    0 -0.77618077483E+01 -0.10390909851E+02  0.37054438869E+02  0.39258732875E+02  0.00000000000E+00 0. -1.
         22    1    1    2    0    0  0.36461798473E+02  0.10222745999E+02 -0.86936397506E+02  0.94825653148E+02  0.00000000000E+00 0.  1.
</event>
<event>
 6    1  0.1726037E-005  0.2869008E+02  0.7818608E-02  0.1648313E+00
          2   -1    0    0  502    0  0.00000000000E+00  0.00000000000E+00  0.15231193085E+03  0.15231193085E+03  0.00000000000E+00 0. -1.
          1   -1    0    0  501    0 -0.00000000000E+00 -0.00000000000E+00 -0.38315141590E+03  0.38315141590E+03  0.00000000000E+00 0.  1.
          2    1    1    2  501    0  0.22807385110E+02  0.32892496914E+02  0.10595032471E+03  0.11325883839E+03  0.00000000000E+00 0. -1.
          1    1    1    2  502    0  0.60257105505E+01 -0.36992253243E+02 -0.28522117780E+03  0.28767317611E+03  0.00000000000E+00 0.  1.
         22    1    1    2    0    0 -0.10004193540E+02  0.80468873914E+01  0.39457859829E+02  0.41494083764E+02  0.00000000000E+00 0. -1.
         22    1    1    2    0    0 -0.18828902121E+02 -0.39471310624E+01 -0.91026491787E+02  0.93037248486E+02  0.00000000000E+00 0.  1.
</event>
<event>
 6    1  0.1726037E-005  0.1861424E+03  0.7818608E-02  0.1283970E+00
          2   -1    0    0  502    0  0.00000000000E+00  0.00000000000E+00  0.32324563105E+03  0.32324563105E+03  0.00000000000E+00 0. -1.
          1   -1    0    0  501    0 -0.00000000000E+00 -0.00000000000E+00 -0.49708283232E+03  0.49708283232E+03  0.00000000000E+00 0.  1.
          2    1    1    2  501    0  0.86801092865E+02  0.16948546193E+03  0.23260807543E+03  0.30060982732E+03  0.00000000000E+00 0. -1.
          1    1    1    2  502    0 -0.78819074177E+02 -0.12499600997E+03 -0.33817874334E+03  0.36905461847E+03  0.00000000000E+00 0.  1.
         22    1    1    2    0    0 -0.12233639660E+02 -0.77109494621E+01  0.36653636006E+02  0.39403168825E+02  0.00000000000E+00 0. -1.
         22    1    1    2    0    0  0.42516209728E+01 -0.36778502498E+02 -0.10492016936E+03  0.11126084875E+03  0.00000000000E+00 0. -1.
</event>
<event>
 6    1  0.1726037E-005  0.7789070E+02  0.7818608E-02  0.1400718E+00
          2   -1    0    0  502    0  0.00000000000E+00  0.00000000000E+00  0.33504882264E+03  0.33504882264E+03  0.00000000000E+00 0. -1.
          1   -1    0    0  501    0 -0.00000000000E+00 -0.00000000000E+00 -0.19335137775E+03  0.19335137775E+03  0.00000000000E+00 0. -1.
          2    1    1    2  501    0 -0.64614117842E+02  0.38340897798E+02  0.23174631927E+03  0.24362135613E+03  0.00000000000E+00 0. -1.
          1    1    1    2  502    0  0.46996137141E+02  0.27627199816E+01 -0.13600827294E+03  0.14392539677E+03  0.00000000000E+00 0. -1.
         22    1    1    2    0    0  0.23012639706E+02 -0.15466581176E+02 -0.41301012857E+02  0.49745053850E+02  0.00000000000E+00 0.  1.
         22    1    1    2    0    0 -0.53946590046E+01 -0.25637036604E+02  0.87260411410E+02  0.91108393637E+02  0.00000000000E+00 0.  1.
</event>
<event>
 6    1  0.1726037E-005  0.3991879E+02  0.7818608E-02  0.1586645E+00
          2   -1    0    0  502    0  0.00000000000E+00  0.00000000000E+00  0.21882776759E+03  0.21882776759E+03  0.00000000000E+00 0. -1.
          1   -1    0    0  501    0 -0.00000000000E+00 -0.00000000000E+00 -0.95332455201E+02  0.95332455201E+02  0.00000000000E+00 0. -1.
          2    1    1    2  501    0  0.58758521792E+01 -0.30882023321E+02  0.75314538046E+02  0.81611914843E+02  0.00000000000E+00 0. -1.
          1    1    1    2  502    0  0.12264639276E+02 -0.17410961737E+02 -0.56208960483E+02  0.60108320587E+02  0.00000000000E+00 0. -1.
         22    1    1    2    0    0 -0.13152237601E+02 -0.64153205869E+01 -0.26620901258E+02  0.30377789188E+02  0.00000000000E+00 0. -1.
         22    1    1    2    0    0 -0.49882538537E+01  0.54708305645E+02  0.13101063609E+03  0.14206219818E+03  0.00000000000E+00 0. -1.
</event>
<event>
 6    1  0.1726037E-005  0.9941216E+02  0.7818608E-02  0.1306688E+00
          2   -1    0    0  502    0  0.00000000000E+00  0.00000000000E+00  0.62544768332E+03  0.62544768332E+03  0.00000000000E+00 0. -1.
          1   -1    0    0  501    0 -0.00000000000E+00 -0.00000000000E+00 -0.77684749854E+02  0.77684749854E+02  0.00000000000E+00 0. -1.
          2    1    1    2  501    0 -0.12138730100E+03 -0.92911562679E+02  0.18227170894E+03  0.23788739185E+03  0.00000000000E+00 0. -1.
          1    1    1    2  502    0  0.14326016057E+03  0.61764531603E+02  0.22415658457E+03  0.27310163927E+03  0.00000000000E+00 0. -1.
         22    1    1    2    0    0 -0.63332933902E+02  0.34466884036E+02  0.13060849352E+03  0.14918982938E+03  0.00000000000E+00 0. -1.
         22    1    1    2    0    0  0.41460074332E+02 -0.33198529603E+01  0.10726146444E+02  0.42953572666E+02  0.00000000000E+00 0.  1.
</event>
<event>
 6    1  0.1726037E-005  0.7276814E+02  0.7818608E-02  0.1350960E+00
          2   -1    0    0  502    0  0.00000000000E+00  0.00000000000E+00  0.96006231985E+02  0.96006231985E+02  0.00000000000E+00 0. -1.
          1   -1    0    0  501    0 -0.00000000000E+00 -0.00000000000E+00 -0.60569332685E+03  0.60569332685E+03  0.00000000000E+00 0.  1.
          2    1    1    2  501    0  0.28123656890E+02 -0.21902564433E+02  0.46513835427E+02  0.58602041703E+02  0.00000000000E+00 0. -1.
          1    1    1    2  502    0 -0.48953516251E+02  0.28125394420E+02 -0.50846471695E+03  0.51158953561E+03  0.00000000000E+00 0.  1.
         22    1    1    2    0    0  0.34078179013E+02 -0.12916071578E+02  0.33153530293E+02  0.49267674602E+02  0.00000000000E+00 0. -1.
         22    1    1    2    0    0 -0.13248319652E+02  0.66932415908E+01 -0.80889743634E+02  0.82240306917E+02  0.00000000000E+00 0. -1.
</event>
<event>
 6    1  0.1726037E-005  0.9884000E+02  0.7818608E-02  0.1374176E+00
          2   -1    0    0  502    0  0.00000000000E+00  0.00000000000E+00  0.90166190913E+03  0.90166190913E+03  0.00000000000E+00 0.  1.
          1   -1    0    0  501    0 -0.00000000000E+00 -0.00000000000E+00 -0.78928479906E+02  0.78928479906E+02  0.00000000000E+00 0.  1.
          2    1    1    2  501    0 -0.10470568863E+03  0.29773954621E+02  0.78617607327E+03  0.79367662672E+03  0.00000000000E+00 0.  1.
          1    1    1    2  502    0  0.30351508356E+02 -0.19300803805E+02 -0.72843590947E+01  0.36698732600E+02  0.00000000000E+00 0.  1.
         22    1    1    2    0    0  0.13436095008E+02 -0.14371901548E+02  0.77877858556E+02  0.80324598079E+02  0.00000000000E+00 0. -1.
         22    1    1    2    0    0  0.60918085268E+02  0.38987507321E+01 -0.34036143511E+02  0.69890431642E+02  0.00000000000E+00 0.  1.
</event>
<event>
 6    1  0.1726037E-005  0.1499613E+03  0.7818608E-02  0.1307702E+00
          2   -1    0    0  502    0  0.00000000000E+00  0.00000000000E+00  0.10514033020E+04  0.10514033020E+04  0.00000000000E+00 0.  1.
          1   -1    0    0  501    0 -0.00000000000E+00 -0.00000000000E+00 -0.13809174841E+03  0.13809174841E+03  0.00000000000E+00 0. -1.
          2    1    1    2  501    0 -0.92291320064E+01 -0.36739573431E+02  0.84396418807E+03  0.84481389896E+03  0.00000000000E+00 0.  1.
          1    1    1    2  502    0  0.14335392192E+03  0.54931702515E+02  0.44077462842E+02  0.15972057351E+03  0.00000000000E+00 0. -1.
         22    1    1    2    0    0 -0.14992313118E+03 -0.99827846677E+01 -0.44442530758E+01  0.15032083235E+03  0.00000000000E+00 0. -1.
         22    1    1    2    0    0  0.15798341268E+02 -0.82093444159E+01  0.29714155801E+02  0.34639745633E+02  0.00000000000E+00 0. -1.
</event>
<event>
 6    1  0.1726037E-005  0.5328090E+02  0.7818608E-02  0.1530570E+00
          2   -1    0    0  502    0  0.00000000000E+00  0.00000000000E+00  0.96004064250E+02  0.96004064250E+02  0.00000000000E+00 0.  1.
          1   -1    0    0  501    0 -0.00000000000E+00 -0.00000000000E+00 -0.10774511390E+03  0.10774511390E+03  0.00000000000E+00 0. -1.
          2    1    1    2  501    0 -0.33999367342E+02 -0.14775279759E+02  0.29346804649E+02  0.47281083053E+02  0.00000000000E+00 0.  1.
          1    1    1    2  502    0  0.20385497595E+02 -0.96147796386E-01 -0.20691835021E+02  0.29047027269E+02  0.00000000000E+00 0. -1.
         22    1    1    2    0    0 -0.10766562616E+02 -0.64434707868E+01  0.49138547460E+02  0.50715224863E+02  0.00000000000E+00 0.  1.
         22    1    1    2    0    0  0.24380432363E+02  0.21314898342E+02 -0.69534566734E+02  0.76705842961E+02  0.00000000000E+00 0. -1.
</event>
<event>
 6    1  0.1726037E-005  0.3810120E+02  0.7818608E-02  0.1570090E+00
          2   -1    0    0  502    0  0.00000000000E+00  0.00000000000E+00  0.15288705095E+03  0.15288705095E+03  0.00000000000E+00 0. -1.
          1   -1    0    0  501    0 -0.00000000000E+00 -0.00000000000E+00 -0.19281615256E+03  0.19281615256E+03  0.00000000000E+00 0. -1.
          2    1    1    2  501    0 -0.18823670488E+02  0.60443514717E+02  0.61370074831E+02  0.88170488979E+02  0.00000000000E+00 0. -1.
          1    1    1    2  502    0  0.51429438295E+01 -0.48831329181E+02 -0.12351469996E+03  0.13291662683E+03  0.00000000000E+00 0. -1.
         22    1    1    2    0    0 -0.12169064812E+02 -0.71680239384E+01 -0.47803195421E+02  0.49845884464E+02  0.00000000000E+00 0. -1.
         22    1    1    2    0    0  0.25849791471E+02 -0.44441615968E+01  0.70018718941E+02  0.74770203247E+02  0.00000000000E+00 0. -1.
</event>
<event>
 6    1  0.1726037E-005  0.6322578E+02  0.7818608E-02  0.1434597E+00
          2   -1    0    0  502    0  0.00000000000E+00  0.00000000000E+00  0.22900219383E+03  0.22900219383E+03  0.00000000000E+00 0. -1.
          1   -1    0    0  501    0 -0.00000000000E+00 -0.00000000000E+00 -0.16878130144E+03  0.16878130144E+03  0.00000000000E+00 0.  1.
          2    1    1    2  501    0  0.50213981185E+00 -0.82788584674E+02  0.45157982893E+02  0.94305065165E+02  0.00000000000E+00 0. -1.
          1    1    1    2  502    0 -0.43725954776E+00  0.47208082660E+02 -0.11246051791E+03  0.12196787427E+03  0.00000000000E+00 0.  1.
         22    1    1    2    0    0 -0.10628302938E+02  0.85340417286E+01 -0.23799859185E+02  0.27426702113E+02  0.00000000000E+00 0.  1.
         22    1    1    2    0    0  0.10563422673E+02  0.27046460286E+02  0.15132328659E+03  0.15408385372E+03  0.00000000000E+00 0. -1.
</event>
<event>
 6    1  0.1726037E-005  0.4626675E+02  0.7818608E-02  0.1468343E+00
          2   -1    0    0  502    0  0.00000000000E+00  0.00000000000E+00  0.25934086431E+03  0.25934086431E+03  0.00000000000E+00 0.  1.
          1   -1    0    0  501    0 -0.00000000000E+00 -0.00000000000E+00 -0.17233315385E+03  0.17233315385E+03  0.00000000000E+00 0.  1.
          2    1    1    2  501    0  0.25930483015E+02  0.14787285804E+02  0.16834735290E+03  0.17097334587E+03  0.00000000000E+00 0.  1.
          1    1    1    2  502    0 -0.28639489733E+02 -0.12984494333E+02 -0.12416149722E+03  0.12808159453E+03  0.00000000000E+00 0.  1.
         22    1    1    2    0    0  0.16142671363E+02 -0.28303471514E+01  0.85917434685E+02  0.87466578111E+02  0.00000000000E+00 0. -1.
         22    1    1    2    0    0 -0.13433664646E+02  0.10275556801E+01 -0.43095579904E+02  0.45152499640E+02  0.00000000000E+00 0. -1.
</event>
<event>
 6    1  0.1726037E-005  0.1145060E+03  0.7818608E-02  0.1302911E+00
          2   -1    0    0  502    0  0.00000000000E+00  0.00000000000E+00  0.54361333791E+03  0.54361333791E+03  0.00000000000E+00 0.  1.
          1   -1    0    0  501    0 -0.00000000000E+00 -0.00000000000E+00 -0.42327021136E+02  0.42327021136E+02  0.00000000000E+00 0.  1.
          2    1    1    2  501    0 -0.88277697403E+02 -0.59865468535E+02  0.22355656677E+03  0.24769813226E+03  0.00000000000E+00 0.  1.
          1    1    1    2  502    0  0.43437528869E+01 -0.22575500967E+02  0.38398593841E+02  0.44754591295E+02  0.00000000000E+00 0.  1.
         22    1    1    2    0    0  0.38551462487E+02  0.20479044272E+02  0.20458370594E+03  0.20918914707E+03  0.00000000000E+00 0.  1.
         22    1    1    2    0    0  0.45382482028E+02  0.61961925230E+02  0.34747450228E+02  0.84298488425E+02  0.00000000000E+00 0.  1.
</event>
<event>
 6    1  0.1726037E-005  0.4449536E+02  0.7818608E-02  0.1523356E+00
          2   -1    0    0  502    0  0.00000000000E+00  0.00000000000E+00  0.11876982831E+03  0.11876982831E+03  0.00000000000E+00 0. -1.
          1   -1    0    0  501    0 -0.00000000000E+00 -0.00000000000E+00 -0.41680822304E+03  0.41680822304E+03  0.00000000000E+00 0. -1.
          2    1    1    2  501    0  0.53079640357E+02  0.17838992063E+02  0.62315921139E+02  0.83779185277E+02  0.00000000000E+00 0. -1.
          1    1    1    2  502    0 -0.67056597895E+02 -0.27369161549E+01 -0.30788951535E+03  0.31511907542E+03  0.00000000000E+00 0. -1.
         22    1    1    2    0    0  0.70939152857E+01  0.14108109661E+02  0.38115710576E+02  0.41257360374E+02  0.00000000000E+00 0. -1.
         22    1    1    2    0    0  0.68830422522E+01 -0.29210185569E+02 -0.90580511100E+02  0.95422430291E+02  0.00000000000E+00 0.  1.
</event>
<event>
 6    1  0.1726037E-005  0.5936519E+02  0.7818608E-02  0.1404171E+00
          2   -1    0    0  502    0  0.00000000000E+00  0.00000000000E+00  0.18565679578E+03  0.18565679578E+03  0.00000000000E+00 0.  1.
          1   -1    0    0  501    0 -0.00000000000E+00 -0.00000000000E+00 -0.36510511101E+03  0.36510511101E+03  0.00000000000E+00 0. -1.
          2    1    1    2  501    0  0.96187183546E+02 -0.88570707949E+02  0.45164285034E+02  0.13833494579E+03  0.00000000000E+00 0.  1.
          1    1    1    2  502    0 -0.11061909177E+03  0.83888587866E+02 -0.24840977556E+03  0.28457212659E+03  0.00000000000E+00 0. -1.
         22    1    1    2    0    0  0.30651278771E+01  0.24474457304E+02 -0.47212403101E+02  0.53267298371E+02  0.00000000000E+00 0. -1.
         22    1    1    2    0    0  0.11366780344E+02 -0.19792337221E+02  0.71009578395E+02  0.74587536036E+02  0.00000000000E+00 0. -1.
</event>
<event>
 6    1  0.1726037E-005  0.7480928E+02  0.7818608E-02  0.1351818E+00
          2   -1    0    0  502    0  0.00000000000E+00  0.00000000000E+00  0.18522403187E+03  0.18522403187E+03  0.00000000000E+00 0.  1.
          1   -1    0    0  501    0 -0.00000000000E+00 -0.00000000000E+00 -0.26183194401E+03  0.26183194401E+03  0.00000000000E+00 0.  1.
          2    1    1    2  501    0  0.10324447563E+03 -0.11850002731E+03 -0.73812158774E+01  0.15734090558E+03  0.00000000000E+00 0.  1.
          1    1    1    2  502    0 -0.93752424331E+02  0.12404110364E+03 -0.30882039265E+02  0.15852259400E+03  0.00000000000E+00 0.  1.
         22    1    1    2    0    0 -0.45289213312E+01  0.31270109313E+02 -0.73528616355E+02  0.80029921205E+02  0.00000000000E+00 0.  1.
         22    1    1    2    0    0 -0.49631299715E+01 -0.36811185642E+02  0.35183959354E+02  0.51162555090E+02  0.00000000000E+00 0.  1.
</event>
<event>
 6    1  0.1726037E-005  0.7262643E+02  0.7818608E-02  0.1410757E+00
          2   -1    0    0  502    0  0.00000000000E+00  0.00000000000E+00  0.31647131724E+03  0.31647131724E+03  0.00000000000E+00 0.  1.
          1   -1    0    0  501    0 -0.00000000000E+00 -0.00000000000E+00 -0.16004903553E+03  0.16004903553E+03  0.00000000000E+00 0. -1.
          2    1    1    2  501    0  0.43985997114E+02 -0.15922559151E+02  0.24772537101E+03  0.25210346145E+03  0.00000000000E+00 0.  1.
          1    1    1    2  502    0 -0.24973047774E+02  0.35517775905E+02 -0.87100327215E+02  0.97322312556E+02  0.00000000000E+00 0. -1.
         22    1    1    2    0    0  0.10326170072E+02 -0.25600747450E+02  0.54557088114E+02  0.61143306435E+02  0.00000000000E+00 0.  1.
         22    1    1    2    0    0 -0.29339119412E+02  0.60055306956E+01 -0.58759850199E+02  0.65951272333E+02  0.00000000000E+00 0.  1.
</event>
<event>
 6    1  0.1726037E-005  0.5356169E+02  0.7818608E-02  0.1437652E+00
          2   -1    0    0  502    0  0.00000000000E+00  0.00000000000E+00  0.23059081966E+03  0.23059081966E+03  0.00000000000E+00 0.  1.
          1   -1    0    0  501    0 -0.00000000000E+00 -0.00000000000E+00 -0.94104717304E+02  0.94104717304E+02  0.00000000000E+00 0.  1.
          2    1    1    2  501    0  0.34851186468E+02  0.23056014946E+02 -0.95400462198E+01  0.42862541983E+02  0.00000000000E+00 0.  1.
          1    1    1    2  502    0 -0.54651054224E+02  0.10293697229E+02 -0.30262405803E+02  0.63312803882E+02  0.00000000000E+00 0.  1.
         22    1    1    2    0    0 -0.13345753593E+02 -0.20096003121E+01 -0.15978704607E+02  0.20915703032E+02  0.00000000000E+00 0.  1.
         22    1    1    2    0    0  0.33145621349E+02 -0.31340111863E+02  0.19226725898E+03  0.19760448806E+03  0.00000000000E+00 0.  1.
</event>
<event>
 6    1  0.1726037E-005  0.4121029E+02  0.7818608E-02  0.1549140E+00
          2   -1    0    0  502    0  0.00000000000E+00  0.00000000000E+00  0.17978637719E+02  0.17978637719E+02  0.00000000000E+00 0. -1.
          1   -1    0    0  501    0 -0.00000000000E+00 -0.00000000000E+00 -0.66970806845E+03  0.66970806845E+03  0.00000000000E+00 0. -1.
          2    1    1    2  501    0 -0.21347660197E+02 -0.14930980160E+02 -0.33951676830E+02  0.42794545494E+02  0.00000000000E+00 0. -1.
          1    1    1    2  502    0 -0.31401821533E+02  0.11950509468E+02 -0.27974357155E+03  0.28175406811E+03  0.00000000000E+00 0. -1.
         22    1    1    2    0    0 -0.19133872770E+02  0.93433464539E+01 -0.43414045216E+01  0.21731336897E+02  0.00000000000E+00 0. -1.
         22    1    1    2    0    0  0.71883354500E+02 -0.63628757623E+01 -0.33369277783E+03  0.34140675567E+03  0.00000000000E+00 0. -1.
</event>
<event>
 6    1  0.1726037E-005  0.7080516E+02  0.7818608E-02  0.1374856E+00
          2   -1    0    0  502    0  0.00000000000E+00  0.00000000000E+00  0.53841404448E+03  0.53841404448E+03  0.00000000000E+00 0.  1.
          1   -1    0    0  501    0 -0.00000000000E+00 -0.00000000000E+00 -0.73906363413E+02  0.73906363413E+02  0.00000000000E+00 0.  1.
          2    1    1    2  501    0 -0.86581149637E+02 -0.21164531452E+02  0.36830645632E+03  0.37893782951E+03  0.00000000000E+00 0.  1.
          1    1    1    2  502    0  0.21689283385E+02 -0.60134645549E+01 -0.31407830891E+02  0.38639857803E+02  0.00000000000E+00 0.  1.
         22    1    1    2    0    0  0.25027071873E+02 -0.14642311561E+02 -0.20667349577E+02  0.35607456423E+02  0.00000000000E+00 0.  1.
         22    1    1    2    0    0  0.39864794379E+02  0.41820307568E+02  0.14827640522E+03  0.15913526416E+03  0.00000000000E+00 0.  1.
</event>
<event>
 6    1  0.1726037E-005  0.1010292E+03  0.7818608E-02  0.1369380E+00
          2   -1    0    0  502    0  0.00000000000E+00  0.00000000000E+00  0.96110467096E+02  0.96110467096E+02  0.00000000000E+00 0.  1.
          1   -1    0    0  501    0 -0.00000000000E+00 -0.00000000000E+00 -0.47008139134E+03  0.47008139134E+03  0.00000000000E+00 0.  1.
          2    1    1    2  501    0  0.10864372667E+03 -0.40392755185E+02 -0.36702578931E+01  0.11596768864E+03  0.00000000000E+00 0.  1.
          1    1    1    2  502    0 -0.73823915521E+02  0.21218370164E+02 -0.27947874056E+03  0.28984229533E+03  0.00000000000E+00 0.  1.
         22    1    1    2    0    0 -0.18915244098E+02  0.63133012212E+01  0.30997254476E+02  0.36857482506E+02  0.00000000000E+00 0. -1.
         22    1    1    2    0    0 -0.15904567047E+02  0.12861083800E+02 -0.12181918027E+03  0.12352439197E+03  0.00000000000E+00 0. -1.
</event>
<event>
 6    1  0.1726037E-005  0.3606502E+02  0.7818608E-02  0.1567061E+00
          2   -1    0    0  502    0  0.00000000000E+00  0.00000000000E+00  0.15465899862E+03  0.15465899862E+03  0.00000000000E+00 0.  1.
          1   -1    0    0  501    0 -0.00000000000E+00 -0.00000000000E+00 -0.75157957737E+03  0.75157957737E+03  0.00000000000E+00 0. -1.
          2    1    1    2  501    0  0.77732681086E+01  0.66342594910E+02  0.71897780907E+02  0.98137936069E+02  0.00000000000E+00 0.  1.
          1    1    1    2  502    0  0.11011716316E+02 -0.74930514818E+02 -0.67609915175E+03  0.68032779081E+03  0.00000000000E+00 0. -1.
         22    1    1    2    0    0 -0.10165409619E+02 -0.52822419054E+01 -0.58696819618E+02  0.59804299724E+02  0.00000000000E+00 0. -1.
         22    1    1    2    0    0 -0.86195748053E+01  0.13870161813E+02  0.65977611708E+02  0.67968549383E+02  0.00000000000E+00 0. -1.
</event>
<event>
 6    1  0.1726037E-005  0.3771290E+02  0.7818608E-02  0.1551043E+00
          2   -1    0    0  502    0  0.00000000000E+00  0.00000000000E+00  0.11760720664E+03  0.11760720664E+03  0.00000000000E+00 0. -1.
          1   -1    0    0  501    0 -0.00000000000E+00 -0.00000000000E+00 -0.10801140023E+03  0.10801140023E+03  0.00000000000E+00 0. -1.
          2    1    1    2  501    0  0.10627826635E+02  0.26168787658E+02  0.41380035028E+02  0.50100533384E+02  0.00000000000E+00 0. -1.
          1    1    1    2  502    0  0.26292422789E+02 -0.10389806981E+02 -0.39014007522E+02  0.48180207224E+02  0.00000000000E+00 0. -1.
         22    1    1    2    0    0  0.11739617243E+02 -0.31841642720E+00 -0.49582488800E+02  0.50954324622E+02  0.00000000000E+00 0. -1.
         22    1    1    2    0    0 -0.48659866666E+02 -0.15460564249E+02  0.56812267711E+02  0.76383541639E+02  0.00000000000E+00 0. -1.
</event>
<event>
 6    1  0.1726037E-005  0.8319318E+02  0.7818608E-02  0.1416203E+00
          2   -1    0    0  502    0  0.00000000000E+00  0.00000000000E+00  0.59840256147E+03  0.59840256147E+03  0.00000000000E+00 0.  1.
          1   -1    0    0  501    0 -0.00000000000E+00 -0.00000000000E+00 -0.53254999824E+02  0.53254999824E+02  0.00000000000E+00 0. -1.
          2    1    1    2  501    0  0.30771531914E+02 -0.32703477600E+02  0.48515084786E+03  0.48722453736E+03  0.00000000000E+00 0.  1.
          1    1    1    2  502    0 -0.21530880379E+02  0.78864830342E+01  0.18730803857E+02  0.29607742867E+02  0.00000000000E+00 0. -1.
         22    1    1    2    0    0 -0.11546093548E+02  0.41535366838E+02 -0.35735725878E+02  0.55995902338E+02  0.00000000000E+00 0. -1.
         22    1    1    2    0    0  0.23054420139E+01 -0.16718372272E+02  0.77001635807E+02  0.78829378732E+02  0.00000000000E+00 0. -1.
</event>
<event>
 6    1  0.1726037E-005  0.4789895E+02  0.7818608E-02  0.1506688E+00
          2   -1    0    0  502    0  0.00000000000E+00  0.00000000000E+00  0.11893137135E+03  0.11893137135E+03  0.00000000000E+00 0. -1.
          1   -1    0    0  501    0 -0.00000000000E+00 -0.00000000000E+00 -0.47146797828E+03  0.47146797828E+03  0.00000000000E+00 0. -1.
          2    1    1    2  501    0 -0.87022652916E+02  0.63717495879E+02  0.36004743727E+02  0.11370665316E+03  0.00000000000E+00 0. -1.
          1    1    1    2  502    0  0.75002135003E+02 -0.41188488486E+02 -0.32688117463E+03  0.33789512303E+03  0.00000000000E+00 0. -1.
         22    1    1    2    0    0  0.48532221034E+00 -0.23284582026E+02 -0.97965745794E+02  0.10069605080E+03  0.00000000000E+00 0. -1.
         22    1    1    2    0    0  0.11535195702E+02  0.75557463317E+00  0.36305569757E+02  0.38101522651E+02  0.00000000000E+00 0. -1.
</event>
<event>
 6    1  0.1726037E-005  0.9080774E+02  0.7818608E-02  0.1400264E+00
          2   -1    0    0  502    0  0.00000000000E+00  0.00000000000E+00  0.17283478916E+03  0.17283478916E+03  0.00000000000E+00 0.  1.
          1   -1    0    0  501    0 -0.00000000000E+00 -0.00000000000E+00 -0.53629571843E+03  0.53629571843E+03  0.00000000000E+00 0.  1.
          2    1    1    2  501    0 -0.25266358914E+02  0.11854158108E+03 -0.22031793832E+02  0.12319048372E+03  0.00000000000E+00 0.  1.
          1    1    1    2  502    0 -0.10675253111E+02 -0.33032625175E+02 -0.41242250040E+03  0.41388094205E+03  0.00000000000E+00 0.  1.
         22    1    1    2    0    0 -0.10056407124E+02 -0.13273216706E+02 -0.33227722036E+02  0.37167070340E+02  0.00000000000E+00 0.  1.
         22    1    1    2    0    0  0.45998019148E+02 -0.72235739203E+02  0.10422108700E+03  0.13489201148E+03  0.00000000000E+00 0.  1.
</event>
<event>
 6    1  0.1726037E-005  0.7069946E+02  0.7818608E-02  0.1466293E+00
          2   -1    0    0  502    0  0.00000000000E+00  0.00000000000E+00  0.13130574150E+03  0.13130574150E+03  0.00000000000E+00 0. -1.
          1   -1    0    0  501    0 -0.00000000000E+00 -0.00000000000E+00 -0.90514655538E+02  0.90514655538E+02  0.00000000000E+00 0.  1.
          2    1    1    2  501    0  0.10262634447E+02 -0.41586576607E+02  0.56860446627E+02  0.71189011865E+02  0.00000000000E+00 0. -1.
          1    1    1    2  502    0  0.94308328654E+01  0.18390642364E+02 -0.20533274508E+01  0.20769508629E+02  0.00000000000E+00 0.  1.
         22    1    1    2    0    0 -0.26635029693E+02  0.34212764314E+02 -0.64503891233E+02  0.77721876155E+02  0.00000000000E+00 0.  1.
         22    1    1    2    0    0  0.69415623814E+01 -0.11016830071E+02  0.50487858019E+02  0.52140000388E+02  0.00000000000E+00 0. -1.
</event>
<event>
 6    1  0.1726037E-005  0.8020963E+02  0.7818608E-02  0.1408037E+00
          2   -1    0    0  502    0  0.00000000000E+00  0.00000000000E+00  0.18289309878E+03  0.18289309878E+03  0.00000000000E+00 0.  1.
          1   -1    0    0  501    0 -0.00000000000E+00 -0.00000000000E+00 -0.19145410565E+03  0.19145410565E+03  0.00000000000E+00 0.  1.
          2    1    1    2  501    0 -0.55779127980E+02  0.72997027643E+02  0.71633520347E+02  0.11649565829E+03  0.00000000000E+00 0.  1.
          1    1    1    2  502    0  0.28524550412E+02 -0.53185184107E+02 -0.10805912645E+03  0.12377030578E+03  0.00000000000E+00 0.  1.
         22    1    1    2    0    0  0.21096680008E+02 -0.34784146363E+01  0.78061012741E+02  0.80936339094E+02  0.00000000000E+00 0.  1.
         22    1    1    2    0    0  0.61578975591E+01 -0.16333428899E+02 -0.50196413504E+02  0.53144901266E+02  0.00000000000E+00 0.  1.
</event>
<event>
 6    1  0.1726037E-005  0.2565967E+03  0.7818608E-02  0.1196066E+00
          2   -1    0    0  502    0  0.00000000000E+00  0.00000000000E+00  0.47780376797E+03  0.47780376797E+03  0.00000000000E+00 0.  1.
          1   -1    0    0  501    0 -0.00000000000E+00 -0.00000000000E+00 -0.22588288276E+03  0.22588288276E+03  0.00000000000E+00 0.  1.
          2    1    1    2  501    0 -0.18677624643E+03 -0.14796119273E+03  0.59311395660E+02  0.24555187322E+03  0.00000000000E+00 0.  1.
          1    1    1    2  502    0  0.18287538821E+03  0.15344805583E+03  0.95851218574E+01  0.23891753391E+03  0.00000000000E+00 0.  1.
         22    1    1    2    0    0  0.50061613638E+01  0.27478504037E+02 -0.49542503069E+01  0.28366783953E+02  0.00000000000E+00 0. -1.
         22    1    1    2    0    0 -0.11053031395E+01 -0.32965367136E+02  0.18797861800E+03  0.19085045965E+03  0.00000000000E+00 0.  1.
</event>
<event>
 6    1  0.1726037E-005  0.1233801E+03  0.7818608E-02  0.1241283E+00
          2   -1    0    0  502    0  0.00000000000E+00  0.00000000000E+00  0.40250510021E+03  0.40250510021E+03  0.00000000000E+00 0. -1.
          1   -1    0    0  501    0 -0.00000000000E+00 -0.00000000000E+00 -0.11662832563E+03  0.11662832563E+03  0.00000000000E+00 0.  1.
          2    1    1    2  501    0 -0.95973887660E+02  0.29943549744E+02  0.29598820644E+03  0.31259657969E+03  0.00000000000E+00 0. -1.
          1    1    1    2  502    0  0.41267253264E+02  0.16436780183E+02 -0.36590527613E+02  0.57550157651E+02  0.00000000000E+00 0.  1.
         22    1    1    2    0    0  0.66003913524E+02 -0.40883260776E+02 -0.35769113905E+02  0.85483256382E+02  0.00000000000E+00 0.  1.
         22    1    1    2    0    0 -0.11297279127E+02 -0.54970691513E+01  0.62248209657E+02  0.63503432115E+02  0.00000000000E+00 0.  1.
</event>
<event>
 6    1  0.1726037E-005  0.3266140E+03  0.7818608E-02  0.1193375E+00
          2   -1    0    0  502    0  0.00000000000E+00  0.00000000000E+00  0.30764143633E+03  0.30764143633E+03  0.00000000000E+00 0.  1.
          1   -1    0    0  501    0 -0.00000000000E+00 -0.00000000000E+00 -0.47002680975E+03  0.47002680975E+03  0.00000000000E+00 0.  1.
          2    1    1    2  501    0 -0.28709524369E+03 -0.41723340149E+02  0.56419122282E+02  0.29554633041E+03  0.00000000000E+00 0.  1.
          1    1    1    2  502    0  0.23577591486E+03 -0.29524667599E+01 -0.24124165016E+03  0.33733741692E+03  0.00000000000E+00 0.  1.
         22    1    1    2    0    0  0.61618899311E+02  0.58157206711E+02 -0.29834167931E+02  0.89828876319E+02  0.00000000000E+00 0. -1.
         22    1    1    2    0    0 -0.10299570479E+02 -0.13481399801E+02  0.52271322379E+02  0.54955622423E+02  0.00000000000E+00 0. -1.
</event>
<event>
 6    1  0.1726037E-005  0.1420071E+03  0.7818608E-02  0.1319330E+00
          2   -1    0    0  502    0  0.00000000000E+00  0.00000000000E+00  0.32745209396E+03  0.32745209396E+03  0.00000000000E+00 0.  1.
          1   -1    0    0  501    0 -0.00000000000E+00 -0.00000000000E+00 -0.56510103980E+02  0.56510103980E+02  0.00000000000E+00 0.  1.
          2    1    1    2  501    0  0.88827028607E+01 -0.31161688985E+02  0.15934801078E+03  0.16260916890E+03  0.00000000000E+00 0.  1.
          1    1    1    2  502    0 -0.28196916980E+02  0.10756095492E+02  0.83937141355E+02  0.89197552748E+02  0.00000000000E+00 0.  1.
         22    1    1    2    0    0 -0.14957928996E+02  0.80725059412E+01  0.72452998696E+02  0.74420037705E+02  0.00000000000E+00 0.  1.
         22    1    1    2    0    0  0.34272143115E+02  0.12333087552E+02 -0.44796160850E+02  0.57735438590E+02  0.00000000000E+00 0.  1.
</event>
<event>
 6    1  0.1726037E-005  0.3759840E+02  0.7818608E-02  0.1621748E+00
          2   -1    0    0  502    0  0.00000000000E+00  0.00000000000E+00  0.77738643849E+02  0.77738643849E+02  0.00000000000E+00 0.  1.
          1   -1    0    0  501    0 -0.00000000000E+00 -0.00000000000E+00 -0.26257237966E+03  0.26257237966E+03  0.00000000000E+00 0. -1.
          2    1    1    2  501    0 -0.24102438274E+02  0.73856389958E+01 -0.15744438445E+01  0.25257752623E+02  0.00000000000E+00 0.  1.
          1    1    1    2  502    0  0.21367033614E+02  0.34236291677E+01 -0.18406875069E+03  0.18533638699E+03  0.00000000000E+00 0. -1.
         22    1    1    2    0    0  0.13399307969E+02 -0.64905536210E+01 -0.63073116745E+02  0.64806533593E+02  0.00000000000E+00 0. -1.
         22    1    1    2    0    0 -0.10663903310E+02 -0.43187145425E+01  0.63882575464E+02  0.64910350307E+02  0.00000000000E+00 0.  1.
</event>
<event>
 6    1  0.1726037E-005  0.4546997E+02  0.7818608E-02  0.1521684E+00
          2   -1    0    0  502    0  0.00000000000E+00  0.00000000000E+00  0.28454497895E+03  0.28454497895E+03  0.00000000000E+00 0.  1.
          1   -1    0    0  501    0 -0.00000000000E+00 -0.00000000000E+00 -0.17408380527E+03  0.17408380527E+03  0.00000000000E+00 0.  1.
          2    1    1    2  501    0  0.43846733314E+02  0.33396079354E+02  0.20008770829E+03  0.20754017719E+03  0.00000000000E+00 0.  1.
          1    1    1    2  502    0 -0.67031854952E+02 -0.32517695765E+02 -0.93367872242E+02  0.11944969520E+03  0.00000000000E+00 0.  1.
         22    1    1    2    0    0  0.29965428540E+02 -0.16379281717E+02 -0.58172217536E+02  0.67455279039E+02  0.00000000000E+00 0.  1.
         22    1    1    2    0    0 -0.67803069017E+01  0.15500898127E+02  0.61913555173E+02  0.64183632794E+02  0.00000000000E+00 0.  1.
</event>
<event>
 6    1  0.1726037E-005  0.6587554E+02  0.7818608E-02  0.1446034E+00
          2   -1    0    0  502    0  0.00000000000E+00  0.00000000000E+00  0.94007195737E+03  0.94007195737E+03  0.00000000000E+00 0. -1.
          1   -1    0    0  501    0 -0.00000000000E+00 -0.00000000000E+00 -0.78310674571E+02  0.78310674571E+02  0.00000000000E+00 0.  1.
          2    1    1    2  501    0 -0.90608479514E+02 -0.63782210802E+02  0.72010093784E+03  0.72857630188E+03  0.00000000000E+00 0. -1.
          1    1    1    2  502    0  0.96830093388E+02  0.28000145464E+02  0.12616859240E+03  0.16148866474E+03  0.00000000000E+00 0.  1.
         22    1    1    2    0    0 -0.20127609922E+02  0.37869325928E+02 -0.47371760861E+02  0.63900627967E+02  0.00000000000E+00 0.  1.
         22    1    1    2    0    0  0.13905996048E+02 -0.20872605900E+01  0.62863513415E+02  0.64417037357E+02  0.00000000000E+00 0. -1.
</event>
<event>
 6    1  0.1726037E-005  0.6234322E+02  0.7818608E-02  0.1402154E+00
          2   -1    0    0  502    0  0.00000000000E+00  0.00000000000E+00  0.85292496759E+02  0.85292496759E+02  0.00000000000E+00 0.  1.
          1   -1    0    0  501    0 -0.00000000000E+00 -0.00000000000E+00 -0.44232980491E+03  0.44232980491E+03  0.00000000000E+00 0.  1.
          2    1    1    2  501    0 -0.72245416696E+02  0.12611642816E+02  0.22690484105E+02  0.76767908901E+02  0.00000000000E+00 0.  1.
          1    1    1    2  502    0  0.77882846066E+00 -0.81626158656E+02 -0.10553626431E+03  0.13342166029E+03  0.00000000000E+00 0.  1.
         22    1    1    2    0    0  0.31332899484E+02  0.41356741725E+02 -0.15445344857E+02  0.54135841675E+02  0.00000000000E+00 0.  1.
         22    1    1    2    0    0  0.40133688752E+02  0.27657774115E+02 -0.25874618309E+03  0.26329689080E+03  0.00000000000E+00 0.  1.
</event>
<event>
 6    1  0.1726037E-005  0.1285048E+03  0.7818608E-02  0.1286805E+00
          2   -1    0    0  502    0  0.00000000000E+00  0.00000000000E+00  0.11290329063E+04  0.11290329063E+04  0.00000000000E+00 0. -1.
          1   -1    0    0  501    0 -0.00000000000E+00 -0.00000000000E+00 -0.37296832861E+02  0.37296832861E+02  0.00000000000E+00 0. -1.
          2    1    1    2  501    0  0.26944066967E+01  0.11678654296E+03  0.10073507005E+03  0.15425274967E+03  0.00000000000E+00 0. -1.
          1    1    1    2  502    0  0.11681647381E+02 -0.55821202915E+02  0.38076410043E+03  0.38501138653E+03  0.00000000000E+00 0. -1.
         22    1    1    2    0    0 -0.84244952002E+01 -0.10220076023E+03  0.44375415402E+03  0.45544891779E+03  0.00000000000E+00 0. -1.
         22    1    1    2    0    0 -0.59515588776E+01  0.41235420183E+02  0.16648274890E+03  0.17161668512E+03  0.00000000000E+00 0.  1.
</event>
<event>
 6    1  0.1726037E-005  0.1584635E+03  0.7818608E-02  0.1293960E+00
          2   -1    0    0  502    0  0.00000000000E+00  0.00000000000E+00  0.31755477100E+03  0.31755477100E+03  0.00000000000E+00 0. -1.
          1   -1    0    0  501    0 -0.00000000000E+00 -0.00000000000E+00 -0.86481645571E+02  0.86481645571E+02  0.00000000000E+00 0. -1.
          2    1    1    2  501    0  0.70097209089E+02 -0.84820774339E+02  0.12699293522E+03  0.16803388967E+03  0.00000000000E+00 0. -1.
          1    1    1    2  502    0  0.29943036919E+02  0.26052293741E+02  0.35825053254E+02  0.53467204057E+02  0.00000000000E+00 0. -1.
         22    1    1    2    0    0 -0.94911281565E+02  0.40023761832E+02 -0.85027970885E+01  0.10335545674E+03  0.00000000000E+00 0. -1.
         22    1    1    2    0    0 -0.51289644428E+01  0.18744718765E+02  0.76757934042E+02  0.79179866104E+02  0.00000000000E+00 0. -1.
</event>
<event>
 6    1  0.1726037E-005  0.1203937E+03  0.7818608E-02  0.1282943E+00
          2   -1    0    0  502    0  0.00000000000E+00  0.00000000000E+00  0.12561706810E+04  0.12561706810E+04  0.00000000000E+00 0.  1.
          1   -1    0    0  501    0 -0.00000000000E+00 -0.00000000000E+00 -0.54498241068E+02  0.54498241068E+02  0.00000000000E+00 0.  1.
          2    1    1    2  501    0 -0.54626939627E+02  0.11103054046E+03  0.92052299692E+03  0.92880270849E+03  0.00000000000E+00 0.  1.
          1    1    1    2  502    0  0.30873607078E+02  0.30338281069E+01 -0.18227669252E+02  0.35980990167E+02  0.00000000000E+00 0.  1.
         22    1    1    2    0    0  0.21274445167E+02  0.54382994590E+01 -0.16254622414E+01  0.22018611347E+02  0.00000000000E+00 0.  1.
         22    1    1    2    0    0  0.24788873816E+01 -0.11950266802E+03  0.30100257447E+03  0.32386661203E+03  0.00000000000E+00 0.  1.
</event>
<event>
 6    1  0.1726037E-005  0.4215237E+02  0.7818608E-02  0.1555612E+00
          2   -1    0    0  502    0  0.00000000000E+00  0.00000000000E+00  0.31853314923E+03  0.31853314923E+03  0.00000000000E+00 0. -1.
          1   -1    0    0  501    0 -0.00000000000E+00 -0.00000000000E+00 -0.18714688034E+03  0.18714688034E+03  0.00000000000E+00 0.  1.
          2    1    1    2  501    0 -0.17362385424E+02  0.56046348571E+02  0.25267329833E+03  0.25939630165E+03  0.00000000000E+00 0. -1.
          1    1    1    2  502    0  0.14139855774E+02 -0.25848118418E+02 -0.11526977904E+03  0.11897555508E+03  0.00000000000E+00 0.  1.
         22    1    1    2    0    0  0.22453987765E+00 -0.12130695167E+02 -0.64703157234E+02  0.65830864641E+02  0.00000000000E+00 0. -1.
         22    1    1    2    0    0  0.29979897728E+01 -0.18067534986E+02  0.58685906828E+02  0.61477308198E+02  0.00000000000E+00 0. -1.
</event>
<event>
 6    1  0.1726037E-005  0.5449981E+02  0.7818608E-02  0.1495670E+00
          2   -1    0    0  502    0  0.00000000000E+00  0.00000000000E+00  0.65868175255E+02  0.65868175255E+02  0.00000000000E+00 0.  1.
          1   -1    0    0  501    0 -0.00000000000E+00 -0.00000000000E+00 -0.51438500241E+03  0.51438500241E+03  0.00000000000E+00 0.  1.
          2    1    1    2  501    0  0.62524472233E+01 -0.39014892347E+02  0.20874576607E+02  0.44687838051E+02  0.00000000000E+00 0.  1.
          1    1    1    2  502    0  0.27460301357E+01  0.33967605876E+02 -0.38730685191E+03  0.38880321046E+03  0.00000000000E+00 0.  1.
         22    1    1    2    0    0 -0.13618776848E+02 -0.12932121100E+02  0.28773680192E+02  0.34360377046E+02  0.00000000000E+00 0.  1.
         22    1    1    2    0    0  0.46202994886E+01  0.17979407571E+02 -0.11085823205E+03  0.11240175211E+03  0.00000000000E+00 0. -1.
</event>
<event>
 6    1  0.1726037E-005  0.3314003E+02  0.7818608E-02  0.1602736E+00
          2   -1    0    0  502    0  0.00000000000E+00  0.00000000000E+00  0.14830770590E+03  0.14830770590E+03  0.00000000000E+00 0.  1.
          1   -1    0    0  501    0 -0.00000000000E+00 -0.00000000000E+00 -0.57870135336E+03  0.57870135336E+03  0.00000000000E+00 0.  1.
          2    1    1    2  501    0  0.23479374073E+02 -0.36978610035E+02  0.40220670046E+02  0.59467645875E+02  0.00000000000E+00 0.  1.
          1    1    1    2  502    0  0.15494506880E+02  0.38578664582E+02 -0.52520894141E+03  0.52685180577E+03  0.00000000000E+00 0.  1.
         22    1    1    2    0    0 -0.24038652299E+02  0.43623374103E+01 -0.38837913519E+02  0.45883224805E+02  0.00000000000E+00 0.  1.
         22    1    1    2    0    0 -0.14935228654E+02 -0.59623919575E+01  0.93432537422E+02  0.94806382812E+02  0.00000000000E+00 0. -1.
</event>
<event>
 6    1  0.1726037E-005  0.5985223E+02  0.7818608E-02  0.1402279E+00
          2   -1    0    0  502    0  0.00000000000E+00  0.00000000000E+00  0.10430697887E+03  0.10430697887E+03  0.00000000000E+00 0.  1.
          1   -1    0    0  501    0 -0.00000000000E+00 -0.00000000000E+00 -0.22846959233E+03  0.22846959233E+03  0.00000000000E+00 0.  1.
          2    1    1    2  501    0 -0.32812965236E+02 -0.43729798662E+01  0.44720540649E+02  0.55639378109E+02  0.00000000000E+00 0.  1.
          1    1    1    2  502    0  0.37095624654E+02 -0.12429195384E+02 -0.14125586232E+03  0.14657349319E+03  0.00000000000E+00 0.  1.
         22    1    1    2    0    0 -0.21236889423E+02  0.15587642101E+02  0.47078922589E+02  0.53948169670E+02  0.00000000000E+00 0.  1.
         22    1    1    2    0    0  0.16954230005E+02  0.12145331488E+01 -0.74706214376E+02  0.76615530228E+02  0.00000000000E+00 0.  1.
</event>
<event>
 6    1  0.1726037E-005  0.5338465E+02  0.7818608E-02  0.1461223E+00
          2   -1    0    0  502    0  0.00000000000E+00  0.00000000000E+00  0.29915057072E+03  0.29915057072E+03  0.00000000000E+00 0.  1.
          1   -1    0    0  501    0 -0.00000000000E+00 -0.00000000000E+00 -0.37569484907E+02  0.37569484907E+02  0.00000000000E+00 0.  1.
          2    1    1    2  501    0  0.20915085015E+02  0.11679621279E+02  0.13596362226E+03  0.13805781728E+03  0.00000000000E+00 0.  1.
          1    1    1    2  502    0 -0.19267900447E+02 -0.10850486500E+02  0.15131655725E+01  0.22164717796E+02  0.00000000000E+00 0.  1.
         22    1    1    2    0    0 -0.28182737139E+02  0.18012064848E+02 -0.12774184760E+02  0.35803365052E+02  0.00000000000E+00 0.  1.
         22    1    1    2    0    0  0.26535552571E+02 -0.18841199627E+02  0.13687848274E+03  0.14069415550E+03  0.00000000000E+00 0.  1.
</event>
<event>
 6    1  0.1726037E-005  0.1929440E+03  0.7818608E-02  0.1291574E+00
          2   -1    0    0  502    0  0.00000000000E+00  0.00000000000E+00  0.44022578216E+03  0.44022578216E+03  0.00000000000E+00 0.  1.
          1   -1    0    0  501    0 -0.00000000000E+00 -0.00000000000E+00 -0.19268755372E+03  0.19268755372E+03  0.00000000000E+00 0. -1.
          2    1    1    2  501    0  0.16654352276E+03 -0.81705336941E+02  0.29998442912E+03  0.35270832819E+03  0.00000000000E+00 0.  1.
          1    1    1    2  502    0 -0.72972847731E+02  0.63305650077E+02 -0.73347516750E+02  0.12129509492E+03  0.00000000000E+00 0. -1.
         22    1    1    2    0    0 -0.40763866520E+01 -0.10491485399E+02  0.57057260171E+02  0.58156849401E+02  0.00000000000E+00 0. -1.
         22    1    1    2    0    0 -0.89494288376E+02  0.28891172263E+02 -0.36155944099E+02  0.10075306338E+03  0.00000000000E+00 0. -1.
</event>
<event>
 6    1  0.1726037E-005  0.1129588E+03  0.7818608E-02  0.1331683E+00
          2   -1    0    0  502    0  0.00000000000E+00  0.00000000000E+00  0.15105683458E+03  0.15105683458E+03  0.00000000000E+00 0. -1.
          1   -1    0    0  501    0 -0.00000000000E+00 -0.00000000000E+00 -0.31422470629E+03  0.31422470629E+03  0.00000000000E+00 0. -1.
          2    1    1    2  501    0 -0.36791762408E+02  0.88178902713E+02  0.49569669855E+01  0.95675097003E+02  0.00000000000E+00 0. -1.
          1    1    1    2  502    0  0.57580164342E+02 -0.85987809893E+02 -0.21469630051E+03  0.23833564615E+03  0.00000000000E+00 0. -1.
         22    1    1    2    0    0 -0.25072786790E+02  0.10371561539E+02  0.85731339766E+02  0.89922614198E+02  0.00000000000E+00 0. -1.
         22    1    1    2    0    0  0.42843848547E+01 -0.12562654359E+02 -0.39159877960E+02  0.41348183515E+02  0.00000000000E+00 0.  1.
</event>
<event>
 6    1  0.1726037E-005  0.8340438E+02  0.7818608E-02  0.1340409E+00
          2   -1    0    0  502    0  0.00000000000E+00  0.00000000000E+00  0.12745359546E+03  0.12745359546E+03  0.00000000000E+00 0. -1.
          1   -1    0    0  501    0 -0.00000000000E+00 -0.00000000000E+00 -0.55128351932E+03  0.55128351932E+03  0.00000000000E+00 0.  1.
          2    1    1    2  501    0 -0.33663521434E+02 -0.66316877370E+02 -0.11303681771E+03  0.13530884324E+03  0.00000000000E+00 0. -1.
          1    1    1    2  502    0 -0.19684878267E+02  0.61942757317E+02 -0.38379933420E+03  0.38926382897E+03  0.00000000000E+00 0.  1.
         22    1    1    2    0    0  0.55113939515E+02  0.17728831785E+02  0.10474775666E+03  0.11968270690E+03  0.00000000000E+00 0. -1.
         22    1    1    2    0    0 -0.17655398146E+01 -0.13354711731E+02 -0.31741528614E+02  0.34481735673E+02  0.00000000000E+00 0. -1.
</event>
<event>
 6    1  0.1726037E-005  0.7348781E+02  0.7818608E-02  0.1457963E+00
          2   -1    0    0  502    0  0.00000000000E+00  0.00000000000E+00  0.15560612911E+03  0.15560612911E+03  0.00000000000E+00 0. -1.
          1   -1    0    0  501    0 -0.00000000000E+00 -0.00000000000E+00 -0.96795048692E+02  0.96795048692E+02  0.00000000000E+00 0. -1.
          2    1    1    2  501    0  0.31986533780E+02 -0.45069345226E+02  0.77316840140E+02  0.95038297499E+02  0.00000000000E+00 0. -1.
          1    1    1    2  502    0 -0.22645379982E+02  0.89145372628E+01 -0.17741947728E+02  0.30117418852E+02  0.00000000000E+00 0. -1.
         22    1    1    2    0    0  0.21189301140E+01 -0.12908621253E+02  0.52394994465E+02  0.54003312977E+02  0.00000000000E+00 0. -1.
         22    1    1    2    0    0 -0.11460083912E+02  0.49063429216E+02 -0.53158806456E+02  0.73242148478E+02  0.00000000000E+00 0. -1.
</event>
<event>
 6    1  0.1726037E-005  0.2877751E+02  0.7818608E-02  0.1653125E+00
          2   -1    0    0  502    0  0.00000000000E+00  0.00000000000E+00  0.83986800887E+02  0.83986800887E+02  0.00000000000E+00 0.  1.
          1   -1    0    0  501    0 -0.00000000000E+00 -0.00000000000E+00 -0.31034834568E+03  0.31034834568E+03  0.00000000000E+00 0. -1.
          2    1    1    2  501    0 -0.35045211773E+02 -0.30675133389E+02  0.58198230649E+01  0.46936137646E+02  0.00000000000E+00 0.  1.
          1    1    1    2  502    0  0.16618185023E+02  0.29375727726E+02 -0.21671829099E+03  0.21933060686E+03  0.00000000000E+00 0. -1.
         22    1    1    2    0    0  0.18141134236E+02 -0.11976317999E+02 -0.69294131560E+02  0.72623753778E+02  0.00000000000E+00 0. -1.
         22    1    1    2    0    0  0.28589251338E+00  0.13275723661E+02  0.53831054698E+02  0.55444648283E+02  0.00000000000E+00 0. -1.
</event>
<event>
 6    1  0.1726037E-005  0.9129422E+02  0.7818608E-02  0.1395284E+00
          2   -1    0    0  502    0  0.00000000000E+00  0.00000000000E+00  0.28059096557E+03  0.28059096557E+03  0.00000000000E+00 0.  1.
          1   -1    0    0  501    0 -0.00000000000E+00 -0.00000000000E+00 -0.71723791940E+02  0.71723791940E+02  0.00000000000E+00 0.  1.
          2    1    1    2  501    0  0.78848798522E+02  0.14797302978E+02  0.12787988784E+03  0.15096144845E+03  0.00000000000E+00 0.  1.
          1    1    1    2  502    0 -0.45642262196E+02 -0.78091815343E+00  0.11921531194E+01  0.45664506573E+02  0.00000000000E+00 0.  1.
         22    1    1    2    0    0  0.11348504703E+02 -0.13631471045E+02  0.10364416616E+03  0.10515093315E+03  0.00000000000E+00 0.  1.
         22    1    1    2    0    0 -0.44555041029E+02 -0.38491377935E+00 -0.23849033489E+02  0.50537869346E+02  0.00000000000E+00 0.  1.
</event>
<event>
 6    1  0.1726037E-005  0.7201955E+02  0.7818608E-02  0.1455433E+00
          2   -1    0    0  502    0  0.00000000000E+00  0.00000000000E+00  0.27370905659E+02  0.27370905659E+02  0.00000000000E+00 0. -1.
          1   -1    0    0  501    0 -0.00000000000E+00 -0.00000000000E+00 -0.80968626246E+03  0.80968626246E+03  0.00000000000E+00 0. -1.
          2    1    1    2  501    0 -0.70685835734E+01 -0.45033224879E+02 -0.72008733891E+02  0.85224491629E+02  0.00000000000E+00 0. -1.
          1    1    1    2  502    0 -0.79229140814E+01  0.25356313668E+02 -0.54245683362E+03  0.54310692460E+03  0.00000000000E+00 0. -1.
         22    1    1    2    0    0 -0.13942904246E+02  0.36818547939E+01  0.16223910123E+02  0.21706586402E+02  0.00000000000E+00 0. -1.
         22    1    1    2    0    0  0.28934401901E+02  0.15995056417E+02 -0.18407369942E+03  0.18701916549E+03  0.00000000000E+00 0. -1.
</event>
<event>
 6    1  0.1726037E-005  0.1110274E+03  0.7818608E-02  0.1375264E+00
          2   -1    0    0  502    0  0.00000000000E+00  0.00000000000E+00  0.10049905254E+03  0.10049905254E+03  0.00000000000E+00 0.  1.
          1   -1    0    0  501    0 -0.00000000000E+00 -0.00000000000E+00 -0.35547252690E+03  0.35547252690E+03  0.00000000000E+00 0.  1.
          2    1    1    2  501    0  0.90805552762E+02 -0.39231992313E+02  0.36087486834E+02  0.10529531965E+03  0.00000000000E+00 0.  1.
          1    1    1    2  502    0 -0.59660816417E+02  0.28127559643E+02 -0.13348796756E+03  0.14889462754E+03  0.00000000000E+00 0.  1.
         22    1    1    2    0    0 -0.37982547825E+02 -0.69148732257E+00 -0.17532749610E+03  0.17939588340E+03  0.00000000000E+00 0.  1.
         22    1    1    2    0    0  0.68378114801E+01  0.11795919992E+02  0.17754502456E+02  0.22385748854E+02  0.00000000000E+00 0. -1.
</event>
<event>
 6    1  0.1726037E-005  0.9503846E+02  0.7818608E-02  0.1356752E+00
          2   -1    0    0  502    0  0.00000000000E+00  0.00000000000E+00  0.21375345303E+03  0.21375345303E+03  0.00000000000E+00 0.  1.
          1   -1    0    0  501    0 -0.00000000000E+00 -0.00000000000E+00 -0.62778749027E+02  0.62778749027E+02  0.00000000000E+00 0.  1.
          2    1    1    2  501    0 -0.53187345268E+02 -0.23049248247E+02  0.14492244550E+02  0.59751039267E+02  0.00000000000E+00 0.  1.
          1    1    1    2  502    0  0.17394461121E+02  0.31122295909E+02  0.33958122871E+02  0.49237370861E+02  0.00000000000E+00 0.  1.
         22    1    1    2    0    0  0.65111558308E+02 -0.12068474613E+02  0.58914576394E+01  0.66482120738E+02  0.00000000000E+00 0.  1.
         22    1    1    2    0    0 -0.29318674161E+02  0.39954269505E+01  0.96632878938E+02  0.10106167119E+03  0.00000000000E+00 0.  1.
</event>
<event>
 6    1  0.1726037E-005  0.2409591E+03  0.7818608E-02  0.1209251E+00
          2   -1    0    0  502    0  0.00000000000E+00  0.00000000000E+00  0.48849886315E+02  0.48849886315E+02  0.00000000000E+00 0. -1.
          1   -1    0    0  501    0 -0.00000000000E+00 -0.00000000000E+00 -0.24698623085E+04  0.24698623085E+04  0.00000000000E+00 0. -1.
          2    1    1    2  501    0 -0.12468285549E+03 -0.54301297181E+02 -0.19591307336E+04  0.19638451254E+04  0.00000000000E+00 0. -1.
          1    1    1    2  502    0  0.14938429943E+03 -0.31410823285E+02 -0.28124340089E+03  0.32000024887E+03  0.00000000000E+00 0. -1.
         22    1    1    2    0    0 -0.14616875678E+01  0.10460646297E+03 -0.17573386567E+03  0.20451660121E+03  0.00000000000E+00 0. -1.
         22    1    1    2    0    0 -0.23239756370E+02 -0.18894342505E+02 -0.49044219950E+01  0.30350219274E+02  0.00000000000E+00 0. -1.
</event>
<event>
 6    1  0.1726037E-005  0.5544423E+02  0.7818608E-02  0.1466639E+00
          2   -1    0    0  502    0  0.00000000000E+00  0.00000000000E+00  0.30405079042E+03  0.30405079042E+03  0.00000000000E+00 0. -1.
          1   -1    0    0  501    0 -0.00000000000E+00 -0.00000000000E+00 -0.88535635439E+02  0.88535635439E+02  0.00000000000E+00 0. -1.
          2    1    1    2  501    0 -0.22759828865E+02  0.11142295905E+03  0.11161575446E+03  0.15934604563E+03  0.00000000000E+00 0. -1.
          1    1    1    2  502    0  0.32397445928E+02 -0.72675736108E+02  0.27472252549E+02  0.84178867785E+02  0.00000000000E+00 0. -1.
         22    1    1    2    0    0  0.96386496358E+01 -0.12576379040E+02 -0.32085840522E+02  0.35785053285E+02  0.00000000000E+00 0. -1.
         22    1    1    2    0    0 -0.19276266699E+02 -0.26170843902E+02  0.10851298850E+03  0.11327645916E+03  0.00000000000E+00 0. -1.
</event>
<event>
 6    1  0.1726037E-005  0.1201046E+03  0.7818608E-02  0.1244152E+00
          2   -1    0    0  502    0  0.00000000000E+00  0.00000000000E+00  0.34817808820E+03  0.34817808820E+03  0.00000000000E+00 0. -1.
          1   -1    0    0  501    0 -0.00000000000E+00 -0.00000000000E+00 -0.76204517627E+02  0.76204517627E+02  0.00000000000E+00 0. -1.
          2    1    1    2  501    0 -0.28556221905E+02  0.55359560392E+02  0.12606691180E+03  0.14061651748E+03  0.00000000000E+00 0. -1.
          1    1    1    2  502    0  0.63418314134E+02 -0.67241001839E+02  0.50467374741E+01  0.92567296898E+02  0.00000000000E+00 0. -1.
         22    1    1    2    0    0  0.18332499694E+02 -0.74684636873E+01 -0.15349884872E+02  0.25049500203E+02  0.00000000000E+00 0. -1.
         22    1    1    2    0    0 -0.53194591922E+02  0.19349905134E+02  0.15620980617E+03  0.16614929125E+03  0.00000000000E+00 0. -1.
</event>
<event>
 6    1  0.1726037E-005  0.3539155E+02  0.7818608E-02  0.1564029E+00
          2   -1    0    0  502    0  0.00000000000E+00  0.00000000000E+00  0.44889235593E+02  0.44889235593E+02  0.00000000000E+00 0.  1.
          1   -1    0    0  501    0 -0.00000000000E+00 -0.00000000000E+00 -0.51880525282E+03  0.51880525282E+03  0.00000000000E+00 0.  1.
          2    1    1    2  501    0  0.24243428784E+02 -0.31564026946E+02 -0.42085904181E+02  0.57924562726E+02  0.00000000000E+00 0.  1.
          1    1    1    2  502    0 -0.44124147353E+02  0.12321860999E+02 -0.35956959597E+03  0.36247629300E+03  0.00000000000E+00 0.  1.
         22    1    1    2    0    0 -0.50608459898E+01  0.18894894013E+02 -0.10235394921E+03  0.10420633426E+03  0.00000000000E+00 0. -1.
         22    1    1    2    0    0  0.24941564559E+02  0.34727193373E+00  0.30093432136E+02  0.39087298425E+02  0.00000000000E+00 0.  1.
</event>
<event>
 6    1  0.1726037E-005  0.8201899E+02  0.7818608E-02  0.1413945E+00
          2   -1    0    0  502    0  0.00000000000E+00  0.00000000000E+00  0.32171512410E+03  0.32171512410E+03  0.00000000000E+00 0. -1.
          1   -1    0    0  501    0 -0.00000000000E+00 -0.00000000000E+00 -0.15497067477E+03  0.15497067477E+03  0.00000000000E+00 0.  1.
          2    1    1    2  501    0 -0.31149952775E+02  0.12996269252E+03  0.15889290598E+03  0.20762364166E+03  0.00000000000E+00 0. -1.
          1    1    1    2  502    0 -0.14992759815E+02 -0.10406290345E+03  0.61470211873E+02  0.12178857775E+03  0.00000000000E+00 0.  1.
         22    1    1    2    0    0  0.41604637551E+01  0.11806864162E+02  0.37812449602E+02  0.39830802715E+02  0.00000000000E+00 0. -1.
         22    1    1    2    0    0  0.41982248835E+02 -0.37706653225E+02 -0.91431118120E+02  0.10744277675E+03  0.00000000000E+00 0.  1.
</event>
<event>
 6    1  0.1726037E-005  0.6519022E+02  0.7818608E-02  0.1431396E+00
          2   -1    0    0  502    0  0.00000000000E+00  0.00000000000E+00  0.24200193311E+03  0.24200193311E+03  0.00000000000E+00 0.  1.
          1   -1    0    0  501    0 -0.00000000000E+00 -0.00000000000E+00 -0.10629118173E+03  0.10629118173E+03  0.00000000000E+00 0.  1.
          2    1    1    2  501    0  0.36897765666E+02  0.78802973930E+02  0.79900798293E+02  0.11813336269E+03  0.00000000000E+00 0.  1.
          1    1    1    2  502    0 -0.18827231411E+02 -0.38091489669E+02 -0.46203669494E+02  0.62771054656E+02  0.00000000000E+00 0.  1.
         22    1    1    2    0    0 -0.14991893058E+02 -0.13081331983E+02 -0.28048263163E+02  0.34388707018E+02  0.00000000000E+00 0.  1.
         22    1    1    2    0    0 -0.30786411965E+01 -0.27630152277E+02  0.13006188574E+03  0.13299999049E+03  0.00000000000E+00 0.  1.
</event>
<event>
 6    1  0.1916954E-005  0.2752625E+02  0.7818608E-02  0.1638094E+00
          2   -1    0    0  502    0  0.00000000000E+00  0.00000000000E+00  0.70281718968E+02  0.70281718968E+02  0.00000000000E+00 0. -1.
          1   -1    0    0  501    0 -0.00000000000E+00 -0.00000000000E+00 -0.87857338600E+03  0.87857338600E+03  0.00000000000E+00 0.  1.
          2    1    1    2  501    0 -0.41020652670E+02 -0.17406782024E+02 -0.80543465900E+02  0.92048573617E+02  0.00000000000E+00 0. -1.
          1    1    1    2  502    0  0.40450897545E+02  0.31775789612E+02 -0.72937470928E+03  0.73118632541E+03  0.00000000000E+00 0.  1.
         22    1    1    2    0    0  0.11175720100E+02 -0.52272134317E+01 -0.60597234679E+02  0.61840482945E+02  0.00000000000E+00 0. -1.
         22    1    1    2    0    0 -0.10605964976E+02 -0.91417941570E+01  0.62223742833E+02  0.63779722997E+02  0.00000000000E+00 0. -1.
</event>
<event>
 6    1  0.1726037E-005  0.4236404E+02  0.7818608E-02  0.1501965E+00
          2   -1    0    0  502    0  0.00000000000E+00  0.00000000000E+00  0.12882922723E+03  0.12882922723E+03  0.00000000000E+00 0.  1.
          1   -1    0    0  501    0 -0.00000000000E+00 -0.00000000000E+00 -0.30041660775E+03  0.30041660775E+03  0.00000000000E+00 0.  1.
          2    1    1    2  501    0  0.46408424771E+02  0.62742406317E+02 -0.16931816716E+03  0.18643763882E+03  0.00000000000E+00 0.  1.
          1    1    1    2  502    0 -0.75080819085E+01 -0.58196926378E+02 -0.70505503389E+02  0.91729382108E+02  0.00000000000E+00 0.  1.
         22    1    1    2    0    0 -0.19919235460E+02 -0.17650493918E+02  0.10464630797E+03  0.10797761642E+03  0.00000000000E+00 0.  1.
         22    1    1    2    0    0 -0.18981107403E+02  0.13105013979E+02 -0.36410017948E+02  0.43101197623E+02  0.00000000000E+00 0.  1.
</event>
<event>
 6    1  0.1726037E-005  0.2200811E+02  0.7818608E-02  0.1760032E+00
          2   -1    0    0  502    0  0.00000000000E+00  0.00000000000E+00  0.87273827457E+02  0.87273827457E+02  0.00000000000E+00 0. -1.
          1   -1    0    0  501    0 -0.00000000000E+00 -0.00000000000E+00 -0.26642252250E+03  0.26642252250E+03  0.00000000000E+00 0. -1.
          2    1    1    2  501    0  0.20342885146E+02  0.86465848033E+01  0.42841240029E+02  0.48207553890E+02  0.00000000000E+00 0. -1.
          1    1    1    2  502    0 -0.16364293571E+02  0.14395573287E+02 -0.17126993484E+03  0.17265113152E+03  0.00000000000E+00 0. -1.
         22    1    1    2    0    0  0.67536151385E+01 -0.83573973442E+01  0.39431674861E+02  0.40869479935E+02  0.00000000000E+00 0. -1.
         22    1    1    2    0    0 -0.10732206714E+02 -0.14684760746E+02 -0.90151675090E+02  0.91968184611E+02  0.00000000000E+00 0. -1.
</event>
<event>
 6    1  0.1726037E-005  0.3887305E+02  0.7818608E-02  0.1558521E+00
          2   -1    0    0  502    0  0.00000000000E+00  0.00000000000E+00  0.33698522838E+03  0.33698522838E+03  0.00000000000E+00 0. -1.
          1   -1    0    0  501    0 -0.00000000000E+00 -0.00000000000E+00 -0.14255620022E+03  0.14255620022E+03  0.00000000000E+00 0. -1.
          2    1    1    2  501    0  0.48633654682E+02 -0.55615029449E+02  0.26217417332E+03  0.27238495007E+03  0.00000000000E+00 0. -1.
          1    1    1    2  502    0 -0.35882440085E+02  0.28636971314E+02 -0.60737266128E+02  0.76135675798E+02  0.00000000000E+00 0. -1.
         22    1    1    2    0    0 -0.13732300731E+02  0.28040657124E+01  0.59040178770E+02  0.60680982005E+02  0.00000000000E+00 0.  1.
         22    1    1    2    0    0  0.98108613336E+00  0.24173992423E+02 -0.66048057807E+02  0.70339820726E+02  0.00000000000E+00 0. -1.
</event>
<event>
 6    1  0.1726037E-005  0.3520868E+02  0.7818608E-02  0.1589488E+00
          2   -1    0    0  502    0  0.00000000000E+00  0.00000000000E+00  0.57549984071E+02  0.57549984071E+02  0.00000000000E+00 0.  1.
          1   -1    0    0  501    0 -0.00000000000E+00 -0.00000000000E+00 -0.33617421866E+03  0.33617421866E+03  0.00000000000E+00 0.  1.
          2    1    1    2  501    0 -0.16688869514E+02 -0.23959084375E+02 -0.57170282687E+01  0.29752991480E+02  0.00000000000E+00 0.  1.
          1    1    1    2  502    0  0.37159114317E+02  0.52550719199E+02 -0.21229414597E+03  0.22183593550E+03  0.00000000000E+00 0.  1.
         22    1    1    2    0    0  0.91350087657E+01 -0.16258494029E+02  0.35888099598E+02  0.40444316115E+02  0.00000000000E+00 0. -1.
         22    1    1    2    0    0 -0.29605253569E+02 -0.12333140794E+02 -0.96501159953E+02  0.10169095964E+03  0.00000000000E+00 0.  1.
</event>
<event>
 6    1  0.1726037E-005  0.4066735E+02  0.7818608E-02  0.1506191E+00
          2   -1    0    0  502    0  0.00000000000E+00  0.00000000000E+00  0.12496093181E+03  0.12496093181E+03  0.00000000000E+00 0. -1.
          1   -1    0    0  501    0 -0.00000000000E+00 -0.00000000000E+00 -0.21242533821E+03  0.21242533821E+03  0.00000000000E+00 0.  1.
          2    1    1    2  501    0  0.38151234549E+01  0.26760221009E+02  0.72863747930E+02  0.77716088153E+02  0.00000000000E+00 0. -1.
          1    1    1    2  502    0  0.14871465217E+01 -0.23972485166E+02 -0.12350356087E+03  0.12581741214E+03  0.00000000000E+00 0.  1.
         22    1    1    2    0    0  0.50161791708E+01  0.10275311479E+02  0.47010407751E+02  0.48381014007E+02  0.00000000000E+00 0.  1.
         22    1    1    2    0    0 -0.10318449147E+02 -0.13063047322E+02 -0.83835001217E+02  0.85471755728E+02  0.00000000000E+00 0.  1.
</event>
<event>
 6    1  0.1726037E-005  0.3321510E+02  0.7818608E-02  0.1654934E+00
          2   -1    0    0  502    0  0.00000000000E+00  0.00000000000E+00  0.14784328916E+03  0.14784328916E+03  0.00000000000E+00 0. -1.
          1   -1    0    0  501    0 -0.00000000000E+00 -0.00000000000E+00 -0.16729680615E+03  0.16729680615E+03  0.00000000000E+00 0. -1.
          2    1    1    2  501    0 -0.10002402220E+01 -0.37034155121E+02  0.30616843645E+02  0.48061629611E+02  0.00000000000E+00 0. -1.
          1    1    1    2  502    0 -0.24417421356E+02  0.32004814295E+01 -0.11726419045E+03  0.11982213447E+03  0.00000000000E+00 0. -1.
         22    1    1    2    0    0 -0.15413703163E+01  0.11303705529E+02 -0.36253181615E+02  0.38005825321E+02  0.00000000000E+00 0. -1.
         22    1    1    2    0    0  0.26959031894E+02  0.22529968162E+02  0.10344701143E+03  0.10925050590E+03  0.00000000000E+00 0. -1.
</event>
<event>
 6    1  0.1726037E-005  0.3434724E+02  0.7818608E-02  0.1639557E+00
          2   -1    0    0  502    0  0.00000000000E+00  0.00000000000E+00  0.20738596584E+03  0.20738596584E+03  0.00000000000E+00 0. -1.
          1   -1    0    0  501    0 -0.00000000000E+00 -0.00000000000E+00 -0.59913586770E+02  0.59913586770E+02  0.00000000000E+00 0. -1.
          2    1    1    2  501    0  0.49646645299E+01  0.28139708696E+02  0.87483746369E+02  0.92032043214E+02  0.00000000000E+00 0. -1.
          1    1    1    2  502    0 -0.15669201668E+02  0.15093556215E+02 -0.97338158200E+01  0.23834565038E+02  0.00000000000E+00 0. -1.
         22    1    1    2    0    0  0.11251012044E+02  0.49229115086E+01 -0.34500549598E+02  0.36621144880E+02  0.00000000000E+00 0. -1.
         22    1    1    2    0    0 -0.54647490570E+00 -0.48156176420E+02  0.10422299812E+03  0.11481179948E+03  0.00000000000E+00 0. -1.
</event>
<event>
 6    1  0.1726037E-005  0.7210153E+02  0.7818608E-02  0.1433584E+00
          2   -1    0    0  502    0  0.00000000000E+00  0.00000000000E+00  0.16306767035E+03  0.16306767035E+03  0.00000000000E+00 0. -1.
          1   -1    0    0  501    0 -0.00000000000E+00 -0.00000000000E+00 -0.91829410685E+02  0.91829410685E+02  0.00000000000E+00 0. -1.
          2    1    1    2  501    0 -0.35022816563E+02 -0.21634070977E+02  0.88204628198E+02  0.97338004616E+02  0.00000000000E+00 0. -1.
          1    1    1    2  502    0  0.23840665404E+02 -0.15444279200E+02 -0.11912211692E+02  0.30802660182E+02  0.00000000000E+00 0. -1.
         22    1    1    2    0    0  0.29087504677E+02  0.28439988441E+02 -0.57633304485E+02  0.70544409111E+02  0.00000000000E+00 0. -1.
         22    1    1    2    0    0 -0.17905353518E+02  0.86383617352E+01  0.52579147646E+02  0.56212007127E+02  0.00000000000E+00 0.  1.
</event>
<event>
 6    1  0.1726037E-005  0.8780274E+02  0.7818608E-02  0.1321680E+00
          2   -1    0    0  502    0  0.00000000000E+00  0.00000000000E+00  0.90230352350E+03  0.90230352350E+03  0.00000000000E+00 0.  1.
          1   -1    0    0  501    0 -0.00000000000E+00 -0.00000000000E+00 -0.37682927253E+02  0.37682927253E+02  0.00000000000E+00 0.  1.
          2    1    1    2  501    0 -0.11893134577E+03 -0.58565088333E+02  0.45105798381E+03  0.47013597962E+03  0.00000000000E+00 0.  1.
          1    1    1    2  502    0  0.38419298579E+02  0.13278042438E+02  0.15108006197E+02  0.43365894036E+02  0.00000000000E+00 0.  1.
         22    1    1    2    0    0  0.27730550747E+02 -0.54224936110E+01  0.81945359621E+01  0.29420015318E+02  0.00000000000E+00 0.  1.
         22    1    1    2    0    0  0.52781496448E+02  0.50709539506E+02  0.39026007028E+03  0.39706456178E+03  0.00000000000E+00 0.  1.
</event>
<event>
 6    1  0.1726037E-005  0.7211256E+02  0.7818608E-02  0.1466771E+00
          2   -1    0    0  502    0  0.00000000000E+00  0.00000000000E+00  0.30637409464E+03  0.30637409464E+03  0.00000000000E+00 0. -1.
          1   -1    0    0  501    0 -0.00000000000E+00 -0.00000000000E+00 -0.24546540485E+03  0.24546540485E+03  0.00000000000E+00 0.  1.
          2    1    1    2  501    0  0.68854771981E+02  0.39885078397E+02  0.23961751779E+03  0.25248436374E+03  0.00000000000E+00 0. -1.
          1    1    1    2  502    0 -0.63275151397E+02  0.29786177693E+02 -0.12595569258E+03  0.14406872547E+03  0.00000000000E+00 0.  1.
         22    1    1    2    0    0  0.80086927627E+01 -0.72825486782E+01  0.40693367301E+02  0.42108488661E+02  0.00000000000E+00 0.  1.
         22    1    1    2    0    0 -0.13588313347E+02 -0.62388707411E+02 -0.93446502713E+02  0.11317792162E+03  0.00000000000E+00 0. -1.
</event>
<event>
 6    1  0.1726037E-005  0.1097496E+03  0.7818608E-02  0.1300714E+00
          2   -1    0    0  502    0  0.00000000000E+00  0.00000000000E+00  0.10665245350E+03  0.10665245350E+03  0.00000000000E+00 0.  1.
          1   -1    0    0  501    0 -0.00000000000E+00 -0.00000000000E+00 -0.64988272388E+03  0.64988272388E+03  0.00000000000E+00 0.  1.
          2    1    1    2  501    0  0.93248217233E+02  0.14199404451E+02 -0.23225477485E+02  0.97140495718E+02  0.00000000000E+00 0.  1.
          1    1    1    2  502    0 -0.71305727683E+02 -0.61541905899E+02 -0.51216050073E+03  0.52074973979E+03  0.00000000000E+00 0.  1.
         22    1    1    2    0    0 -0.16984515813E+02 -0.40399351370E+01 -0.61653936409E+02  0.64078098662E+02  0.00000000000E+00 0.  1.
         22    1    1    2    0    0 -0.49579737374E+01  0.51382436585E+02  0.53809644247E+02  0.74566843215E+02  0.00000000000E+00 0.  1.
</event>
<event>
 6    1  0.1726037E-005  0.8396805E+02  0.7818608E-02  0.1445809E+00
          2   -1    0    0  502    0  0.00000000000E+00  0.00000000000E+00  0.72611541664E+02  0.72611541664E+02  0.00000000000E+00 0. -1.
          1   -1    0    0  501    0 -0.00000000000E+00 -0.00000000000E+00 -0.13975473038E+03  0.13975473038E+03  0.00000000000E+00 0. -1.
          2    1    1    2  501    0  0.84214661292E+00 -0.37630844009E+02  0.83880847876E+01  0.38563578648E+02  0.00000000000E+00 0. -1.
          1    1    1    2  502    0 -0.18509411296E+02 -0.10273535661E+02 -0.94988222259E+00  0.21190708287E+02  0.00000000000E+00 0. -1.
         22    1    1    2    0    0  0.22923452923E+01  0.10230266188E+02  0.34568914540E+02  0.36123718602E+02  0.00000000000E+00 0. -1.
         22    1    1    2    0    0  0.15374919391E+02  0.37674113482E+02 -0.10915030582E+03  0.11648826651E+03  0.00000000000E+00 0. -1.
</event>
<event>
 6    1  0.1726037E-005  0.6425306E+02  0.7818608E-02  0.1488222E+00
          2   -1    0    0  502    0  0.00000000000E+00  0.00000000000E+00  0.14710531460E+03  0.14710531460E+03  0.00000000000E+00 0. -1.
          1   -1    0    0  501    0 -0.00000000000E+00 -0.00000000000E+00 -0.28252882946E+03  0.28252882946E+03  0.00000000000E+00 0. -1.
          2    1    1    2  501    0 -0.64643623713E+01 -0.38790376063E+02  0.69563455739E+02  0.79909671694E+02  0.00000000000E+00 0. -1.
          1    1    1    2  502    0 -0.31002939562E+01  0.69042919671E+02 -0.21103373064E+03  0.22206254084E+03  0.00000000000E+00 0. -1.
         22    1    1    2    0    0  0.14413799476E+02 -0.18503526902E+02  0.64088029207E+02  0.68245246067E+02  0.00000000000E+00 0. -1.
         22    1    1    2    0    0 -0.48491431482E+01 -0.11749016706E+02 -0.58041269173E+02  0.59416685451E+02  0.00000000000E+00 0. -1.
</event>
<event>
 6    1  0.1726037E-005  0.1983091E+03  0.7818608E-02  0.1251244E+00
          2   -1    0    0  502    0  0.00000000000E+00  0.00000000000E+00  0.25613492235E+02  0.25613492235E+02  0.00000000000E+00 0. -1.
          1   -1    0    0  501    0 -0.00000000000E+00 -0.00000000000E+00 -0.15134791937E+04  0.15134791937E+04  0.00000000000E+00 0. -1.
          2    1    1    2  501    0 -0.10130767645E+03  0.39932788495E+02 -0.88665350266E+03  0.89331534560E+03  0.00000000000E+00 0. -1.
          1    1    1    2  502    0  0.23912052320E+02  0.47883035825E+02 -0.66274190452E+02  0.85187086380E+02  0.00000000000E+00 0. -1.
         22    1    1    2    0    0 -0.20849439099E+02  0.86635461144E+01 -0.32136021517E+02  0.39274419423E+02  0.00000000000E+00 0. -1.
         22    1    1    2    0    0  0.98245063225E+02 -0.96479370434E+02 -0.50280198683E+03  0.52131583453E+03  0.00000000000E+00 0. -1.
</event>
<event>
 6    1  0.4753248E-005  0.2215984E+02  0.7818608E-02  0.1739807E+00
          2   -1    0    0  502    0  0.00000000000E+00  0.00000000000E+00  0.10578962233E+03  0.10578962233E+03  0.00000000000E+00 0. -1.
          1   -1    0    0  501    0 -0.00000000000E+00 -0.00000000000E+00 -0.12518166640E+04  0.12518166640E+04  0.00000000000E+00 0. -1.
          2    1    1    2  501    0 -0.10278458461E+02 -0.43954560379E+02 -0.24215621312E+02  0.51225446821E+02  0.00000000000E+00 0. -1.
          1    1    1    2  502    0  0.12892198567E+02  0.17078613006E+02 -0.11727635641E+04  0.11729587653E+04  0.00000000000E+00 0. -1.
         22    1    1    2    0    0  0.27155144168E+01  0.16455357247E+02  0.90579639828E+02  0.92102247269E+02  0.00000000000E+00 0. -1.
         22    1    1    2    0    0 -0.53292545222E+01  0.10420590127E+02 -0.39627496087E+02  0.41319826942E+02  0.00000000000E+00 0.  1.
</event>
<event>
 6    1  0.1726037E-005  0.4311142E+02  0.7818608E-02  0.1520627E+00
          2   -1    0    0  502    0  0.00000000000E+00  0.00000000000E+00  0.14049683048E+03  0.14049683048E+03  0.00000000000E+00 0.  1.
          1   -1    0    0  501    0 -0.00000000000E+00 -0.00000000000E+00 -0.34479288562E+03  0.34479288562E+03  0.00000000000E+00 0. -1.
          2    1    1    2  501    0 -0.12489562501E+02 -0.59436901389E+02  0.91769659801E+02  0.11004728474E+03  0.00000000000E+00 0.  1.
          1    1    1    2  502    0  0.97646541019E+01  0.17782350881E+02 -0.22499653341E+03  0.22590927498E+03  0.00000000000E+00 0. -1.
         22    1    1    2    0    0  0.11577390604E+02  0.16117943689E+02 -0.10448632731E+03  0.10635420385E+03  0.00000000000E+00 0. -1.
         22    1    1    2    0    0 -0.88524822053E+01  0.25536606819E+02  0.33417145779E+02  0.42978952535E+02  0.00000000000E+00 0.  1.
</event>
<event>
 6    1  0.1726037E-005  0.4142625E+02  0.7818608E-02  0.1507384E+00
          2   -1    0    0  502    0  0.00000000000E+00  0.00000000000E+00  0.92600584127E+02  0.92600584127E+02  0.00000000000E+00 0.  1.
          1   -1    0    0  501    0 -0.00000000000E+00 -0.00000000000E+00 -0.55082087127E+03  0.55082087127E+03  0.00000000000E+00 0.  1.
          2    1    1    2  501    0 -0.95974465792E+01 -0.10959705593E+03 -0.10887428040E+03  0.15478124751E+03  0.00000000000E+00 0.  1.
          1    1    1    2  502    0  0.19874152749E+02  0.82595863821E+02 -0.34891248680E+03  0.35910580908E+03  0.00000000000E+00 0.  1.
         22    1    1    2    0    0  0.30438905240E+01  0.18009086010E+02  0.62223655186E+02  0.64848868249E+02  0.00000000000E+00 0.  1.
         22    1    1    2    0    0 -0.13320596693E+02  0.89921060980E+01 -0.62657175132E+02  0.64685530560E+02  0.00000000000E+00 0. -1.
</event>
<event>
 6    1  0.1726037E-005  0.2358865E+03  0.7818608E-02  0.1216062E+00
          2   -1    0    0  502    0  0.00000000000E+00  0.00000000000E+00  0.30212533557E+02  0.30212533557E+02  0.00000000000E+00 0.  1.
          1   -1    0    0  501    0 -0.00000000000E+00 -0.00000000000E+00 -0.23559970431E+04  0.23559970431E+04  0.00000000000E+00 0.  1.
          2    1    1    2  501    0  0.13571923252E+03  0.19060452976E+03 -0.13228419828E+04  0.13433766071E+04  0.00000000000E+00 0.  1.
          1    1    1    2  502    0 -0.70800641302E+02 -0.46991979645E+02 -0.31531516873E+03  0.32656489798E+03  0.00000000000E+00 0.  1.
         22    1    1    2    0    0  0.16864612403E+02 -0.21876289556E+02 -0.23885925575E+02  0.36517456604E+02  0.00000000000E+00 0. -1.
         22    1    1    2    0    0 -0.81783203617E+02 -0.12173626056E+03 -0.66374143239E+03  0.67975061500E+03  0.00000000000E+00 0.  1.
</event>
<event>
 6    1  0.1726037E-005  0.1499207E+03  0.7818608E-02  0.1242729E+00
          2   -1    0    0  502    0  0.00000000000E+00  0.00000000000E+00  0.74380891993E+03  0.74380891993E+03  0.00000000000E+00 0.  1.
          1   -1    0    0  501    0 -0.00000000000E+00 -0.00000000000E+00 -0.11079834468E+03  0.11079834468E+03  0.00000000000E+00 0. -1.
          2    1    1    2  501    0  0.35920624343E+02  0.50089422399E+02  0.46726864562E+03  0.47131648461E+03  0.00000000000E+00 0.  1.
          1    1    1    2  502    0 -0.74870146095E+02  0.43534633954E+02 -0.61391918648E+02  0.10615917673E+03  0.00000000000E+00 0. -1.
         22    1    1    2    0    0  0.45732034374E+02 -0.41859129047E+02  0.21468915693E+03  0.22346149501E+03  0.00000000000E+00 0.  1.
         22    1    1    2    0    0 -0.67825126224E+01 -0.51764927306E+02  0.12444691346E+02  0.53670108246E+02  0.00000000000E+00 0.  1.
</event>
<event>
 6    1  0.1726037E-005  0.5861079E+02  0.7818608E-02  0.1487927E+00
          2   -1    0    0  502    0  0.00000000000E+00  0.00000000000E+00  0.17539032010E+03  0.17539032010E+03  0.00000000000E+00 0.  1.
          1   -1    0    0  501    0 -0.00000000000E+00 -0.00000000000E+00 -0.13459567784E+03  0.13459567784E+03  0.00000000000E+00 0. -1.
          2    1    1    2  501    0 -0.28743859100E+02 -0.31686360939E+02  0.79607085956E+02  0.90374349458E+02  0.00000000000E+00 0.  1.
          1    1    1    2  502    0  0.37850704423E+02  0.21372574711E+02 -0.75342957774E+02  0.86982895222E+02  0.00000000000E+00 0. -1.
         22    1    1    2    0    0  0.75870435046E+01  0.12328850678E+02 -0.46092341852E+02  0.48312190652E+02  0.00000000000E+00 0. -1.
         22    1    1    2    0    0 -0.16693888828E+02 -0.20150644498E+01  0.82622855931E+02  0.84316562615E+02  0.00000000000E+00 0.  1.
</event>
<event>
 6    1  0.1726037E-005  0.1165098E+03  0.7818608E-02  0.1249326E+00
          2   -1    0    0  502    0  0.00000000000E+00  0.00000000000E+00  0.11054880091E+03  0.11054880091E+03  0.00000000000E+00 0.  1.
          1   -1    0    0  501    0 -0.00000000000E+00 -0.00000000000E+00 -0.39582672160E+03  0.39582672160E+03  0.00000000000E+00 0. -1.
          2    1    1    2  501    0 -0.50138130752E+02 -0.31703108384E+02  0.43492183540E+02  0.73556028071E+02  0.00000000000E+00 0.  1.
          1    1    1    2  502    0  0.32257806220E+01  0.11420529172E+03 -0.20259180062E+03  0.23258695578E+03  0.00000000000E+00 0. -1.
         22    1    1    2    0    0  0.56824405433E+02 -0.10076143110E+03 -0.58884871749E+02  0.12980488116E+03  0.00000000000E+00 0. -1.
         22    1    1    2    0    0 -0.99120553026E+01  0.18259247765E+02 -0.67293431859E+02  0.70427657498E+02  0.00000000000E+00 0. -1.
</event>
<event>
 6    1  0.1726037E-005  0.1141422E+03  0.7818608E-02  0.1253808E+00
          2   -1    0    0  502    0  0.00000000000E+00  0.00000000000E+00  0.71843813428E+03  0.71843813428E+03  0.00000000000E+00 0.  1.
          1   -1    0    0  501    0 -0.00000000000E+00 -0.00000000000E+00 -0.68138031191E+02  0.68138031191E+02  0.00000000000E+00 0.  1.
          2    1    1    2  501    0 -0.78508320818E+02 -0.28586509729E+02  0.50648034736E+01  0.83704224567E+02  0.00000000000E+00 0.  1.
          1    1    1    2  502    0  0.51325005222E+02 -0.74206346077E+02  0.10789154440E+03  0.14064644792E+03  0.00000000000E+00 0.  1.
         22    1    1    2    0    0  0.25250644035E+02  0.12476381183E+03  0.51623052805E+03  0.53169310872E+03  0.00000000000E+00 0.  1.
         22    1    1    2    0    0  0.19326715615E+01 -0.21970956022E+02  0.21113227165E+02  0.30532384270E+02  0.00000000000E+00 0. -1.
</event>
<event>
 6    1  0.1726037E-005  0.3534898E+02  0.7818608E-02  0.1571571E+00
          2   -1    0    0  502    0  0.00000000000E+00  0.00000000000E+00  0.44445541088E+03  0.44445541088E+03  0.00000000000E+00 0. -1.
          1   -1    0    0  501    0 -0.00000000000E+00 -0.00000000000E+00 -0.70875874228E+02  0.70875874228E+02  0.00000000000E+00 0.  1.
          2    1    1    2  501    0 -0.31963936958E+02 -0.29938766640E+01  0.33432585144E+03  0.33586370972E+03  0.00000000000E+00 0. -1.
          1    1    1    2  502    0  0.99844654372E+01  0.31572879566E+02 -0.14069341723E+02  0.35978919531E+02  0.00000000000E+00 0.  1.
         22    1    1    2    0    0  0.28466600247E+02 -0.82972423239E+01 -0.38858755970E+02  0.48879387019E+02  0.00000000000E+00 0.  1.
         22    1    1    2    0    0 -0.64871287262E+01 -0.20281760578E+02  0.92181782898E+02  0.94609268835E+02  0.00000000000E+00 0. -1.
</event>
<event>
 6    1  0.1726037E-005  0.8315602E+02  0.7818608E-02  0.1431592E+00
          2   -1    0    0  502    0  0.00000000000E+00  0.00000000000E+00  0.69149274126E+02  0.69149274126E+02  0.00000000000E+00 0.  1.
          1   -1    0    0  501    0 -0.00000000000E+00 -0.00000000000E+00 -0.74161942717E+03  0.74161942717E+03  0.00000000000E+00 0.  1.
          2    1    1    2  501    0 -0.42393268896E+02 -0.14918455187E+02 -0.26461630245E+02  0.52153306972E+02  0.00000000000E+00 0.  1.
          1    1    1    2  502    0  0.35930528513E+02  0.22468050237E+02 -0.63521363945E+03  0.63662562304E+03  0.00000000000E+00 0.  1.
         22    1    1    2    0    0  0.49726305211E+01 -0.20821029558E+02 -0.63817028127E+02  0.67311629048E+02  0.00000000000E+00 0.  1.
         22    1    1    2    0    0  0.14901098614E+01  0.13271434508E+02  0.53022144782E+02  0.54678142238E+02  0.00000000000E+00 0.  1.
</event>
<event>
 6    1  0.1726037E-005  0.9712551E+02  0.7818608E-02  0.1371653E+00
          2   -1    0    0  502    0  0.00000000000E+00  0.00000000000E+00  0.25054275514E+03  0.25054275514E+03  0.00000000000E+00 0. -1.
          1   -1    0    0  501    0 -0.00000000000E+00 -0.00000000000E+00 -0.63125709531E+03  0.63125709531E+03  0.00000000000E+00 0. -1.
          2    1    1    2  501    0 -0.16188348614E+03  0.30745637527E+01 -0.43727963069E+03  0.46629303174E+03  0.00000000000E+00 0. -1.
          1    1    1    2  502    0  0.13951329564E+03 -0.70888310132E+02 -0.11265781245E+03  0.19282348114E+03  0.00000000000E+00 0. -1.
         22    1    1    2    0    0  0.12032586497E+02  0.67529576721E+01 -0.19596680084E+02  0.23966965712E+02  0.00000000000E+00 0. -1.
         22    1    1    2    0    0  0.10337604006E+02  0.61060788707E+02  0.18881978305E+03  0.19871637186E+03  0.00000000000E+00 0. -1.
</event>
<event>
 6    1  0.1726037E-005  0.7795699E+02  0.7818608E-02  0.1433050E+00
          2   -1    0    0  502    0  0.00000000000E+00  0.00000000000E+00  0.66368155620E+03  0.66368155620E+03  0.00000000000E+00 0. -1.
          1   -1    0    0  501    0 -0.00000000000E+00 -0.00000000000E+00 -0.59912126727E+02  0.59912126727E+02  0.00000000000E+00 0. -1.
          2    1    1    2  501    0  0.64714977658E+02  0.45418289533E+02  0.48819965534E+03  0.49456016098E+03  0.00000000000E+00 0. -1.
          1    1    1    2  502    0  0.17481931034E+02 -0.20520506458E+02 -0.10636972628E+02  0.28980239555E+02  0.00000000000E+00 0. -1.
         22    1    1    2    0    0 -0.81586228880E+02 -0.90536179250E+01  0.15027396504E+03  0.17123243066E+03  0.00000000000E+00 0. -1.
         22    1    1    2    0    0 -0.61067981126E+00 -0.15844165150E+02 -0.24067218276E+02  0.28820851734E+02  0.00000000000E+00 0.  1.
</event>
<event>
 6    1  0.1726037E-005  0.1078011E+03  0.7818608E-02  0.1321277E+00
          2   -1    0    0  502    0  0.00000000000E+00  0.00000000000E+00  0.39088041539E+03  0.39088041539E+03  0.00000000000E+00 0. -1.
          1   -1    0    0  501    0 -0.00000000000E+00 -0.00000000000E+00 -0.10564532335E+03  0.10564532335E+03  0.00000000000E+00 0.  1.
          2    1    1    2  501    0 -0.14755860484E+02 -0.13356105491E+03  0.11643328830E+03  0.17780045397E+03  0.00000000000E+00 0. -1.
          1    1    1    2  502    0  0.13503937773E+02  0.80490837960E+02 -0.20350784498E+02  0.84114717860E+02  0.00000000000E+00 0.  1.
         22    1    1    2    0    0  0.37236733132E+00  0.15553970391E+02 -0.18168913452E+02  0.23920160292E+02  0.00000000000E+00 0.  1.
         22    1    1    2    0    0  0.87955537963E+00  0.37516246560E+02  0.20732150170E+03  0.21069040662E+03  0.00000000000E+00 0. -1.
</event>
<event>
 6    1  0.1726037E-005  0.1209088E+03  0.7818608E-02  0.1298690E+00
          2   -1    0    0  502    0  0.00000000000E+00  0.00000000000E+00  0.54561317396E+03  0.54561317396E+03  0.00000000000E+00 0. -1.
          1   -1    0    0  501    0 -0.00000000000E+00 -0.00000000000E+00 -0.18901596303E+03  0.18901596303E+03  0.00000000000E+00 0. -1.
          2    1    1    2  501    0  0.16442004034E+03  0.10398472290E+03 -0.50758000966E+01  0.19460867403E+03  0.00000000000E+00 0. -1.
          1    1    1    2  502    0 -0.19707240051E+03 -0.15163565557E+03  0.16074748462E+03  0.29609231144E+03  0.00000000000E+00 0. -1.
         22    1    1    2    0    0  0.12571952287E+02 -0.19248709231E+02 -0.74420093943E+01  0.24165063526E+02  0.00000000000E+00 0. -1.
         22    1    1    2    0    0  0.20080407879E+02  0.66899641904E+02  0.20836753581E+03  0.21976308800E+03  0.00000000000E+00 0. -1.
</event>
<event>
 6    1  0.1726037E-005  0.1007261E+03  0.7818608E-02  0.1384210E+00
          2   -1    0    0  502    0  0.00000000000E+00  0.00000000000E+00  0.43397816765E+03  0.43397816765E+03  0.00000000000E+00 0.  1.
          1   -1    0    0  501    0 -0.00000000000E+00 -0.00000000000E+00 -0.23342673083E+03  0.23342673083E+03  0.00000000000E+00 0.  1.
          2    1    1    2  501    0  0.75020731341E+01  0.96150465329E+02  0.36478414351E+03  0.37731772346E+03  0.00000000000E+00 0.  1.
          1    1    1    2  502    0  0.78476098889E+00 -0.77787473165E+02 -0.14426414259E+03  0.16390134127E+03  0.00000000000E+00 0.  1.
         22    1    1    2    0    0  0.74885360251E+01 -0.18746275804E+02 -0.70455450919E+02  0.73290324004E+02  0.00000000000E+00 0.  1.
         22    1    1    2    0    0 -0.15775370148E+02  0.38328364027E+00  0.50486886830E+02  0.52895509747E+02  0.00000000000E+00 0.  1.
</event>
<event>
 6    1  0.1726037E-005  0.5205108E+02  0.7818608E-02  0.1504475E+00
          2   -1    0    0  502    0  0.00000000000E+00  0.00000000000E+00  0.10828628839E+03  0.10828628839E+03  0.00000000000E+00 0.  1.
          1   -1    0    0  501    0 -0.00000000000E+00 -0.00000000000E+00 -0.22287962465E+03  0.22287962465E+03  0.00000000000E+00 0.  1.
          2    1    1    2  501    0 -0.27451016569E+02 -0.44994071997E+02  0.17310217131E+02  0.55476737852E+02  0.00000000000E+00 0.  1.
          1    1    1    2  502    0 -0.80322360873E+00  0.39923528261E+02 -0.14082383403E+03  0.14637583649E+03  0.00000000000E+00 0.  1.
         22    1    1    2    0    0  0.19036336555E+02 -0.15722059531E+01  0.67238298144E+02  0.69898803125E+02  0.00000000000E+00 0.  1.
         22    1    1    2    0    0  0.92179036224E+01  0.66427496891E+01 -0.58318017508E+02  0.59414535567E+02  0.00000000000E+00 0.  1.
</event>
<event>
 6    1  0.1878114E-005  0.5329766E+02  0.7818608E-02  0.1476163E+00
          2   -1    0    0  502    0  0.00000000000E+00  0.00000000000E+00  0.44206445693E+03  0.44206445693E+03  0.00000000000E+00 0.  1.
          1   -1    0    0  501    0 -0.00000000000E+00 -0.00000000000E+00 -0.20787433000E+03  0.20787433000E+03  0.00000000000E+00 0.  1.
          2    1    1    2  501    0  0.14107674660E+03  0.19320399126E+02  0.28887118199E+03  0.32205975538E+03  0.00000000000E+00 0.  1.
          1    1    1    2  502    0 -0.11401707823E+03 -0.30403336295E+02 -0.12993048113E+03  0.17551691346E+03  0.00000000000E+00 0.  1.
         22    1    1    2    0    0 -0.10404387738E+02 -0.33121595825E+01 -0.36689140470E+02  0.38279429380E+02  0.00000000000E+00 0.  1.
         22    1    1    2    0    0 -0.16655280634E+02  0.14395096752E+02  0.11193856654E+03  0.11408268871E+03  0.00000000000E+00 0.  1.
</event>
<event>
 6    1  0.1726037E-005  0.3933169E+02  0.7818608E-02  0.1519910E+00
          2   -1    0    0  502    0  0.00000000000E+00  0.00000000000E+00  0.56548261550E+02  0.56548261550E+02  0.00000000000E+00 0.  1.
          1   -1    0    0  501    0 -0.00000000000E+00 -0.00000000000E+00 -0.41522639364E+03  0.41522639364E+03  0.00000000000E+00 0. -1.
          2    1    1    2  501    0  0.61155122993E+02 -0.25029170587E+02  0.70669323789E+00  0.66082583666E+02  0.00000000000E+00 0.  1.
          1    1    1    2  502    0 -0.35197303590E+02  0.42386304267E+01 -0.17695155312E+03  0.18046791493E+03  0.00000000000E+00 0. -1.
         22    1    1    2    0    0 -0.36892314211E+02 -0.11214206619E+02  0.11255974344E+01  0.38575487651E+02  0.00000000000E+00 0. -1.
         22    1    1    2    0    0  0.10934494808E+02  0.32004746780E+02 -0.18355886964E+03  0.18664866894E+03  0.00000000000E+00 0.  1.
</event>
<event>
 6    1  0.1726037E-005  0.3987524E+02  0.7818608E-02  0.1516707E+00
          2   -1    0    0  502    0  0.00000000000E+00  0.00000000000E+00  0.19517138671E+03  0.19517138671E+03  0.00000000000E+00 0.  1.
          1   -1    0    0  501    0 -0.00000000000E+00 -0.00000000000E+00 -0.65254302263E+02  0.65254302263E+02  0.00000000000E+00 0.  1.
          2    1    1    2  501    0  0.38369912268E+02 -0.73852581169E+01  0.48746362480E+02  0.62473995069E+02  0.00000000000E+00 0.  1.
          1    1    1    2  502    0 -0.37310356949E+01  0.21172022660E+02 -0.20775516744E+02  0.29896442378E+02  0.00000000000E+00 0.  1.
         22    1    1    2    0    0  0.19442084550E+01  0.12530183522E+02 -0.27880919555E+02  0.30628926212E+02  0.00000000000E+00 0.  1.
         22    1    1    2    0    0 -0.36583085028E+02 -0.26316948065E+02  0.12982715826E+03  0.13742632531E+03  0.00000000000E+00 0.  1.
</event>
<event>
 6    1  0.1726037E-005  0.3955019E+02  0.7818608E-02  0.1535309E+00
          2   -1    0    0  502    0  0.00000000000E+00  0.00000000000E+00  0.11299577768E+03  0.11299577768E+03  0.00000000000E+00 0.  1.
          1   -1    0    0  501    0 -0.00000000000E+00 -0.00000000000E+00 -0.14585046296E+03  0.14585046296E+03  0.00000000000E+00 0. -1.
          2    1    1    2  501    0  0.38559851749E+02  0.32091628087E+02  0.36302565632E+02  0.61924236221E+02  0.00000000000E+00 0.  1.
          1    1    1    2  502    0 -0.41893514559E+02 -0.52276310883E+01 -0.52549890190E+02  0.67408349986E+02  0.00000000000E+00 0. -1.
         22    1    1    2    0    0  0.20281532006E+02 -0.36916729142E+01  0.51570385108E+02  0.55538037503E+02  0.00000000000E+00 0.  1.
         22    1    1    2    0    0 -0.16947869196E+02 -0.23172324085E+02 -0.68177745832E+02  0.73975616932E+02  0.00000000000E+00 0. -1.
</event>
<event>
 6    1  0.1726037E-005  0.6948662E+02  0.7818608E-02  0.1400889E+00
          2   -1    0    0  502    0  0.00000000000E+00  0.00000000000E+00  0.91151362665E+02  0.91151362665E+02  0.00000000000E+00 0.  1.
          1   -1    0    0  501    0 -0.00000000000E+00 -0.00000000000E+00 -0.16075681841E+03  0.16075681841E+03  0.00000000000E+00 0. -1.
          2    1    1    2  501    0  0.99534704129E+01  0.40285360447E+02  0.34908208886E+02  0.54226975642E+02  0.00000000000E+00 0.  1.
          1    1    1    2  502    0  0.25175476516E+02  0.70207765904E+01 -0.28491997443E+02  0.38663805297E+02  0.00000000000E+00 0. -1.
         22    1    1    2    0    0 -0.36143953534E+02 -0.69198864979E+01  0.28767691539E+02  0.46710280267E+02  0.00000000000E+00 0.  1.
         22    1    1    2    0    0  0.10150066050E+01 -0.40386250540E+02 -0.10478935873E+03  0.11230711987E+03  0.00000000000E+00 0.  1.
</event>
<event>
 6    1  0.1726037E-005  0.6549918E+02  0.7818608E-02  0.1472625E+00
          2   -1    0    0  502    0  0.00000000000E+00  0.00000000000E+00  0.89389348600E+02  0.89389348600E+02  0.00000000000E+00 0. -1.
          1   -1    0    0  501    0 -0.00000000000E+00 -0.00000000000E+00 -0.21510591438E+03  0.21510591438E+03  0.00000000000E+00 0. -1.
          2    1    1    2  501    0  0.37886319972E+02  0.31937633410E+02  0.40290354773E+02  0.63864687869E+02  0.00000000000E+00 0. -1.
          1    1    1    2  502    0 -0.34065302751E+02 -0.49802403430E+01 -0.81896494427E+02  0.88838524553E+02  0.00000000000E+00 0. -1.
         22    1    1    2    0    0  0.14720225670E+02 -0.26365022167E+01  0.30071919901E+02  0.33585064452E+02  0.00000000000E+00 0. -1.
         22    1    1    2    0    0 -0.18541242891E+02 -0.24320890851E+02 -0.11418234603E+03  0.11820698610E+03  0.00000000000E+00 0. -1.
</event>
<event>
 6    1  0.1726037E-005  0.1343538E+03  0.7818608E-02  0.1278737E+00
          2   -1    0    0  502    0  0.00000000000E+00  0.00000000000E+00  0.17260437023E+02  0.17260437023E+02  0.00000000000E+00 0. -1.
          1   -1    0    0  501    0 -0.00000000000E+00 -0.00000000000E+00 -0.15949993058E+04  0.15949993058E+04  0.00000000000E+00 0. -1.
          2    1    1    2  501    0  0.64682648483E+02  0.77172462748E+02 -0.85839550976E+03  0.86428136923E+03  0.00000000000E+00 0. -1.
          1    1    1    2  502    0 -0.47667546410E+02 -0.16400901288E+02 -0.90248359167E+02  0.10337287302E+03  0.00000000000E+00 0. -1.
         22    1    1    2    0    0 -0.54008038100E+02 -0.81646455699E+02 -0.45362856756E+03  0.46407099588E+03  0.00000000000E+00 0. -1.
         22    1    1    2    0    0  0.36992936028E+02  0.20874894240E+02 -0.17546643226E+03  0.18053450467E+03  0.00000000000E+00 0. -1.
</event>
<event>
 6    1  0.1726037E-005  0.2103969E+03  0.7818608E-02  0.1260651E+00
          2   -1    0    0  502    0  0.00000000000E+00  0.00000000000E+00  0.49250333329E+03  0.49250333329E+03  0.00000000000E+00 0.  1.
          1   -1    0    0  501    0 -0.00000000000E+00 -0.00000000000E+00 -0.55664581414E+03  0.55664581414E+03  0.00000000000E+00 0. -1.
          2    1    1    2  501    0  0.20972642661E+03 -0.32403504034E+02  0.36756973969E+03  0.42443217906E+03  0.00000000000E+00 0.  1.
          1    1    1    2  502    0 -0.18534117418E+03  0.32375005324E+02 -0.45551422560E+03  0.49284145680E+03  0.00000000000E+00 0. -1.
         22    1    1    2    0    0 -0.17077066707E+02  0.13918125630E+02 -0.50941918868E+02  0.55501527243E+02  0.00000000000E+00 0.  1.
         22    1    1    2    0    0 -0.73081857200E+01 -0.13889626920E+02  0.74743923943E+02  0.76373984319E+02  0.00000000000E+00 0.  1.
</event>
<event>
 6    1  0.1726037E-005  0.6737776E+02  0.7818608E-02  0.1415882E+00
          2   -1    0    0  502    0  0.00000000000E+00  0.00000000000E+00  0.73027311501E+02  0.73027311501E+02  0.00000000000E+00 0.  1.
          1   -1    0    0  501    0 -0.00000000000E+00 -0.00000000000E+00 -0.55271226116E+03  0.55271226116E+03  0.00000000000E+00 0. -1.
          2    1    1    2  501    0 -0.71590333457E+02  0.55685316712E+02 -0.94687596093E+02  0.13111739471E+03  0.00000000000E+00 0.  1.
          1    1    1    2  502    0  0.27449012424E+02 -0.34530075863E+02 -0.35981894837E+03  0.36251268947E+03  0.00000000000E+00 0. -1.
         22    1    1    2    0    0  0.16459658277E+02 -0.52482415065E+01 -0.72774622024E+02  0.74797125615E+02  0.00000000000E+00 0. -1.
         22    1    1    2    0    0  0.27681662755E+02 -0.15906999342E+02  0.47596216827E+02  0.57312362865E+02  0.00000000000E+00 0.  1.
</event>
<event>
 6    1  0.1726037E-005  0.1648385E+03  0.7818608E-02  0.1235008E+00
          2   -1    0    0  502    0  0.00000000000E+00  0.00000000000E+00  0.74648033493E+02  0.74648033493E+02  0.00000000000E+00 0. -1.
          1   -1    0    0  501    0 -0.00000000000E+00 -0.00000000000E+00 -0.44554966907E+03  0.44554966907E+03  0.00000000000E+00 0. -1.
          2    1    1    2  501    0 -0.52130718429E+02 -0.42108270616E+02 -0.28343012009E+03  0.29124448704E+03  0.00000000000E+00 0. -1.
          1    1    1    2  502    0  0.33557514978E+02  0.52553550278E+02  0.13779961098E+02  0.63858200618E+02  0.00000000000E+00 0. -1.
         22    1    1    2    0    0 -0.52984077061E+01 -0.59524609569E+02 -0.92051014734E+02  0.10974808236E+03  0.00000000000E+00 0.  1.
         22    1    1    2    0    0  0.23871611158E+02  0.49079329907E+02 -0.92004618531E+01  0.55346932541E+02  0.00000000000E+00 0. -1.
</event>
<event>
 6    1  0.1726037E-005  0.5740143E+02  0.7818608E-02  0.1514161E+00
          2   -1    0    0  502    0  0.00000000000E+00  0.00000000000E+00  0.37101884796E+02  0.37101884796E+02  0.00000000000E+00 0. -1.
          1   -1    0    0  501    0 -0.00000000000E+00 -0.00000000000E+00 -0.23539247885E+03  0.23539247885E+03  0.00000000000E+00 0. -1.
          2    1    1    2  501    0  0.10214250263E+02 -0.25361920720E+02 -0.74135903811E+02  0.79017024526E+02  0.00000000000E+00 0. -1.
          1    1    1    2  502    0  0.19420759485E+02  0.93857005281E+01 -0.25251791422E+02  0.33210092493E+02  0.00000000000E+00 0. -1.
         22    1    1    2    0    0 -0.11494003070E+02 -0.48830241909E+01  0.27856907723E+02  0.30528074615E+02  0.00000000000E+00 0. -1.
         22    1    1    2    0    0 -0.18141006677E+02  0.20859244383E+02 -0.12675980655E+03  0.12973917201E+03  0.00000000000E+00 0. -1.
</event>
<event>
 6    1  0.1726037E-005  0.1509473E+03  0.7818608E-02  0.1338410E+00
          2   -1    0    0  502    0  0.00000000000E+00  0.00000000000E+00  0.12984003583E+03  0.12984003583E+03  0.00000000000E+00 0.  1.
          1   -1    0    0  501    0 -0.00000000000E+00 -0.00000000000E+00 -0.26594078373E+03  0.26594078373E+03  0.00000000000E+00 0.  1.
          2    1    1    2  501    0 -0.95552978442E+02 -0.32461203649E+02  0.57601213333E+02  0.11619811190E+03  0.00000000000E+00 0.  1.
          1    1    1    2  502    0  0.42384260053E+02 -0.15431162373E+02 -0.13657501536E+02  0.47128267745E+02  0.00000000000E+00 0.  1.
         22    1    1    2    0    0  0.54691713596E+02  0.57887897503E+02 -0.19712591899E+03  0.21260484508E+03  0.00000000000E+00 0.  1.
         22    1    1    2    0    0 -0.15229952077E+01 -0.99955314807E+01  0.17081459284E+02  0.19849594839E+02  0.00000000000E+00 0. -1.
</event>
<event>
 6    1  0.1726037E-005  0.1039698E+03  0.7818608E-02  0.1332410E+00
          2   -1    0    0  502    0  0.00000000000E+00  0.00000000000E+00  0.51470784745E+02  0.51470784745E+02  0.00000000000E+00 0. -1.
          1   -1    0    0  501    0 -0.00000000000E+00 -0.00000000000E+00 -0.65503019804E+03  0.65503019804E+03  0.00000000000E+00 0. -1.
          2    1    1    2  501    0  0.55631711469E+02  0.10609197779E+03 -0.82509083599E+02  0.14545839250E+03  0.00000000000E+00 0. -1.
          1    1    1    2  502    0 -0.29709586123E+02 -0.38289611239E+02 -0.25394774541E+03  0.25853087095E+03  0.00000000000E+00 0. -1.
         22    1    1    2    0    0  0.47449076223E+01 -0.52313784347E+02 -0.26266968106E+03  0.26787050515E+03  0.00000000000E+00 0. -1.
         22    1    1    2    0    0 -0.30667032969E+02 -0.15488582200E+02 -0.44329032335E+01  0.34641214193E+02  0.00000000000E+00 0. -1.
</event>
<event>
 6    1  0.1726037E-005  0.4497475E+02  0.7818608E-02  0.1490577E+00
          2   -1    0    0  502    0  0.00000000000E+00  0.00000000000E+00  0.95651278038E+02  0.95651278038E+02  0.00000000000E+00 0.  1.
          1   -1    0    0  501    0 -0.00000000000E+00 -0.00000000000E+00 -0.16882772676E+03  0.16882772676E+03  0.00000000000E+00 0.  1.
          2    1    1    2  501    0  0.23341623352E+02 -0.14971112022E+02 -0.41501199940E+02  0.49913076166E+02  0.00000000000E+00 0.  1.
          1    1    1    2  502    0 -0.19801446416E+02  0.37983634974E+02 -0.69375498491E+02  0.81534125351E+02  0.00000000000E+00 0.  1.
         22    1    1    2    0    0 -0.22379441177E+02  0.75058527297E+01 -0.40569204518E+02  0.46936527010E+02  0.00000000000E+00 0. -1.
         22    1    1    2    0    0  0.18839264240E+02 -0.30518375682E+02  0.78269454226E+02  0.86095276271E+02  0.00000000000E+00 0.  1.
</event>
<event>
 6    1  0.1726037E-005  0.4632126E+02  0.7818608E-02  0.1508280E+00
          2   -1    0    0  502    0  0.00000000000E+00  0.00000000000E+00  0.13937912379E+03  0.13937912379E+03  0.00000000000E+00 0.  1.
          1   -1    0    0  501    0 -0.00000000000E+00 -0.00000000000E+00 -0.14961144586E+03  0.14961144586E+03  0.00000000000E+00 0.  1.
          2    1    1    2  501    0  0.30300555440E+02  0.59352141404E+02  0.47113048578E+02  0.81611516929E+02  0.00000000000E+00 0.  1.
          1    1    1    2  502    0 -0.15582790608E+02 -0.58834107094E+02 -0.56900069603E+02  0.83318025910E+02  0.00000000000E+00 0.  1.
         22    1    1    2    0    0  0.14946891220E+02  0.72347387260E+01  0.56769604737E+02  0.59148449038E+02  0.00000000000E+00 0.  1.
         22    1    1    2    0    0 -0.29664656052E+02 -0.77527730356E+01 -0.57214905790E+02  0.64912577772E+02  0.00000000000E+00 0.  1.
</event>
<event>
 6    1  0.1726037E-005  0.6345828E+02  0.7818608E-02  0.1429867E+00
          2   -1    0    0  502    0  0.00000000000E+00  0.00000000000E+00  0.13506832349E+03  0.13506832349E+03  0.00000000000E+00 0.  1.
          1   -1    0    0  501    0 -0.00000000000E+00 -0.00000000000E+00 -0.38577706936E+03  0.38577706936E+03  0.00000000000E+00 0.  1.
          2    1    1    2  501    0  0.39189343015E+02 -0.13357701513E+03  0.65195114154E+01  0.13935970582E+03  0.00000000000E+00 0.  1.
          1    1    1    2  502    0 -0.60854640754E+02  0.11562722282E+03 -0.20858509410E+03  0.24613143529E+03  0.00000000000E+00 0.  1.
         22    1    1    2    0    0  0.10709705454E+02  0.26228719091E+02 -0.88644390484E+02  0.93061654081E+02  0.00000000000E+00 0.  1.
         22    1    1    2    0    0  0.10955592285E+02 -0.82789267818E+01  0.40001227295E+02  0.42292597651E+02  0.00000000000E+00 0. -1.
</event>
<event>
 6    1  0.1726037E-005  0.5712040E+02  0.7818608E-02  0.1485377E+00
          2   -1    0    0  502    0  0.00000000000E+00  0.00000000000E+00  0.39757160219E+02  0.39757160219E+02  0.00000000000E+00 0.  1.
          1   -1    0    0  501    0 -0.00000000000E+00 -0.00000000000E+00 -0.42192638808E+03  0.42192638808E+03  0.00000000000E+00 0.  1.
          2    1    1    2  501    0  0.18640465851E+02  0.36988761425E+02 -0.35707852255E+02  0.54687166242E+02  0.00000000000E+00 0.  1.
          1    1    1    2  502    0 -0.15959121367E+02 -0.30688196423E+02 -0.25089044120E+03  0.25326364216E+03  0.00000000000E+00 0.  1.
         22    1    1    2    0    0 -0.18242954170E+02 -0.16895334802E+02 -0.12019313977E+03  0.12273813003E+03  0.00000000000E+00 0.  1.
         22    1    1    2    0    0  0.15561609687E+02  0.10594769800E+02  0.24622205372E+02  0.30994609862E+02  0.00000000000E+00 0.  1.
</event>
<event>
 6    1  0.1726037E-005  0.6957812E+02  0.7818608E-02  0.1366156E+00
          2   -1    0    0  502    0  0.00000000000E+00  0.00000000000E+00  0.25407056112E+03  0.25407056112E+03  0.00000000000E+00 0. -1.
          1   -1    0    0  501    0 -0.00000000000E+00 -0.00000000000E+00 -0.46093647965E+02  0.46093647965E+02  0.00000000000E+00 0. -1.
          2    1    1    2  501    0 -0.38179249684E+02 -0.12369952702E+01  0.92688562480E+02  0.10025145824E+03  0.00000000000E+00 0. -1.
          1    1    1    2  502    0 -0.24741981358E+00  0.25568744779E+02  0.27982186243E+02  0.37905470226E+02  0.00000000000E+00 0. -1.
         22    1    1    2    0    0  0.29839242774E+02  0.39499121982E+02 -0.46701761295E+01  0.49722948341E+02  0.00000000000E+00 0. -1.
         22    1    1    2    0    0  0.85874267239E+01 -0.63830871490E+02  0.91976340564E+02  0.11228433228E+03  0.00000000000E+00 0. -1.
</event>
<event>
 6    1  0.1726037E-005  0.7826176E+02  0.7818608E-02  0.1354756E+00
          2   -1    0    0  502    0  0.00000000000E+00  0.00000000000E+00  0.34747053053E+03  0.34747053053E+03  0.00000000000E+00 0. -1.
          1   -1    0    0  501    0 -0.00000000000E+00 -0.00000000000E+00 -0.13293108129E+03  0.13293108129E+03  0.00000000000E+00 0. -1.
          2    1    1    2  501    0  0.12340738138E+03 -0.59597099213E+01  0.43175624975E+02  0.13087793745E+03  0.00000000000E+00 0. -1.
          1    1    1    2  502    0 -0.57578270899E+02  0.13908344837E+01 -0.55431211799E+02  0.79936293020E+02  0.00000000000E+00 0. -1.
         22    1    1    2    0    0 -0.53946121061E+02  0.96861294383E+01  0.24285572604E+03  0.24896366954E+03  0.00000000000E+00 0. -1.
         22    1    1    2    0    0 -0.11882989416E+02 -0.51172540006E+01 -0.16060689977E+02  0.20623711802E+02  0.00000000000E+00 0. -1.
</event>
<event>
 6    1  0.1726037E-005  0.3774323E+02  0.7818608E-02  0.1535682E+00
          2   -1    0    0  502    0  0.00000000000E+00  0.00000000000E+00  0.11177537539E+03  0.11177537539E+03  0.00000000000E+00 0.  1.
          1   -1    0    0  501    0 -0.00000000000E+00 -0.00000000000E+00 -0.86731797208E+02  0.86731797208E+02  0.00000000000E+00 0. -1.
          2    1    1    2  501    0  0.26051261123E+02  0.70146271202E+01  0.28248024994E+02  0.39061798676E+02  0.00000000000E+00 0.  1.
          1    1    1    2  502    0  0.74336820107E+00 -0.21594823248E+02 -0.21025077492E+02  0.30148679423E+02  0.00000000000E+00 0. -1.
         22    1    1    2    0    0 -0.43839425116E+01 -0.96504694840E+01 -0.51468222894E+02  0.52548344228E+02  0.00000000000E+00 0. -1.
         22    1    1    2    0    0 -0.22410686813E+02  0.24230665612E+02  0.69288853572E+02  0.76748350267E+02  0.00000000000E+00 0.  1.
</event>
<event>
 6    1  0.1726037E-005  0.8663731E+02  0.7818608E-02  0.1439149E+00
          2   -1    0    0  502    0  0.00000000000E+00  0.00000000000E+00  0.31057009869E+03  0.31057009869E+03  0.00000000000E+00 0. -1.
          1   -1    0    0  501    0 -0.00000000000E+00 -0.00000000000E+00 -0.36504392885E+03  0.36504392885E+03  0.00000000000E+00 0. -1.
          2    1    1    2  501    0  0.36118219704E+02  0.13922332792E+02  0.11373151303E+03  0.12013831280E+03  0.00000000000E+00 0. -1.
          1    1    1    2  502    0 -0.78599916918E+02  0.22408393847E+02 -0.33057185971E+03  0.34052582499E+03  0.00000000000E+00 0. -1.
         22    1    1    2    0    0  0.38910777959E+02 -0.26414371609E+02  0.18451893126E+03  0.19041797095E+03  0.00000000000E+00 0. -1.
         22    1    1    2    0    0  0.35709192553E+01 -0.99163550300E+01 -0.22152414739E+02  0.24531918803E+02  0.00000000000E+00 0. -1.
</event>
<event>
 6    1  0.1726037E-005  0.1053225E+03  0.7818608E-02  0.1277688E+00
          2   -1    0    0  502    0  0.00000000000E+00  0.00000000000E+00  0.59484503126E+02  0.59484503126E+02  0.00000000000E+00 0.  1.
          1   -1    0    0  501    0 -0.00000000000E+00 -0.00000000000E+00 -0.66854869812E+03  0.66854869812E+03  0.00000000000E+00 0.  1.
          2    1    1    2  501    0 -0.10615340952E+02  0.62257601341E+02 -0.43573049169E+03  0.44028372191E+03  0.00000000000E+00 0.  1.
          1    1    1    2  502    0  0.75219767709E+02  0.21491234293E+01 -0.52258225734E+02  0.91616343207E+02  0.00000000000E+00 0.  1.
         22    1    1    2    0    0  0.34935139498E+02 -0.80725184627E+01 -0.49807545373E+02  0.61371174847E+02  0.00000000000E+00 0. -1.
         22    1    1    2    0    0 -0.99539566254E+02 -0.56334206307E+02 -0.71267932200E+02  0.13476196129E+03  0.00000000000E+00 0.  1.
</event>
<event>
 6    1  0.1726037E-005  0.1052043E+03  0.7818608E-02  0.1374415E+00
          2   -1    0    0  502    0  0.00000000000E+00  0.00000000000E+00  0.62421633470E+03  0.62421633470E+03  0.00000000000E+00 0.  1.
          1   -1    0    0  501    0 -0.00000000000E+00 -0.00000000000E+00 -0.65044624061E+03  0.65044624061E+03  0.00000000000E+00 0.  1.
          2    1    1    2  501    0 -0.10211763777E+03 -0.44449659023E+02  0.56434501586E+03  0.57522958986E+03  0.00000000000E+00 0.  1.
          1    1    1    2  502    0  0.68670480695E+02  0.43219632969E+02 -0.55840724957E+03  0.56427141338E+03  0.00000000000E+00 0.  1.
         22    1    1    2    0    0  0.19171898396E+02  0.89970596219E+01 -0.80986005080E+02  0.83709269432E+02  0.00000000000E+00 0.  1.
         22    1    1    2    0    0  0.14275258680E+02 -0.77670335679E+01  0.48818332881E+02  0.51452302632E+02  0.00000000000E+00 0.  1.
</event>
<event>
 6    1  0.1726037E-005  0.5536158E+02  0.7818608E-02  0.1506289E+00
          2   -1    0    0  502    0  0.00000000000E+00  0.00000000000E+00  0.10088832744E+03  0.10088832744E+03  0.00000000000E+00 0. -1.
          1   -1    0    0  501    0 -0.00000000000E+00 -0.00000000000E+00 -0.44505338069E+03  0.44505338069E+03  0.00000000000E+00 0.  1.
          2    1    1    2  501    0  0.21859635359E+02 -0.60100249153E+02  0.39771712953E+02  0.75310508944E+02  0.00000000000E+00 0. -1.
          1    1    1    2  502    0 -0.62105114035E+01  0.30946590111E+02 -0.32465424338E+03  0.32618497764E+03  0.00000000000E+00 0.  1.
         22    1    1    2    0    0 -0.89092349119E+00  0.15461643054E+02  0.40130535259E+02  0.43015299729E+02  0.00000000000E+00 0. -1.
         22    1    1    2    0    0 -0.14758200464E+02  0.13692015987E+02 -0.99413058089E+02  0.10143092182E+03  0.00000000000E+00 0. -1.
</event>
<event>
 6    1  0.1726037E-005  0.1069591E+03  0.7818608E-02  0.1302194E+00
          2   -1    0    0  502    0  0.00000000000E+00  0.00000000000E+00  0.16521578381E+03  0.16521578381E+03  0.00000000000E+00 0.  1.
          1   -1    0    0  501    0 -0.00000000000E+00 -0.00000000000E+00 -0.35046940498E+03  0.35046940498E+03  0.00000000000E+00 0.  1.
          2    1    1    2  501    0  0.16518323965E+02 -0.89687276833E+02  0.96977862374E+02  0.13312163026E+03  0.00000000000E+00 0.  1.
          1    1    1    2  502    0 -0.67751267232E+02  0.64901459691E+02 -0.20149568906E+03  0.22226773583E+03  0.00000000000E+00 0.  1.
         22    1    1    2    0    0  0.40316753432E+02  0.36330014129E+02 -0.11242950259E+03  0.12484271539E+03  0.00000000000E+00 0.  1.
         22    1    1    2    0    0  0.10916189835E+02 -0.11544196988E+02  0.31693708101E+02  0.35453107308E+02  0.00000000000E+00 0. -1.
</event>
<event>
 6    1  0.1726037E-005  0.3801650E+02  0.7818608E-02  0.1565547E+00
          2   -1    0    0  502    0  0.00000000000E+00  0.00000000000E+00  0.24876826639E+03  0.24876826639E+03  0.00000000000E+00 0. -1.
          1   -1    0    0  501    0 -0.00000000000E+00 -0.00000000000E+00 -0.12604222923E+03  0.12604222923E+03  0.00000000000E+00 0.  1.
          2    1    1    2  501    0  0.53968085974E+02  0.25449635216E+02  0.17389278015E+03  0.18384487271E+03  0.00000000000E+00 0. -1.
          1    1    1    2  502    0 -0.32196165024E+02 -0.10281266657E+02 -0.57125920355E+02  0.66375208193E+02  0.00000000000E+00 0.  1.
         22    1    1    2    0    0 -0.77187703590E+01  0.19556519224E+02 -0.51710897813E+02  0.55821624956E+02  0.00000000000E+00 0.  1.
         22    1    1    2    0    0 -0.14053150591E+02 -0.34724887783E+02  0.57670075184E+02  0.68768789758E+02  0.00000000000E+00 0. -1.
</event>
<event>
 6    1  0.1726037E-005  0.5559179E+02  0.7818608E-02  0.1452684E+00
          2   -1    0    0  502    0  0.00000000000E+00  0.00000000000E+00  0.19483441194E+03  0.19483441194E+03  0.00000000000E+00 0.  1.
          1   -1    0    0  501    0 -0.00000000000E+00 -0.00000000000E+00 -0.22868776939E+03  0.22868776939E+03  0.00000000000E+00 0.  1.
          2    1    1    2  501    0  0.13828432095E+03  0.44432684025E+02  0.14419736802E+02  0.14596145259E+03  0.00000000000E+00 0.  1.
          1    1    1    2  502    0 -0.13325556220E+03 -0.29521404122E+02 -0.55782383579E+02  0.14744569332E+03  0.00000000000E+00 0.  1.
         22    1    1    2    0    0 -0.11267534576E+02  0.60726642675E+01 -0.58856275398E+02  0.60232015909E+02  0.00000000000E+00 0.  1.
         22    1    1    2    0    0  0.62387758253E+01 -0.20983944171E+02  0.66365564722E+02  0.69883019523E+02  0.00000000000E+00 0.  1.
</event>
<event>
 6    1  0.1726037E-005  0.1179541E+03  0.7818608E-02  0.1310614E+00
          2   -1    0    0  502    0  0.00000000000E+00  0.00000000000E+00  0.89953158857E+03  0.89953158857E+03  0.00000000000E+00 0.  1.
          1   -1    0    0  501    0 -0.00000000000E+00 -0.00000000000E+00 -0.27415749142E+03  0.27415749142E+03  0.00000000000E+00 0.  1.
          2    1    1    2  501    0 -0.28694036209E+03  0.42877508527E+02  0.47576124728E+03  0.55724502380E+03  0.00000000000E+00 0.  1.
          1    1    1    2  502    0  0.28733213917E+03 -0.86269452938E+01 -0.12577430725E+03  0.31377278204E+03  0.00000000000E+00 0.  1.
         22    1    1    2    0    0  0.29963177953E+01  0.13825298878E+02 -0.72905942288E+01  0.15914445438E+02  0.00000000000E+00 0. -1.
         22    1    1    2    0    0 -0.33880948778E+01 -0.48075862111E+02  0.28267775135E+03  0.28675682871E+03  0.00000000000E+00 0. -1.
</event>
<event>
 6    1  0.1726037E-005  0.2008669E+03  0.7818608E-02  0.1256102E+00
          2   -1    0    0  502    0  0.00000000000E+00  0.00000000000E+00  0.98017071778E+02  0.98017071778E+02  0.00000000000E+00 0. -1.
          1   -1    0    0  501    0 -0.00000000000E+00 -0.00000000000E+00 -0.11923577791E+04  0.11923577791E+04  0.00000000000E+00 0.  1.
          2    1    1    2  501    0 -0.14569535649E+03  0.14562901908E+03 -0.41014461473E+03  0.45897010044E+03  0.00000000000E+00 0. -1.
          1    1    1    2  502    0  0.13105513462E+03 -0.12399427971E+03 -0.67633002263E+03  0.69998023488E+03  0.00000000000E+00 0.  1.
         22    1    1    2    0    0 -0.16604165864E+01 -0.19658234976E+02  0.59187991579E+02  0.62389274180E+02  0.00000000000E+00 0.  1.
         22    1    1    2    0    0  0.16300638453E+02 -0.19765043973E+01 -0.67054061533E+02  0.69035241375E+02  0.00000000000E+00 0.  1.
</event>
<event>
 6    1  0.1726037E-005  0.2176629E+03  0.7818608E-02  0.1187010E+00
          2   -1    0    0  502    0  0.00000000000E+00  0.00000000000E+00  0.62021689338E+03  0.62021689338E+03  0.00000000000E+00 0. -1.
          1   -1    0    0  501    0 -0.00000000000E+00 -0.00000000000E+00 -0.23520702227E+03  0.23520702227E+03  0.00000000000E+00 0.  1.
          2    1    1    2  501    0 -0.83335943911E+02 -0.21417260979E+03  0.32812418098E+03  0.40059988077E+03  0.00000000000E+00 0. -1.
          1    1    1    2  502    0  0.12442370096E+03  0.15643931437E+03 -0.11428565295E+03  0.23025144281E+03  0.00000000000E+00 0.  1.
         22    1    1    2    0    0  0.75552782764E+01  0.13163698679E+02 -0.18398267728E+02  0.23850816509E+02  0.00000000000E+00 0. -1.
         22    1    1    2    0    0 -0.48643035329E+02  0.44569596734E+02  0.18956961082E+03  0.20072177557E+03  0.00000000000E+00 0. -1.
</event>
<event>
 6    1  0.1726037E-005  0.3758982E+02  0.7818608E-02  0.1619672E+00
          2   -1    0    0  502    0  0.00000000000E+00  0.00000000000E+00  0.31559635022E+03  0.31559635022E+03  0.00000000000E+00 0.  1.
          1   -1    0    0  501    0 -0.00000000000E+00 -0.00000000000E+00 -0.15572552565E+03  0.15572552565E+03  0.00000000000E+00 0.  1.
          2    1    1    2  501    0 -0.75706146572E+01  0.36994594653E+02  0.25577544875E+03  0.25854785712E+03  0.00000000000E+00 0.  1.
          1    1    1    2  502    0  0.16800854661E+02 -0.17002251080E+02 -0.81468463446E+02  0.84902625374E+02  0.00000000000E+00 0.  1.
         22    1    1    2    0    0 -0.93378039300E+01 -0.72086789392E+01  0.55518626821E+02  0.56758061616E+02  0.00000000000E+00 0.  1.
         22    1    1    2    0    0  0.10756392630E+00 -0.12783664634E+02 -0.69954787560E+02  0.71113331760E+02  0.00000000000E+00 0.  1.
</event>
<event>
 6    1  0.1726037E-005  0.9257759E+02  0.7818608E-02  0.1410396E+00
          2   -1    0    0  502    0  0.00000000000E+00  0.00000000000E+00  0.94777958459E+02  0.94777958459E+02  0.00000000000E+00 0. -1.
          1   -1    0    0  501    0 -0.00000000000E+00 -0.00000000000E+00 -0.38778712438E+03  0.38778712438E+03  0.00000000000E+00 0.  1.
          2    1    1    2  501    0 -0.67734886008E+02  0.11864866478E+02 -0.14170338888E+03  0.15750758794E+03  0.00000000000E+00 0. -1.
          1    1    1    2  502    0  0.67220439146E+02  0.11591614900E+02 -0.17875523351E+03  0.19132795531E+03  0.00000000000E+00 0.  1.
         22    1    1    2    0    0  0.13769716003E+02 -0.25439859868E+02 -0.48573189967E+02  0.56534470303E+02  0.00000000000E+00 0.  1.
         22    1    1    2    0    0 -0.13255269141E+02  0.19833784890E+01  0.76022646439E+02  0.77195069284E+02  0.00000000000E+00 0. -1.
</event>
<event>
 6    1  0.1726037E-005  0.6302857E+02  0.7818608E-02  0.1420531E+00
          2   -1    0    0  502    0  0.00000000000E+00  0.00000000000E+00  0.18540925698E+03  0.18540925698E+03  0.00000000000E+00 0. -1.
          1   -1    0    0  501    0 -0.00000000000E+00 -0.00000000000E+00 -0.22702380822E+03  0.22702380822E+03  0.00000000000E+00 0.  1.
          2    1    1    2  501    0 -0.83473547285E+01  0.92097379209E+02  0.74827436875E+02  0.11895692875E+03  0.00000000000E+00 0. -1.
          1    1    1    2  502    0  0.13844882231E+02 -0.49001143571E+02 -0.15084505037E+03  0.15920748115E+03  0.00000000000E+00 0.  1.
         22    1    1    2    0    0  0.54170379068E+01 -0.84720111998E+01 -0.45450720242E+02  0.46549836132E+02  0.00000000000E+00 0.  1.
         22    1    1    2    0    0 -0.10914565409E+02 -0.34624224438E+02  0.79853782492E+02  0.87718819157E+02  0.00000000000E+00 0. -1.
</event>
<event>
 6    1  0.1726037E-005  0.7949038E+02  0.7818608E-02  0.1370536E+00
          2   -1    0    0  502    0  0.00000000000E+00  0.00000000000E+00  0.20861459861E+02  0.20861459861E+02  0.00000000000E+00 0. -1.
          1   -1    0    0  501    0 -0.00000000000E+00 -0.00000000000E+00 -0.70763525767E+03  0.70763525767E+03  0.00000000000E+00 0. -1.
          2    1    1    2  501    0 -0.49828498134E+02  0.11024849066E+02 -0.29592096471E+03  0.30028926700E+03  0.00000000000E+00 0. -1.
          1    1    1    2  502    0  0.46118972621E+02  0.16873680008E+02 -0.12904541684E+03  0.13807389442E+03  0.00000000000E+00 0. -1.
         22    1    1    2    0    0  0.43870068089E+02 -0.27430813812E+02 -0.23775341455E+03  0.24331814267E+03  0.00000000000E+00 0. -1.
         22    1    1    2    0    0 -0.40160542576E+02 -0.46771526200E+00 -0.24054001715E+02  0.46815413446E+02  0.00000000000E+00 0.  1.
</event>
<event>
 6    1  0.1726037E-005  0.1764517E+03  0.7818608E-02  0.1308480E+00
          2   -1    0    0  502    0  0.00000000000E+00  0.00000000000E+00  0.42358313938E+02  0.42358313938E+02  0.00000000000E+00 0.  1.
          1   -1    0    0  501    0 -0.00000000000E+00 -0.00000000000E+00 -0.10602181559E+04  0.10602181559E+04  0.00000000000E+00 0. -1.
          2    1    1    2  501    0 -0.67056208892E+02 -0.13126497859E+03 -0.16816227445E+03  0.22361927534E+03  0.00000000000E+00 0.  1.
          1    1    1    2  502    0  0.44417111698E+02  0.11954337183E+02 -0.13374145932E+03  0.14143042081E+03  0.00000000000E+00 0. -1.
         22    1    1    2    0    0  0.10535539940E+02 -0.22604388541E+01  0.44351030145E+00  0.10784427988E+02  0.00000000000E+00 0. -1.
         22    1    1    2    0    0  0.12103557254E+02  0.12157108026E+03 -0.71639961849E+03  0.72674234570E+03  0.00000000000E+00 0. -1.
</event>
<event>
 6    1  0.1726037E-005  0.5630344E+02  0.7818608E-02  0.1416064E+00
          2   -1    0    0  502    0  0.00000000000E+00  0.00000000000E+00  0.30716184750E+03  0.30716184750E+03  0.00000000000E+00 0.  1.
          1   -1    0    0  501    0 -0.00000000000E+00 -0.00000000000E+00 -0.66169392616E+02  0.66169392616E+02  0.00000000000E+00 0. -1.
          2    1    1    2  501    0 -0.36498519669E+02  0.18976324065E+02  0.21179859713E+03  0.21575654928E+03  0.00000000000E+00 0.  1.
          1    1    1    2  502    0  0.20625368402E+02 -0.17428600618E+02 -0.12044547531E+02  0.29567432530E+02  0.00000000000E+00 0. -1.
         22    1    1    2    0    0 -0.51442461098E+01  0.12262229423E+02  0.80385717310E+02  0.81478150973E+02  0.00000000000E+00 0.  1.
         22    1    1    2    0    0  0.21017397377E+02 -0.13809952870E+02 -0.39147312020E+02  0.46529107333E+02  0.00000000000E+00 0.  1.
</event>
<event>
 6    1  0.1726037E-005  0.1624372E+03  0.7818608E-02  0.1303109E+00
          2   -1    0    0  502    0  0.00000000000E+00  0.00000000000E+00  0.70455229061E+02  0.70455229061E+02  0.00000000000E+00 0. -1.
          1   -1    0    0  501    0 -0.00000000000E+00 -0.00000000000E+00 -0.22172668709E+03  0.22172668709E+03  0.00000000000E+00 0.  1.
          2    1    1    2  501    0 -0.16955907048E+02  0.26953848127E+02  0.10223604609E+02  0.33444503343E+02  0.00000000000E+00 0. -1.
          1    1    1    2  502    0  0.13025181199E+02  0.37541124836E+02  0.82195238188E+01  0.40577727525E+02  0.00000000000E+00 0.  1.
         22    1    1    2    0    0  0.18742102499E+01 -0.79591376565E+02 -0.18195886082E+03  0.19861351142E+03  0.00000000000E+00 0.  1.
         22    1    1    2    0    0  0.20565155990E+01  0.15096403602E+02  0.12244274362E+02  0.19546173865E+02  0.00000000000E+00 0. -1.
</event>
<event>
 6    1  0.1726037E-005  0.9563110E+02  0.7818608E-02  0.1391377E+00
          2   -1    0    0  502    0  0.00000000000E+00  0.00000000000E+00  0.12215461177E+03  0.12215461177E+03  0.00000000000E+00 0.  1.
          1   -1    0    0  501    0 -0.00000000000E+00 -0.00000000000E+00 -0.17641301381E+03  0.17641301381E+03  0.00000000000E+00 0. -1.
          2    1    1    2  501    0 -0.35263721911E+02 -0.62784149655E+02  0.20113634236E+02  0.74765886694E+02  0.00000000000E+00 0.  1.
          1    1    1    2  502    0  0.32329357536E+02  0.27082705598E+02 -0.84969781701E+02  0.94860550828E+02  0.00000000000E+00 0. -1.
         22    1    1    2    0    0  0.45393630079E+01 -0.15787014456E+02  0.57177974353E+02  0.59490809316E+02  0.00000000000E+00 0.  1.
         22    1    1    2    0    0 -0.16049986325E+01  0.51488458513E+02 -0.46580228932E+02  0.69450378747E+02  0.00000000000E+00 0. -1.
</event>
<event>
 6    1  0.1726037E-005  0.2208776E+02  0.7818608E-02  0.1708067E+00
          2   -1    0    0  502    0  0.00000000000E+00  0.00000000000E+00  0.13345920530E+03  0.13345920530E+03  0.00000000000E+00 0.  1.
          1   -1    0    0  501    0 -0.00000000000E+00 -0.00000000000E+00 -0.97262243051E+02  0.97262243051E+02  0.00000000000E+00 0.  1.
          2    1    1    2  501    0  0.97441577409E+00  0.31665401762E+02  0.61128779647E+02  0.68850380216E+02  0.00000000000E+00 0.  1.
          1    1    1    2  502    0  0.41650984653E+01 -0.23894026757E+02 -0.25154954344E+02  0.34943444134E+02  0.00000000000E+00 0.  1.
         22    1    1    2    0    0  0.91110028264E+01 -0.10750181004E+02 -0.61714036123E+02  0.63302440859E+02  0.00000000000E+00 0.  1.
         22    1    1    2    0    0 -0.14250517066E+02  0.29788060001E+01  0.61937173067E+02  0.63625183138E+02  0.00000000000E+00 0. -1.
</event>
<event>
 6    1  0.1726037E-005  0.1223985E+03  0.7818608E-02  0.1264947E+00
          2   -1    0    0  502    0  0.00000000000E+00  0.00000000000E+00  0.68947563979E+02  0.68947563979E+02  0.00000000000E+00 0.  1.
          1   -1    0    0  501    0 -0.00000000000E+00 -0.00000000000E+00 -0.47043292638E+03  0.47043292638E+03  0.00000000000E+00 0.  1.
          2    1    1    2  501    0 -0.27640393752E+02  0.22125476338E+02 -0.71556701256E+02  0.79836642994E+02  0.00000000000E+00 0.  1.
          1    1    1    2  502    0  0.37986135896E+02  0.10615868969E+02 -0.32599097850E+03  0.32836833169E+03  0.00000000000E+00 0.  1.
         22    1    1    2    0    0 -0.12539341926E+02  0.40516038026E+02 -0.31546052361E+02  0.52857713277E+02  0.00000000000E+00 0. -1.
         22    1    1    2    0    0  0.21935997820E+01 -0.73257383333E+02  0.27608369721E+02  0.78317802392E+02  0.00000000000E+00 0.  1.
</event>
<event>
 6    1  0.1726037E-005  0.1336111E+03  0.7818608E-02  0.1247246E+00
          2   -1    0    0  502    0  0.00000000000E+00  0.00000000000E+00  0.21187412887E+03  0.21187412887E+03  0.00000000000E+00 0. -1.
          1   -1    0    0  501    0 -0.00000000000E+00 -0.00000000000E+00 -0.25314061905E+03  0.25314061905E+03  0.00000000000E+00 0. -1.
          2    1    1    2  501    0 -0.78623510360E+02 -0.37217258931E+02  0.10606371645E+03  0.13717249247E+03  0.00000000000E+00 0. -1.
          1    1    1    2  502    0  0.10404912578E+03 -0.35611439187E+02 -0.14857175158E+03  0.18484577502E+03  0.00000000000E+00 0. -1.
         22    1    1    2    0    0 -0.55065287269E+02  0.57987692077E+02  0.42108536985E+02  0.90376364064E+02  0.00000000000E+00 0.  1.
         22    1    1    2    0    0  0.29639671850E+02  0.14841006041E+02 -0.40866992030E+02  0.52620116355E+02  0.00000000000E+00 0. -1.
</event>
<event>
 6    1  0.1726037E-005  0.6608119E+02  0.7818608E-02  0.1390426E+00
          2   -1    0    0  502    0  0.00000000000E+00  0.00000000000E+00  0.74207040270E+03  0.74207040270E+03  0.00000000000E+00 0. -1.
          1   -1    0    0  501    0 -0.00000000000E+00 -0.00000000000E+00 -0.58493502579E+02  0.58493502579E+02  0.00000000000E+00 0.  1.
          2    1    1    2  501    0 -0.42330602077E+02  0.71088028309E+02  0.53831795952E+03  0.54463897509E+03  0.00000000000E+00 0. -1.
          1    1    1    2  502    0  0.54961160292E+02 -0.60869996704E+02  0.63235399609E+02  0.10355965142E+03  0.00000000000E+00 0.  1.
         22    1    1    2    0    0  0.41906090269E+02  0.10313621620E+02  0.83587284571E+02  0.94070852736E+02  0.00000000000E+00 0.  1.
         22    1    1    2    0    0 -0.54536648484E+02 -0.20531653225E+02 -0.15637435832E+01  0.58294426028E+02  0.00000000000E+00 0.  1.
</event>
<event>
 6    1  0.1726037E-005  0.5225459E+02  0.7818608E-02  0.1467083E+00
          2   -1    0    0  502    0  0.00000000000E+00  0.00000000000E+00  0.61561558139E+02  0.61561558139E+02  0.00000000000E+00 0. -1.
          1   -1    0    0  501    0 -0.00000000000E+00 -0.00000000000E+00 -0.36446879007E+03  0.36446879007E+03  0.00000000000E+00 0. -1.
          2    1    1    2  501    0  0.81176742113E+02  0.61734719660E+01 -0.59820769443E+02  0.10102623260E+03  0.00000000000E+00 0. -1.
          1    1    1    2  502    0 -0.50801144844E+02 -0.42699245361E+02 -0.33291784245E+02  0.74245031956E+02  0.00000000000E+00 0. -1.
         22    1    1    2    0    0 -0.40263829755E+02  0.12779289882E+02 -0.21930338183E+03  0.22333485961E+03  0.00000000000E+00 0.  1.
         22    1    1    2    0    0  0.98882324852E+01  0.23746483514E+02  0.95087035797E+01  0.27424224049E+02  0.00000000000E+00 0. -1.
</event>
<event>
 6    1  0.1726037E-005  0.3635557E+02  0.7818608E-02  0.1567472E+00
          2   -1    0    0  502    0  0.00000000000E+00  0.00000000000E+00  0.11916530549E+03  0.11916530549E+03  0.00000000000E+00 0.  1.
          1   -1    0    0  501    0 -0.00000000000E+00 -0.00000000000E+00 -0.14779839743E+03  0.14779839743E+03  0.00000000000E+00 0. -1.
          2    1    1    2  501    0  0.13836721952E+02  0.52584422901E+02  0.43644086595E+02  0.69723616522E+02  0.00000000000E+00 0.  1.
          1    1    1    2  502    0 -0.65771750073E+01 -0.20386592011E+02 -0.62466567576E+02  0.66037447177E+02  0.00000000000E+00 0. -1.
         22    1    1    2    0    0 -0.13145360393E+02 -0.20756547890E+02  0.57575857740E+02  0.62598835250E+02  0.00000000000E+00 0.  1.
         22    1    1    2    0    0  0.58858134484E+01 -0.11441283000E+02 -0.67386468693E+02  0.68603803973E+02  0.00000000000E+00 0.  1.
</event>
<event>
 6    1  0.1726037E-005  0.6742528E+02  0.7818608E-02  0.1491051E+00
          2   -1    0    0  502    0  0.00000000000E+00  0.00000000000E+00  0.16360106298E+03  0.16360106298E+03  0.00000000000E+00 0. -1.
          1   -1    0    0  501    0 -0.00000000000E+00 -0.00000000000E+00 -0.36697574587E+03  0.36697574587E+03  0.00000000000E+00 0.  1.
          2    1    1    2  501    0 -0.28457435205E+02 -0.42167032116E+02  0.40223051642E+02  0.64851970667E+02  0.00000000000E+00 0. -1.
          1    1    1    2  502    0 -0.25117196966E+02 -0.29971129256E+02 -0.29756796134E+03  0.30012636304E+03  0.00000000000E+00 0.  1.
         22    1    1    2    0    0  0.64148147873E+02  0.72253603779E+02  0.87554264133E+02  0.13038909963E+03  0.00000000000E+00 0. -1.
         22    1    1    2    0    0 -0.10573515703E+02 -0.11544240670E+00 -0.33584037326E+02  0.35209375518E+02  0.00000000000E+00 0.  1.
</event>
<event>
 6    1  0.1726037E-005  0.7478885E+02  0.7818608E-02  0.1355243E+00
          2   -1    0    0  502    0  0.00000000000E+00  0.00000000000E+00  0.87326925440E+03  0.87326925440E+03  0.00000000000E+00 0. -1.
          1   -1    0    0  501    0 -0.00000000000E+00 -0.00000000000E+00 -0.52242123100E+02  0.52242123100E+02  0.00000000000E+00 0.  1.
          2    1    1    2  501    0 -0.35760638713E+01  0.10886997636E+03  0.51553204948E+03  0.52691437067E+03  0.00000000000E+00 0. -1.
          1    1    1    2  502    0  0.23331306189E+02 -0.46383361911E+02 -0.11319713500E+02  0.53140399174E+02  0.00000000000E+00 0.  1.
         22    1    1    2    0    0 -0.37212859387E+02 -0.49950442531E+02  0.31789222498E+03  0.32393720119E+03  0.00000000000E+00 0. -1.
         22    1    1    2    0    0  0.17457617069E+02 -0.12536171915E+02 -0.10774296510E+01  0.21519406466E+02  0.00000000000E+00 0.  1.
</event>
<event>
 6    1  0.1726037E-005  0.1277869E+03  0.7818608E-02  0.1364073E+00
          2   -1    0    0  502    0  0.00000000000E+00  0.00000000000E+00  0.61225278258E+02  0.61225278258E+02  0.00000000000E+00 0.  1.
          1   -1    0    0  501    0 -0.00000000000E+00 -0.00000000000E+00 -0.55695585199E+03  0.55695585199E+03  0.00000000000E+00 0.  1.
          2    1    1    2  501    0  0.32108148545E+02  0.74287677039E+01 -0.55619874042E+02  0.64650523440E+02  0.00000000000E+00 0.  1.
          1    1    1    2  502    0 -0.51523060934E+02 -0.51094112241E+02 -0.41042158681E+03  0.41678665170E+03  0.00000000000E+00 0.  1.
         22    1    1    2    0    0 -0.38783619722E+01  0.10041074759E+02  0.47866829585E+02  0.49062187562E+02  0.00000000000E+00 0.  1.
         22    1    1    2    0    0  0.23293274361E+02  0.33624269778E+02 -0.77555942461E+02  0.87681767544E+02  0.00000000000E+00 0.  1.
</event>
<event>
 6    1  0.1726037E-005  0.5063528E+02  0.7818608E-02  0.1545011E+00
          2   -1    0    0  502    0  0.00000000000E+00  0.00000000000E+00  0.21942670464E+02  0.21942670464E+02  0.00000000000E+00 0.  1.
          1   -1    0    0  501    0 -0.00000000000E+00 -0.00000000000E+00 -0.96799090249E+03  0.96799090249E+03  0.00000000000E+00 0.  1.
          2    1    1    2  501    0 -0.19809879780E+01  0.33468582244E+02 -0.45944468475E+02  0.56876748275E+02  0.00000000000E+00 0.  1.
          1    1    1    2  502    0  0.53872041920E+02 -0.19314360359E+02 -0.60142081254E+03  0.60413759622E+03  0.00000000000E+00 0.  1.
         22    1    1    2    0    0 -0.45409289407E+02 -0.24379571316E+02 -0.30884315880E+03  0.31311413861E+03  0.00000000000E+00 0. -1.
         22    1    1    2    0    0 -0.64817645354E+01  0.10225349431E+02  0.10160207791E+02  0.15805089839E+02  0.00000000000E+00 0. -1.
</event>
<event>
 6    1  0.1726037E-005  0.2458999E+03  0.7818608E-02  0.1216890E+00
          2   -1    0    0  502    0  0.00000000000E+00  0.00000000000E+00  0.50621183893E+03  0.50621183893E+03  0.00000000000E+00 0.  1.
          1   -1    0    0  501    0 -0.00000000000E+00 -0.00000000000E+00 -0.27275011043E+03  0.27275011043E+03  0.00000000000E+00 0. -1.
          2    1    1    2  501    0 -0.79820933477E+01  0.15151401495E+03  0.41497377901E+03  0.44184097570E+03  0.00000000000E+00 0.  1.
          1    1    1    2  502    0 -0.57174881861E+02 -0.10386638375E+03 -0.27015101900E+02  0.12160184423E+03  0.00000000000E+00 0. -1.
         22    1    1    2    0    0  0.86913385360E+02 -0.37609052698E+02 -0.16429345462E+03  0.18963311059E+03  0.00000000000E+00 0. -1.
         22    1    1    2    0    0 -0.21756410152E+02 -0.10038578505E+02  0.97965060102E+01  0.25886018835E+02  0.00000000000E+00 0. -1.
</event>
<event>
 6    1  0.1726037E-005  0.1739659E+03  0.7818608E-02  0.1306180E+00
          2   -1    0    0  502    0  0.00000000000E+00  0.00000000000E+00  0.52661249263E+03  0.52661249263E+03  0.00000000000E+00 0. -1.
          1   -1    0    0  501    0 -0.00000000000E+00 -0.00000000000E+00 -0.19491543255E+03  0.19491543255E+03  0.00000000000E+00 0. -1.
          2    1    1    2  501    0 -0.18489347395E+02  0.11738268924E+03  0.43666266977E+03  0.45254263762E+03  0.00000000000E+00 0. -1.
          1    1    1    2  502    0  0.70652145281E+02 -0.47023312255E+02 -0.73727032818E+02  0.11242149659E+03  0.00000000000E+00 0. -1.
         22    1    1    2    0    0 -0.43559807958E+02 -0.78326146143E+02 -0.71487027680E+02  0.11464221371E+03  0.00000000000E+00 0. -1.
         22    1    1    2    0    0 -0.86029899281E+01  0.79667691620E+01  0.40248450807E+02  0.41921577248E+02  0.00000000000E+00 0.  1.
</event>
<event>
 6    1  0.1726037E-005  0.1215592E+03  0.7818608E-02  0.1240570E+00
          2   -1    0    0  502    0  0.00000000000E+00  0.00000000000E+00  0.21444208419E+03  0.21444208419E+03  0.00000000000E+00 0.  1.
          1   -1    0    0  501    0 -0.00000000000E+00 -0.00000000000E+00 -0.15120848386E+03  0.15120848386E+03  0.00000000000E+00 0. -1.
          2    1    1    2  501    0 -0.46365608935E+02  0.83648295119E+02  0.11387347697E+03  0.14870768550E+03  0.00000000000E+00 0.  1.
          1    1    1    2  502    0  0.40123905744E+02 -0.48458028747E+02 -0.54995866441E+02  0.83562274309E+02  0.00000000000E+00 0. -1.
         22    1    1    2    0    0 -0.20041128140E+01  0.22850219982E+02  0.52648032946E+02  0.57427906061E+02  0.00000000000E+00 0.  1.
         22    1    1    2    0    0  0.82458160040E+01 -0.58040486355E+02 -0.48292043148E+02  0.75952702186E+02  0.00000000000E+00 0.  1.
</event>
<event>
 6    1  0.1726037E-005  0.1525983E+03  0.7818608E-02  0.1280300E+00
          2   -1    0    0  502    0  0.00000000000E+00  0.00000000000E+00  0.37081960241E+03  0.37081960241E+03  0.00000000000E+00 0. -1.
          1   -1    0    0  501    0 -0.00000000000E+00 -0.00000000000E+00 -0.87703460207E+02  0.87703460207E+02  0.00000000000E+00 0. -1.
          2    1    1    2  501    0  0.13785289409E+03 -0.34849556891E+02  0.10566746931E+03  0.17715396155E+03  0.00000000000E+00 0. -1.
          1    1    1    2  502    0 -0.69178182323E+02  0.18508375501E+02  0.60740188088E+02  0.93901817459E+02  0.00000000000E+00 0. -1.
         22    1    1    2    0    0 -0.70818120533E+02 -0.11716585072E+02  0.46517457512E+01  0.71931379106E+02  0.00000000000E+00 0. -1.
         22    1    1    2    0    0  0.21434087670E+01  0.28057766462E+02  0.11205673906E+03  0.11553590450E+03  0.00000000000E+00 0. -1.
</event>
<event>
 6    1  0.1726037E-005  0.8320673E+02  0.7818608E-02  0.1364727E+00
          2   -1    0    0  502    0  0.00000000000E+00  0.00000000000E+00  0.11175350974E+03  0.11175350974E+03  0.00000000000E+00 0.  1.
          1   -1    0    0  501    0 -0.00000000000E+00 -0.00000000000E+00 -0.16356701130E+03  0.16356701130E+03  0.00000000000E+00 0.  1.
          2    1    1    2  501    0 -0.46888438447E+02 -0.46336088002E+02 -0.41457542704E+02  0.77873529253E+02  0.00000000000E+00 0.  1.
          1    1    1    2  502    0  0.59922252915E+02  0.16684114901E+02 -0.29093181776E+02  0.68669129238E+02  0.00000000000E+00 0.  1.
         22    1    1    2    0    0  0.21782395287E+02  0.13061467152E+02 -0.46505205793E+02  0.52988761398E+02  0.00000000000E+00 0.  1.
         22    1    1    2    0    0 -0.34816209755E+02  0.16590505948E+02  0.65242428711E+02  0.75789101152E+02  0.00000000000E+00 0.  1.
</event>
<event>
 6    1  0.1726037E-005  0.5426901E+02  0.7818608E-02  0.1436859E+00
          2   -1    0    0  502    0  0.00000000000E+00  0.00000000000E+00  0.97356280547E+02  0.97356280547E+02  0.00000000000E+00 0. -1.
          1   -1    0    0  501    0 -0.00000000000E+00 -0.00000000000E+00 -0.14727160194E+03  0.14727160194E+03  0.00000000000E+00 0. -1.
          2    1    1    2  501    0  0.28519565064E+02 -0.21907320530E+02 -0.70209804524E+02  0.78884174177E+02  0.00000000000E+00 0. -1.
          1    1    1    2  502    0 -0.35663776517E+02 -0.71883392172E+01 -0.77465011361E+01  0.37196578552E+02  0.00000000000E+00 0. -1.
         22    1    1    2    0    0  0.19150003046E+02  0.40036620545E+02  0.70376983361E+02  0.83202003512E+02  0.00000000000E+00 0. -1.
         22    1    1    2    0    0 -0.12005791593E+02 -0.10940960798E+02 -0.42335999093E+02  0.45345126245E+02  0.00000000000E+00 0.  1.
</event>
<event>
 6    1  0.1726037E-005  0.5045941E+02  0.7818608E-02  0.1463855E+00
          2   -1    0    0  502    0  0.00000000000E+00  0.00000000000E+00  0.30846267808E+03  0.30846267808E+03  0.00000000000E+00 0. -1.
          1   -1    0    0  501    0 -0.00000000000E+00 -0.00000000000E+00 -0.61365756646E+02  0.61365756646E+02  0.00000000000E+00 0.  1.
          2    1    1    2  501    0 -0.65666622409E+02  0.92423924326E-01  0.55574343206E+02  0.86026864778E+02  0.00000000000E+00 0. -1.
          1    1    1    2  502    0  0.61023976863E+02 -0.30487022110E+02  0.27467287809E+02  0.73537991330E+02  0.00000000000E+00 0.  1.
         22    1    1    2    0    0  0.32581969089E+02  0.25145843416E+02 -0.25637588593E+01  0.41236767699E+02  0.00000000000E+00 0.  1.
         22    1    1    2    0    0 -0.27939323542E+02  0.52487547699E+01  0.16661904928E+03  0.16902681092E+03  0.00000000000E+00 0. -1.
</event>
<event>
 6    1  0.1726037E-005  0.4108197E+02  0.7818608E-02  0.1575184E+00
          2   -1    0    0  502    0  0.00000000000E+00  0.00000000000E+00  0.90250135230E+03  0.90250135230E+03  0.00000000000E+00 0.  1.
          1   -1    0    0  501    0 -0.00000000000E+00 -0.00000000000E+00 -0.58691827684E+02  0.58691827684E+02  0.00000000000E+00 0.  1.
          2    1    1    2  501    0  0.53811895784E+02  0.36295304033E+02  0.73177352772E+03  0.73464655794E+03  0.00000000000E+00 0.  1.
          1    1    1    2  502    0 -0.24753405480E+02 -0.34427978118E+02 -0.14469117651E+02  0.44803706607E+02  0.00000000000E+00 0.  1.
         22    1    1    2    0    0 -0.32089407537E+02  0.10309621556E+02  0.15073453559E+03  0.15445685026E+03  0.00000000000E+00 0. -1.
         22    1    1    2    0    0  0.30309172326E+01 -0.12176947471E+02 -0.24229421041E+02  0.27286065179E+02  0.00000000000E+00 0.  1.
</event>
<event>
 6    1  0.1726037E-005  0.4124261E+02  0.7818608E-02  0.1522825E+00
          2   -1    0    0  502    0  0.00000000000E+00  0.00000000000E+00  0.14646695284E+03  0.14646695284E+03  0.00000000000E+00 0. -1.
          1   -1    0    0  501    0 -0.00000000000E+00 -0.00000000000E+00 -0.15736668312E+03  0.15736668312E+03  0.00000000000E+00 0. -1.
          2    1    1    2  501    0  0.98161875686E+01  0.26900264971E+02  0.77381973119E+01  0.29662459296E+02  0.00000000000E+00 0. -1.
          1    1    1    2  502    0 -0.29232079952E+02 -0.73878351675E+01 -0.11295597764E+03  0.11691085275E+03  0.00000000000E+00 0. -1.
         22    1    1    2    0    0 -0.88194398444E+01 -0.94388941213E+01 -0.28258457815E+02  0.31071139012E+02  0.00000000000E+00 0. -1.
         22    1    1    2    0    0  0.28235332228E+02 -0.10073535682E+02  0.12257650786E+03  0.12618918490E+03  0.00000000000E+00 0.  1.
</event>
<event>
 6    1  0.1726037E-005  0.4316219E+02  0.7818608E-02  0.1540013E+00
          2   -1    0    0  502    0  0.00000000000E+00  0.00000000000E+00  0.20638232109E+03  0.20638232109E+03  0.00000000000E+00 0. -1.
          1   -1    0    0  501    0 -0.00000000000E+00 -0.00000000000E+00 -0.61390493319E+02  0.61390493319E+02  0.00000000000E+00 0. -1.
          2    1    1    2  501    0  0.23271837830E+02 -0.19130811257E+02  0.11032858954E+03  0.11436767045E+03  0.00000000000E+00 0. -1.
          1    1    1    2  502    0 -0.15070052861E+02  0.18653462547E+02  0.62786968913E+01  0.24788710997E+02  0.00000000000E+00 0. -1.
         22    1    1    2    0    0  0.23362870900E+01 -0.17520826830E+02  0.75261423984E+02  0.77309246215E+02  0.00000000000E+00 0. -1.
         22    1    1    2    0    0 -0.10538072060E+02  0.17998175540E+02 -0.46876882642E+02  0.51307186745E+02  0.00000000000E+00 0. -1.
</event>
<event>
 6    1  0.1726037E-005  0.6713103E+02  0.7818608E-02  0.1476669E+00
          2   -1    0    0  502    0  0.00000000000E+00  0.00000000000E+00  0.64874982142E+02  0.64874982142E+02  0.00000000000E+00 0. -1.
          1   -1    0    0  501    0 -0.00000000000E+00 -0.00000000000E+00 -0.47803163152E+03  0.47803163152E+03  0.00000000000E+00 0.  1.
          2    1    1    2  501    0  0.12295223449E+02 -0.69524975821E+02 -0.29692912369E+02  0.76593497293E+02  0.00000000000E+00 0. -1.
          1    1    1    2  502    0 -0.10338345942E+02  0.37111628116E+02 -0.31409407581E+03  0.31644785162E+03  0.00000000000E+00 0.  1.
         22    1    1    2    0    0 -0.10614570796E+02  0.22564430490E+02 -0.10707728655E+03  0.10994256652E+03  0.00000000000E+00 0.  1.
         22    1    1    2    0    0  0.86576932886E+01  0.98489172149E+01  0.37707625359E+02  0.39922698225E+02  0.00000000000E+00 0. -1.
</event>
<event>
 6    1  0.1726037E-005  0.1003342E+03  0.7818608E-02  0.1281784E+00
          2   -1    0    0  502    0  0.00000000000E+00  0.00000000000E+00  0.22894786200E+03  0.22894786200E+03  0.00000000000E+00 0. -1.
          1   -1    0    0  501    0 -0.00000000000E+00 -0.00000000000E+00 -0.35858822028E+03  0.35858822028E+03  0.00000000000E+00 0.  1.
          2    1    1    2  501    0  0.46428006948E+02 -0.35964767790E+02  0.17699602634E+03  0.18648489936E+03  0.00000000000E+00 0. -1.
          1    1    1    2  502    0 -0.56556539895E+02  0.52406628547E+02 -0.25706388565E+03  0.26837834903E+03  0.00000000000E+00 0.  1.
         22    1    1    2    0    0  0.28608401766E+02 -0.15754893873E+02  0.33960953752E+02  0.47116915352E+02  0.00000000000E+00 0. -1.
         22    1    1    2    0    0 -0.18479868819E+02 -0.68696688366E+00 -0.83533452709E+02  0.85555918536E+02  0.00000000000E+00 0.  1.
</event>
<event>
 6    1  0.1726037E-005  0.1124689E+03  0.7818608E-02  0.1379963E+00
          2   -1    0    0  502    0  0.00000000000E+00  0.00000000000E+00  0.19835728113E+03  0.19835728113E+03  0.00000000000E+00 0.  1.
          1   -1    0    0  501    0 -0.00000000000E+00 -0.00000000000E+00 -0.24902666639E+03  0.24902666639E+03  0.00000000000E+00 0.  1.
          2    1    1    2  501    0  0.43222605066E+02  0.81431839029E+02  0.15020429567E+03  0.17624037118E+03  0.00000000000E+00 0.  1.
          1    1    1    2  502    0  0.22833869588E+02 -0.13156363304E+02 -0.36517396354E+02  0.45033273613E+02  0.00000000000E+00 0.  1.
         22    1    1    2    0    0 -0.54801895381E+02 -0.63708839636E+02 -0.18441570931E+03  0.20266035090E+03  0.00000000000E+00 0.  1.
         22    1    1    2    0    0 -0.11254579273E+02 -0.45666360889E+01  0.20059424737E+02  0.23449951824E+02  0.00000000000E+00 0.  1.
</event>
<event>
 6    1  0.1726037E-005  0.8484169E+02  0.7818608E-02  0.1403675E+00
          2   -1    0    0  502    0  0.00000000000E+00  0.00000000000E+00  0.14212636966E+03  0.14212636966E+03  0.00000000000E+00 0.  1.
          1   -1    0    0  501    0 -0.00000000000E+00 -0.00000000000E+00 -0.11882247185E+03  0.11882247185E+03  0.00000000000E+00 0.  1.
          2    1    1    2  501    0  0.10606032315E+02  0.37706323966E+02  0.32384716685E+02  0.50823465675E+02  0.00000000000E+00 0.  1.
          1    1    1    2  502    0  0.20890766025E+02 -0.35393043432E+02 -0.58855842863E+02  0.71785108954E+02  0.00000000000E+00 0.  1.
         22    1    1    2    0    0  0.87578369244E+01  0.17252275416E+02  0.81315653952E+02  0.83585742159E+02  0.00000000000E+00 0.  1.
         22    1    1    2    0    0 -0.40254635264E+02 -0.19565555949E+02 -0.31540629965E+02  0.54754524730E+02  0.00000000000E+00 0.  1.
</event>
<event>
 6    1  0.1726037E-005  0.6198086E+02  0.7818608E-02  0.1460438E+00
          2   -1    0    0  502    0  0.00000000000E+00  0.00000000000E+00  0.63653137756E+02  0.63653137756E+02  0.00000000000E+00 0.  1.
          1   -1    0    0  501    0 -0.00000000000E+00 -0.00000000000E+00 -0.28382745097E+03  0.28382745097E+03  0.00000000000E+00 0.  1.
          2    1    1    2  501    0 -0.33347920564E+02 -0.29522576481E+02  0.12098516898E+02  0.46152361144E+02  0.00000000000E+00 0.  1.
          1    1    1    2  502    0 -0.42393185680E+02  0.25532443481E+02 -0.61747474233E+02  0.79131778928E+02  0.00000000000E+00 0.  1.
         22    1    1    2    0    0  0.71526288981E+02 -0.16615867078E+02 -0.18338758955E+03  0.19754266642E+03  0.00000000000E+00 0.  1.
         22    1    1    2    0    0  0.42148172628E+01  0.20606000077E+02  0.12862233668E+02  0.24653782239E+02  0.00000000000E+00 0.  1.
</event>
<event>
 6    1  0.1726037E-005  0.5172892E+02  0.7818608E-02  0.1444697E+00
          2   -1    0    0  502    0  0.00000000000E+00  0.00000000000E+00  0.20103065712E+03  0.20103065712E+03  0.00000000000E+00 0. -1.
          1   -1    0    0  501    0 -0.00000000000E+00 -0.00000000000E+00 -0.67994123079E+02  0.67994123079E+02  0.00000000000E+00 0.  1.
          2    1    1    2  501    0  0.66536941699E+02  0.90189108462E+01  0.53782943104E+02  0.86029706105E+02  0.00000000000E+00 0. -1.
          1    1    1    2  502    0 -0.19852113976E+02  0.83805482132E+01 -0.94458429074E+01  0.23527940112E+02  0.00000000000E+00 0.  1.
         22    1    1    2    0    0 -0.34705035553E+02 -0.36127605327E+02  0.11475655281E+03  0.12521465478E+03  0.00000000000E+00 0. -1.
         22    1    1    2    0    0 -0.11979792170E+02  0.18728146267E+02 -0.26057118962E+02  0.34252479204E+02  0.00000000000E+00 0.  1.
</event>
<event>
 6    1  0.1726037E-005  0.8385231E+02  0.7818608E-02  0.1384071E+00
          2   -1    0    0  502    0  0.00000000000E+00  0.00000000000E+00  0.67730875700E+03  0.67730875700E+03  0.00000000000E+00 0. -1.
          1   -1    0    0  501    0 -0.00000000000E+00 -0.00000000000E+00 -0.12472176971E+03  0.12472176971E+03  0.00000000000E+00 0.  1.
          2    1    1    2  501    0 -0.32184694184E+02  0.73429312536E+02  0.56989872555E+03  0.57551044809E+03  0.00000000000E+00 0. -1.
          1    1    1    2  502    0  0.40455225601E+01 -0.60579467767E+02 -0.65586911000E+02  0.89374946501E+02  0.00000000000E+00 0.  1.
         22    1    1    2    0    0  0.22271832109E+01 -0.21798959040E+02 -0.39509724117E+02  0.45179345503E+02  0.00000000000E+00 0.  1.
         22    1    1    2    0    0  0.25911988413E+02  0.89491142704E+01  0.87784896857E+02  0.91965786606E+02  0.00000000000E+00 0. -1.
</event>
<event>
 6    1  0.1726037E-005  0.6895798E+02  0.7818608E-02  0.1433068E+00
          2   -1    0    0  502    0  0.00000000000E+00  0.00000000000E+00  0.10171937636E+03  0.10171937636E+03  0.00000000000E+00 0. -1.
          1   -1    0    0  501    0 -0.00000000000E+00 -0.00000000000E+00 -0.40896707560E+03  0.40896707560E+03  0.00000000000E+00 0. -1.
          2    1    1    2  501    0 -0.40270175843E+02  0.48850852920E+02  0.63715829139E+02  0.89820931728E+02  0.00000000000E+00 0. -1.
          1    1    1    2  502    0  0.59764414481E+01 -0.31814342965E+02 -0.20818063716E+03  0.21068233898E+03  0.00000000000E+00 0. -1.
         22    1    1    2    0    0  0.17013718298E+02 -0.32067277684E+02 -0.17866315538E+03  0.18231374056E+03  0.00000000000E+00 0. -1.
         22    1    1    2    0    0  0.17280016097E+02  0.15030767728E+02  0.15880264155E+02  0.27869440692E+02  0.00000000000E+00 0.  1.
</event>
<event>
 6    1  0.1726037E-005  0.9109100E+02  0.7818608E-02  0.1336046E+00
          2   -1    0    0  502    0  0.00000000000E+00  0.00000000000E+00  0.50459799689E+03  0.50459799689E+03  0.00000000000E+00 0. -1.
          1   -1    0    0  501    0 -0.00000000000E+00 -0.00000000000E+00 -0.63623621126E+02  0.63623621126E+02  0.00000000000E+00 0. -1.
          2    1    1    2  501    0  0.27798728096E+01 -0.37082827800E+02  0.32603867311E+03  0.32815252578E+03  0.00000000000E+00 0. -1.
          1    1    1    2  502    0  0.13040388693E+02  0.64031428134E+02 -0.18942223803E+00  0.65346089454E+02  0.00000000000E+00 0. -1.
         22    1    1    2    0    0 -0.61790381460E+00 -0.47936460130E+02  0.13422519591E+03  0.14252960826E+03  0.00000000000E+00 0. -1.
         22    1    1    2    0    0 -0.15202357688E+02  0.20987859796E+02 -0.19100071016E+02  0.32193394523E+02  0.00000000000E+00 0. -1.
</event>
<event>
 6    1  0.1726037E-005  0.5365546E+02  0.7818608E-02  0.1490887E+00
          2   -1    0    0  502    0  0.00000000000E+00  0.00000000000E+00  0.12619698784E+03  0.12619698784E+03  0.00000000000E+00 0.  1.
          1   -1    0    0  501    0 -0.00000000000E+00 -0.00000000000E+00 -0.25758938539E+03  0.25758938539E+03  0.00000000000E+00 0.  1.
          2    1    1    2  501    0  0.43033201309E+01  0.72508658590E+02  0.56464445971E+02  0.92001401041E+02  0.00000000000E+00 0.  1.
          1    1    1    2  502    0  0.25352542501E+01 -0.28859487566E+02 -0.14988299248E+03  0.15265716155E+03  0.00000000000E+00 0.  1.
         22    1    1    2    0    0 -0.42027727887E+01 -0.22783797415E+02 -0.84740125610E+02  0.87850177075E+02  0.00000000000E+00 0.  1.
         22    1    1    2    0    0 -0.26358015923E+01 -0.20865373608E+02  0.46766274571E+02  0.51277633556E+02  0.00000000000E+00 0. -1.
</event>
<event>
 6    1  0.1726037E-005  0.8828168E+02  0.7818608E-02  0.1432207E+00
          2   -1    0    0  502    0  0.00000000000E+00  0.00000000000E+00  0.56130329449E+02  0.56130329449E+02  0.00000000000E+00 0.  1.
          1   -1    0    0  501    0 -0.00000000000E+00 -0.00000000000E+00 -0.31660153390E+03  0.31660153390E+03  0.00000000000E+00 0. -1.
          2    1    1    2  501    0  0.41024672360E+02  0.68315719167E+02 -0.29336781145E+02  0.84915887533E+02  0.00000000000E+00 0.  1.
          1    1    1    2  502    0 -0.27234312565E+02 -0.77979273295E+01 -0.44042474279E+02  0.52366544589E+02  0.00000000000E+00 0. -1.
         22    1    1    2    0    0 -0.11288661032E+01 -0.11000076836E+02  0.19615070364E+02  0.22517260368E+02  0.00000000000E+00 0.  1.
         22    1    1    2    0    0 -0.12661493691E+02 -0.49517715002E+02 -0.20670701939E+03  0.21293217086E+03  0.00000000000E+00 0. -1.
</event>
<event>
 6    1  0.1726037E-005  0.2694290E+02  0.7818608E-02  0.1668485E+00
          2   -1    0    0  502    0  0.00000000000E+00  0.00000000000E+00  0.10716106159E+03  0.10716106159E+03  0.00000000000E+00 0. -1.
          1   -1    0    0  501    0 -0.00000000000E+00 -0.00000000000E+00 -0.14553653671E+03  0.14553653671E+03  0.00000000000E+00 0.  1.
          2    1    1    2  501    0  0.44048512023E+02 -0.26499578407E+01  0.49358498399E+02  0.66208421309E+02  0.00000000000E+00 0. -1.
          1    1    1    2  502    0 -0.14163146049E+02  0.25851051625E+02 -0.24695502371E+02  0.38454380940E+02  0.00000000000E+00 0.  1.
         22    1    1    2    0    0 -0.16557976070E+02 -0.15218753646E+02 -0.10286022987E+03  0.10529009413E+03  0.00000000000E+00 0.  1.
         22    1    1    2    0    0 -0.13327389903E+02 -0.79823401385E+01  0.39821758711E+02  0.42744701924E+02  0.00000000000E+00 0.  1.
</event>
<event>
 6    1  0.1726037E-005  0.5177133E+02  0.7818608E-02  0.1445267E+00
          2   -1    0    0  502    0  0.00000000000E+00  0.00000000000E+00  0.36922929564E+02  0.36922929564E+02  0.00000000000E+00 0.  1.
          1   -1    0    0  501    0 -0.00000000000E+00 -0.00000000000E+00 -0.22835425297E+03  0.22835425297E+03  0.00000000000E+00 0.  1.
          2    1    1    2  501    0 -0.66398302927E+01 -0.30674951120E+02 -0.24592995217E+02  0.39872990686E+02  0.00000000000E+00 0.  1.
          1    1    1    2  502    0 -0.26481532659E+01  0.26333185740E+02 -0.52108273171E+02  0.58444174387E+02  0.00000000000E+00 0.  1.
         22    1    1    2    0    0 -0.26571826364E+02  0.31678492408E+02 -0.11464022422E+03  0.12186865818E+03  0.00000000000E+00 0.  1.
         22    1    1    2    0    0  0.35859809922E+02 -0.27336727028E+02 -0.89830799962E-01  0.45091359281E+02  0.00000000000E+00 0.  1.
</event>
<event>
 6    1  0.1726037E-005  0.5391721E+02  0.7818608E-02  0.1491365E+00
          2   -1    0    0  502    0  0.00000000000E+00  0.00000000000E+00  0.20662924741E+03  0.20662924741E+03  0.00000000000E+00 0.  1.
          1   -1    0    0  501    0 -0.00000000000E+00 -0.00000000000E+00 -0.77649445885E+02  0.77649445885E+02  0.00000000000E+00 0. -1.
          2    1    1    2  501    0  0.29266286000E+02  0.69466470371E+01  0.79510283376E+02  0.85009743935E+02  0.00000000000E+00 0.  1.
          1    1    1    2  502    0 -0.34436647182E+02 -0.23775455236E+02 -0.25194720457E+02  0.48845970968E+02  0.00000000000E+00 0. -1.
         22    1    1    2    0    0 -0.17284709625E+02  0.11186909395E+02 -0.33766158825E+02  0.39548218802E+02  0.00000000000E+00 0.  1.
         22    1    1    2    0    0  0.22455070807E+02  0.56418988046E+01  0.10843039743E+03  0.11087475959E+03  0.00000000000E+00 0. -1.
</event>
<event>
 6    1  0.1726037E-005  0.7670100E+02  0.7818608E-02  0.1340687E+00
          2   -1    0    0  502    0  0.00000000000E+00  0.00000000000E+00  0.73915506912E+02  0.73915506912E+02  0.00000000000E+00 0. -1.
          1   -1    0    0  501    0 -0.00000000000E+00 -0.00000000000E+00 -0.30657196293E+03  0.30657196293E+03  0.00000000000E+00 0. -1.
          2    1    1    2  501    0 -0.40870794002E+02  0.31196164359E+02  0.33783862392E+02  0.61522124729E+02  0.00000000000E+00 0. -1.
          1    1    1    2  502    0  0.48610066113E+01 -0.24701351342E+02 -0.12905517467E+03  0.13148773423E+03  0.00000000000E+00 0. -1.
         22    1    1    2    0    0 -0.42580235566E+01  0.22263041570E+02  0.15052816980E+02  0.27209577057E+02  0.00000000000E+00 0. -1.
         22    1    1    2    0    0  0.40267810947E+02 -0.28757854586E+02 -0.15243796072E+03  0.16026803383E+03  0.00000000000E+00 0. -1.
</event>
<event>
 6    1  0.1726037E-005  0.4938282E+02  0.7818608E-02  0.1492134E+00
          2   -1    0    0  502    0  0.00000000000E+00  0.00000000000E+00  0.39053974431E+02  0.39053974431E+02  0.00000000000E+00 0. -1.
          1   -1    0    0  501    0 -0.00000000000E+00 -0.00000000000E+00 -0.96183201240E+03  0.96183201240E+03  0.00000000000E+00 0. -1.
          2    1    1    2  501    0  0.54140437286E+02  0.27139960651E+02 -0.55399107573E+02  0.82078167216E+02  0.00000000000E+00 0. -1.
          1    1    1    2  502    0 -0.38868696292E+02 -0.86719663128E+01 -0.73364739068E+03  0.73472748172E+03  0.00000000000E+00 0. -1.
         22    1    1    2    0    0 -0.41781645097E+02 -0.18812201031E+02  0.19206054037E+01  0.45861677900E+02  0.00000000000E+00 0.  1.
         22    1    1    2    0    0  0.26509904103E+02  0.34420669308E+00 -0.13565214512E+03  0.13821865999E+03  0.00000000000E+00 0. -1.
</event>
<event>
 6    1  0.1726037E-005  0.2660043E+02  0.7818608E-02  0.1661321E+00
          2   -1    0    0  502    0  0.00000000000E+00  0.00000000000E+00  0.14659412541E+03  0.14659412541E+03  0.00000000000E+00 0. -1.
          1   -1    0    0  501    0 -0.00000000000E+00 -0.00000000000E+00 -0.23500718032E+03  0.23500718032E+03  0.00000000000E+00 0.  1.
          2    1    1    2  501    0 -0.36969651015E+02 -0.79021825749E+01  0.10830162699E+03  0.11471025235E+03  0.00000000000E+00 0. -1.
          1    1    1    2  502    0  0.20895028396E+02  0.96540454494E+01 -0.10392046758E+03  0.10643902662E+03  0.00000000000E+00 0.  1.
         22    1    1    2    0    0  0.11927982745E+02 -0.17840614215E+02 -0.12360116881E+03  0.12545044128E+03  0.00000000000E+00 0. -1.
         22    1    1    2    0    0  0.41466398741E+01  0.16088751341E+02  0.30806954474E+02  0.35001585477E+02  0.00000000000E+00 0.  1.
</event>
<event>
 6    1  0.1726037E-005  0.1047956E+03  0.7818608E-02  0.1389803E+00
          2   -1    0    0  502    0  0.00000000000E+00  0.00000000000E+00  0.17587517197E+03  0.17587517197E+03  0.00000000000E+00 0. -1.
          1   -1    0    0  501    0 -0.00000000000E+00 -0.00000000000E+00 -0.10822990935E+03  0.10822990935E+03  0.00000000000E+00 0. -1.
          2    1    1    2  501    0  0.49759007405E+02  0.66946644978E+01  0.67782952848E+02  0.84352273517E+02  0.00000000000E+00 0. -1.
          1    1    1    2  502    0 -0.17490723863E+02  0.41016088443E+02 -0.32142838574E+02  0.54967326695E+02  0.00000000000E+00 0. -1.
         22    1    1    2    0    0 -0.44294926230E+02 -0.43321252703E+02 -0.38620374909E+02  0.73008936327E+02  0.00000000000E+00 0. -1.
         22    1    1    2    0    0  0.12026642689E+02 -0.43895002375E+01  0.70625523249E+02  0.71776544783E+02  0.00000000000E+00 0. -1.
</event>
<event>
 6    1  0.1726037E-005  0.7879934E+02  0.7818608E-02  0.1444339E+00
          2   -1    0    0  502    0  0.00000000000E+00  0.00000000000E+00  0.59486796602E+02  0.59486796602E+02  0.00000000000E+00 0.  1.
          1   -1    0    0  501    0 -0.00000000000E+00 -0.00000000000E+00 -0.50808291828E+03  0.50808291828E+03  0.00000000000E+00 0.  1.
          2    1    1    2  501    0  0.73200262461E+02 -0.31518730844E+02 -0.27711599569E+03  0.28834871924E+03  0.00000000000E+00 0.  1.
          1    1    1    2  502    0 -0.44863955250E+02  0.18998911913E+02 -0.13555828518E+03  0.14404784558E+03  0.00000000000E+00 0.  1.
         22    1    1    2    0    0 -0.54173353422E+00  0.12953658925E+02  0.46456192059E+02  0.48231406111E+02  0.00000000000E+00 0.  1.
         22    1    1    2    0    0 -0.27794573678E+02 -0.43383999391E+00 -0.82378032863E+02  0.86941743953E+02  0.00000000000E+00 0.  1.
</event>
<event>
 6    1  0.1726037E-005  0.5687129E+02  0.7818608E-02  0.1458898E+00
          2   -1    0    0  502    0  0.00000000000E+00  0.00000000000E+00  0.29089129485E+03  0.29089129485E+03  0.00000000000E+00 0. -1.
          1   -1    0    0  501    0 -0.00000000000E+00 -0.00000000000E+00 -0.14782123648E+03  0.14782123648E+03  0.00000000000E+00 0.  1.
          2    1    1    2  501    0  0.11332369845E+03 -0.37305021996E+02  0.15714247297E+03  0.19730099368E+03  0.00000000000E+00 0. -1.
          1    1    1    2  502    0 -0.10788130540E+03  0.24648707655E+02 -0.17544153737E+02  0.11204343878E+03  0.00000000000E+00 0.  1.
         22    1    1    2    0    0  0.68327725592E+01 -0.11045114872E+02  0.62896849432E+02  0.64223788520E+02  0.00000000000E+00 0. -1.
         22    1    1    2    0    0 -0.12275165612E+02  0.23701429213E+02 -0.59425110292E+02  0.65144310348E+02  0.00000000000E+00 0.  1.
</event>
<event>
 6    1  0.1726037E-005  0.6904872E+02  0.7818608E-02  0.1479902E+00
          2   -1    0    0  502    0  0.00000000000E+00  0.00000000000E+00  0.32270874084E+02  0.32270874084E+02  0.00000000000E+00 0.  1.
          1   -1    0    0  501    0 -0.00000000000E+00 -0.00000000000E+00 -0.57720098135E+03  0.57720098135E+03  0.00000000000E+00 0. -1.
          2    1    1    2  501    0  0.15794430671E+02  0.13167766048E+02 -0.20280962668E+02  0.28882028143E+02  0.00000000000E+00 0.  1.
          1    1    1    2  502    0  0.31558557306E+02  0.56841432179E+02 -0.31480585620E+03  0.32144924646E+03  0.00000000000E+00 0. -1.
         22    1    1    2    0    0 -0.50943527875E+02 -0.59071971442E+02 -0.22612452087E+03  0.23920083566E+03  0.00000000000E+00 0.  1.
         22    1    1    2    0    0  0.35905398981E+01 -0.10937226786E+02  0.16281232474E+02  0.19939745169E+02  0.00000000000E+00 0. -1.
</event>
<event>
 6    1  0.1726037E-005  0.2933798E+02  0.7818608E-02  0.1658228E+00
          2   -1    0    0  502    0  0.00000000000E+00  0.00000000000E+00  0.17312454157E+03  0.17312454157E+03  0.00000000000E+00 0.  1.
          1   -1    0    0  501    0 -0.00000000000E+00 -0.00000000000E+00 -0.93947410685E+02  0.93947410685E+02  0.00000000000E+00 0. -1.
          2    1    1    2  501    0  0.38865874227E+02  0.15554867064E+02  0.10375773955E+03  0.11188466644E+03  0.00000000000E+00 0.  1.
          1    1    1    2  502    0 -0.18154490457E+02 -0.12571281729E+02 -0.19614820301E+02  0.29535805787E+02  0.00000000000E+00 0. -1.
         22    1    1    2    0    0 -0.41376848903E+01  0.11012336535E+02  0.57933881467E+02  0.59116212785E+02  0.00000000000E+00 0.  1.
         22    1    1    2    0    0 -0.16573698880E+02 -0.13995921870E+02 -0.62899669823E+02  0.66535267245E+02  0.00000000000E+00 0. -1.
</event>
<event>
 6    1  0.1726037E-005  0.6383570E+02  0.7818608E-02  0.1384028E+00
          2   -1    0    0  502    0  0.00000000000E+00  0.00000000000E+00  0.57686159869E+03  0.57686159869E+03  0.00000000000E+00 0.  1.
          1   -1    0    0  501    0 -0.00000000000E+00 -0.00000000000E+00 -0.91622128627E+02  0.91622128627E+02  0.00000000000E+00 0. -1.
          2    1    1    2  501    0  0.53386511541E+02  0.25991507064E+02  0.42812278358E+03  0.43222077215E+03  0.00000000000E+00 0.  1.
          1    1    1    2  502    0  0.11808480450E+02 -0.16409841401E+02 -0.53973530456E+02  0.57635623492E+02  0.00000000000E+00 0. -1.
         22    1    1    2    0    0 -0.85063997517E+02 -0.31957526040E+02  0.11698248533E+03  0.14812855572E+03  0.00000000000E+00 0.  1.
         22    1    1    2    0    0  0.19869005527E+02  0.22375860377E+02 -0.58922683957E+01  0.30498775961E+02  0.00000000000E+00 0. -1.
</event>
<event>
 6    1  0.1726037E-005  0.3136974E+02  0.7818608E-02  0.1647271E+00
          2   -1    0    0  502    0  0.00000000000E+00  0.00000000000E+00  0.12927799159E+03  0.12927799159E+03  0.00000000000E+00 0.  1.
          1   -1    0    0  501    0 -0.00000000000E+00 -0.00000000000E+00 -0.12481879807E+03  0.12481879807E+03  0.00000000000E+00 0. -1.
          2    1    1    2  501    0 -0.12694637532E+02 -0.42460802248E+02  0.43473261178E+02  0.62080576568E+02  0.00000000000E+00 0.  1.
          1    1    1    2  502    0  0.27519782508E+02  0.15439059793E+02 -0.51904858265E+02  0.60743866423E+02  0.00000000000E+00 0. -1.
         22    1    1    2    0    0 -0.19197579296E+02  0.16030620339E+02  0.69279757225E+02  0.73656042525E+02  0.00000000000E+00 0.  1.
         22    1    1    2    0    0  0.43724343190E+01  0.10991122116E+02 -0.56388966620E+02  0.57616304148E+02  0.00000000000E+00 0. -1.
</event>
<event>
 6    1  0.1726037E-005  0.7354598E+02  0.7818608E-02  0.1374121E+00
          2   -1    0    0  502    0  0.00000000000E+00  0.00000000000E+00  0.10862465958E+03  0.10862465958E+03  0.00000000000E+00 0.  1.
          1   -1    0    0  501    0 -0.00000000000E+00 -0.00000000000E+00 -0.21679564019E+03  0.21679564019E+03  0.00000000000E+00 0.  1.
          2    1    1    2  501    0 -0.84204160476E+02 -0.21312547918E+02 -0.12199990656E+03  0.14976161905E+03  0.00000000000E+00 0.  1.
          1    1    1    2  502    0  0.10607551567E+02 -0.18058468533E+02 -0.14662618532E+02  0.25566009040E+02  0.00000000000E+00 0.  1.
         22    1    1    2    0    0  0.35989184002E+02  0.98697133880E+01 -0.47446557328E+02  0.60363966153E+02  0.00000000000E+00 0.  1.
         22    1    1    2    0    0  0.37607424907E+02  0.29501303064E+02  0.75938101809E+02  0.89728705535E+02  0.00000000000E+00 0.  1.
</event>
<event>
 6    1  0.1726037E-005  0.4640954E+02  0.7818608E-02  0.1510170E+00
          2   -1    0    0  502    0  0.00000000000E+00  0.00000000000E+00  0.13310287934E+03  0.13310287934E+03  0.00000000000E+00 0.  1.
          1   -1    0    0  501    0 -0.00000000000E+00 -0.00000000000E+00 -0.20006222644E+03  0.20006222644E+03  0.00000000000E+00 0.  1.
          2    1    1    2  501    0  0.45572741278E+02  0.15280336165E+02 -0.29838904995E+02  0.56574938552E+02  0.00000000000E+00 0.  1.
          1    1    1    2  502    0 -0.28421660688E+02  0.82781348976E+00 -0.11841027854E+03  0.12177631188E+03  0.00000000000E+00 0.  1.
         22    1    1    2    0    0 -0.37321911506E+01 -0.24657886003E+02  0.11492787416E+03  0.11760253761E+03  0.00000000000E+00 0.  1.
         22    1    1    2    0    0 -0.13418889440E+02  0.85497363477E+01 -0.33638037727E+02  0.37211317734E+02  0.00000000000E+00 0.  1.
</event>
<event>
 6    1  0.1726037E-005  0.5762024E+02  0.7818608E-02  0.1415547E+00
          2   -1    0    0  502    0  0.00000000000E+00  0.00000000000E+00  0.95877431458E+02  0.95877431458E+02  0.00000000000E+00 0.  1.
          1   -1    0    0  501    0 -0.00000000000E+00 -0.00000000000E+00 -0.13768018346E+04  0.13768018346E+04  0.00000000000E+00 0.  1.
          2    1    1    2  501    0 -0.19518085061E+03  0.67284182758E+01 -0.43984799586E+03  0.48125574855E+03  0.00000000000E+00 0.  1.
          1    1    1    2  502    0  0.18663295974E+03 -0.13512928849E+02 -0.84456271500E+03  0.86504372172E+03  0.00000000000E+00 0.  1.
         22    1    1    2    0    0  0.16341474910E+02 -0.69730985814E+01  0.62659893493E+02  0.65130101786E+02  0.00000000000E+00 0. -1.
         22    1    1    2    0    0 -0.77935840386E+01  0.13757609155E+02 -0.59173585763E+02  0.61249693990E+02  0.00000000000E+00 0. -1.
</event>
<event>
 6    1  0.1726037E-005  0.3911230E+02  0.7818608E-02  0.1562487E+00
          2   -1    0    0  502    0  0.00000000000E+00  0.00000000000E+00  0.24259574137E+03  0.24259574137E+03  0.00000000000E+00 0.  1.
          1   -1    0    0  501    0 -0.00000000000E+00 -0.00000000000E+00 -0.58455600579E+03  0.58455600579E+03  0.00000000000E+00 0. -1.
          2    1    1    2  501    0 -0.20761482285E+01 -0.72827692961E+02  0.18243542785E+03  0.19644558684E+03  0.00000000000E+00 0.  1.
          1    1    1    2  502    0  0.28069858021E+02  0.50905395024E+02 -0.48870960055E+03  0.49215480272E+03  0.00000000000E+00 0. -1.
         22    1    1    2    0    0 -0.10616070640E+02  0.57044598328E+01  0.49260826145E+02  0.50713615630E+02  0.00000000000E+00 0. -1.
         22    1    1    2    0    0 -0.15377639152E+02  0.16217838104E+02 -0.84946917874E+02  0.87837741973E+02  0.00000000000E+00 0. -1.
</event>
<event>
 6    1  0.1726037E-005  0.1994241E+03  0.7818608E-02  0.1284353E+00
          2   -1    0    0  502    0  0.00000000000E+00  0.00000000000E+00  0.37648876420E+03  0.37648876420E+03  0.00000000000E+00 0.  1.
          1   -1    0    0  501    0 -0.00000000000E+00 -0.00000000000E+00 -0.79877287940E+02  0.79877287940E+02  0.00000000000E+00 0.  1.
          2    1    1    2  501    0 -0.91398014773E+02 -0.89919825971E+01  0.15217054871E+03  0.17773668375E+03  0.00000000000E+00 0.  1.
          1    1    1    2  502    0  0.10508801509E+02  0.70615918912E+02  0.82246817717E+02  0.10891088989E+03  0.00000000000E+00 0.  1.
         22    1    1    2    0    0  0.92564200556E+02 -0.61669909734E+02  0.49933728188E+01  0.11133841549E+03  0.00000000000E+00 0.  1.
         22    1    1    2    0    0 -0.11674987293E+02  0.45973419699E-01  0.57200737013E+02  0.58380063007E+02  0.00000000000E+00 0.  1.
</event>
<event>
 6    1  0.1726037E-005  0.2301166E+03  0.7818608E-02  0.1268184E+00
          2   -1    0    0  502    0  0.00000000000E+00  0.00000000000E+00  0.12964140910E+03  0.12964140910E+03  0.00000000000E+00 0. -1.
          1   -1    0    0  501    0 -0.00000000000E+00 -0.00000000000E+00 -0.47280276319E+03  0.47280276319E+03  0.00000000000E+00 0.  1.
          2    1    1    2  501    0 -0.16900054617E+03 -0.62343489684E+02 -0.11488353417E+02  0.18049896835E+03  0.00000000000E+00 0. -1.
          1    1    1    2  502    0  0.19889854759E+02  0.35533456156E+02 -0.62129395789E+01  0.41192638262E+02  0.00000000000E+00 0.  1.
         22    1    1    2    0    0 -0.10340223844E+02  0.57111174133E+00  0.60220638200E+01  0.11979634820E+02  0.00000000000E+00 0. -1.
         22    1    1    2    0    0  0.15945091525E+03  0.26238921787E+02 -0.33148212491E+03  0.36877293085E+03  0.00000000000E+00 0.  1.
</event>
<event>
 6    1  0.1726037E-005  0.2625393E+03  0.7818608E-02  0.1220957E+00
          2   -1    0    0  502    0  0.00000000000E+00  0.00000000000E+00  0.45034800164E+03  0.45034800164E+03  0.00000000000E+00 0.  1.
          1   -1    0    0  501    0 -0.00000000000E+00 -0.00000000000E+00 -0.31067084697E+03  0.31067084697E+03  0.00000000000E+00 0. -1.
          2    1    1    2  501    0  0.62291945107E+02  0.86035364693E+01 -0.12532717854E+03  0.14021843298E+03  0.00000000000E+00 0.  1.
          1    1    1    2  502    0 -0.23198702255E+03 -0.17651728989E+03  0.14453253361E+03  0.32537053574E+03  0.00000000000E+00 0. -1.
         22    1    1    2    0    0 -0.14189659027E+02  0.11193682798E+02  0.34561470493E+02  0.39001797401E+02  0.00000000000E+00 0. -1.
         22    1    1    2    0    0  0.18388473647E+03  0.15672007062E+03  0.85910329116E+02  0.25642808249E+03  0.00000000000E+00 0.  1.
</event>
<event>
 6    1  0.1726037E-005  0.1193868E+03  0.7818608E-02  0.1316539E+00
          2   -1    0    0  502    0  0.00000000000E+00  0.00000000000E+00  0.25540191412E+03  0.25540191412E+03  0.00000000000E+00 0. -1.
          1   -1    0    0  501    0 -0.00000000000E+00 -0.00000000000E+00 -0.13538778167E+03  0.13538778167E+03  0.00000000000E+00 0.  1.
          2    1    1    2  501    0 -0.10331968443E+03  0.46386861136E+01  0.11639850764E+03  0.15570834011E+03  0.00000000000E+00 0. -1.
          1    1    1    2  502    0  0.85563406293E+02  0.26176231445E+02 -0.45618629404E+02  0.10043580506E+03  0.00000000000E+00 0.  1.
         22    1    1    2    0    0 -0.12592966420E+02 -0.27308396179E+02  0.83492757308E+02  0.88743291735E+02  0.00000000000E+00 0.  1.
         22    1    1    2    0    0  0.30349244553E+02 -0.35065213795E+01 -0.34258503088E+02  0.45902258887E+02  0.00000000000E+00 0. -1.
</event>
<event>
 6    1  0.1726037E-005  0.4413541E+02  0.7818608E-02  0.1564412E+00
          2   -1    0    0  502    0  0.00000000000E+00  0.00000000000E+00  0.14411913860E+03  0.14411913860E+03  0.00000000000E+00 0. -1.
          1   -1    0    0  501    0 -0.00000000000E+00 -0.00000000000E+00 -0.12163556037E+03  0.12163556037E+03  0.00000000000E+00 0.  1.
          2    1    1    2  501    0  0.88230562159E+01  0.30173475652E+02  0.60054050927E+02  0.67784762202E+02  0.00000000000E+00 0. -1.
          1    1    1    2  502    0 -0.12836651215E+02 -0.17332307985E+02 -0.68408577518E+02  0.71728111592E+02  0.00000000000E+00 0.  1.
         22    1    1    2    0    0  0.11763761875E+02  0.80793018927E+01  0.75223331288E+02  0.76565075475E+02  0.00000000000E+00 0. -1.
         22    1    1    2    0    0 -0.77501668765E+01 -0.20920469560E+02 -0.44385226462E+02  0.49676749706E+02  0.00000000000E+00 0. -1.
</event>
<event>
 6    1  0.1726037E-005  0.1393190E+03  0.7818608E-02  0.1214449E+00
          2   -1    0    0  502    0  0.00000000000E+00  0.00000000000E+00  0.19418720781E+03  0.19418720781E+03  0.00000000000E+00 0. -1.
          1   -1    0    0  501    0 -0.00000000000E+00 -0.00000000000E+00 -0.20506302466E+03  0.20506302466E+03  0.00000000000E+00 0.  1.
          2    1    1    2  501    0 -0.11995074253E+03  0.12965146005E+02  0.11055829237E+03  0.16364416169E+03  0.00000000000E+00 0. -1.
          1    1    1    2  502    0  0.30583775114E+02 -0.45303143232E+00 -0.59389687917E+02  0.66803499673E+02  0.00000000000E+00 0.  1.
         22    1    1    2    0    0 -0.11559314973E+02  0.11897694111E+02  0.27216851409E+02  0.31873655084E+02  0.00000000000E+00 0. -1.
         22    1    1    2    0    0  0.10092628239E+03 -0.24409808684E+02 -0.89261272703E+02  0.13692891602E+03  0.00000000000E+00 0.  1.
</event>
<event>
 6    1  0.1726037E-005  0.4094733E+02  0.7818608E-02  0.1513748E+00
          2   -1    0    0  502    0  0.00000000000E+00  0.00000000000E+00  0.95637962231E+02  0.95637962231E+02  0.00000000000E+00 0. -1.
          1   -1    0    0  501    0 -0.00000000000E+00 -0.00000000000E+00 -0.20233583194E+03  0.20233583194E+03  0.00000000000E+00 0. -1.
          2    1    1    2  501    0 -0.34471398628E+02 -0.61415944402E+02 -0.81501056625E+01  0.70898658468E+02  0.00000000000E+00 0. -1.
          1    1    1    2  502    0  0.40635313530E+02  0.60435101779E+02 -0.71839396359E+02  0.10229628098E+03  0.00000000000E+00 0. -1.
         22    1    1    2    0    0 -0.14748254376E+02  0.18013460287E+02 -0.71981070273E+02  0.75652298288E+02  0.00000000000E+00 0. -1.
         22    1    1    2    0    0  0.85843394736E+01 -0.17032617664E+02  0.45272702582E+02  0.49126556441E+02  0.00000000000E+00 0. -1.
</event>
<event>
 6    1  0.1726037E-005  0.8648266E+02  0.7818608E-02  0.1390997E+00
          2   -1    0    0  502    0  0.00000000000E+00  0.00000000000E+00  0.66176899564E+02  0.66176899564E+02  0.00000000000E+00 0. -1.
          1   -1    0    0  501    0 -0.00000000000E+00 -0.00000000000E+00 -0.29705287134E+03  0.29705287134E+03  0.00000000000E+00 0. -1.
          2    1    1    2  501    0  0.48509606925E+02 -0.40731254124E+02 -0.21431715806E+01  0.63378310256E+02  0.00000000000E+00 0. -1.
          1    1    1    2  502    0 -0.41756195474E+02  0.10919033516E+02 -0.13590153218E+03  0.14259043307E+03  0.00000000000E+00 0. -1.
         22    1    1    2    0    0  0.20824829503E+02 -0.81054660476E+01  0.23141019690E+02  0.32169533661E+02  0.00000000000E+00 0.  1.
         22    1    1    2    0    0 -0.27578240954E+02  0.37917686655E+02 -0.11597228770E+03  0.12509149392E+03  0.00000000000E+00 0. -1.
</event>
<event>
 6    1  0.1726037E-005  0.1108567E+03  0.7818608E-02  0.1357125E+00
          2   -1    0    0  502    0  0.00000000000E+00  0.00000000000E+00  0.10823247839E+03  0.10823247839E+03  0.00000000000E+00 0.  1.
          1   -1    0    0  501    0 -0.00000000000E+00 -0.00000000000E+00 -0.48681049875E+03  0.48681049875E+03  0.00000000000E+00 0.  1.
          2    1    1    2  501    0 -0.78716043939E+01  0.89487501764E+02 -0.97124744523E+01  0.90356556417E+02  0.00000000000E+00 0.  1.
          1    1    1    2  502    0 -0.57047783480E+01 -0.91009095932E+02 -0.36675994673E+03  0.37792599615E+03  0.00000000000E+00 0.  1.
         22    1    1    2    0    0  0.13079162048E+02 -0.16999091701E+02 -0.61189517151E+02  0.64839730164E+02  0.00000000000E+00 0.  1.
         22    1    1    2    0    0  0.49722069402E+00  0.18520685869E+02  0.59083917972E+02  0.61920694412E+02  0.00000000000E+00 0.  1.
</event>
<event>
 6    1  0.1726037E-005  0.7654643E+02  0.7818608E-02  0.1407677E+00
          2   -1    0    0  502    0  0.00000000000E+00  0.00000000000E+00  0.97124188168E+02  0.97124188168E+02  0.00000000000E+00 0.  1.
          1   -1    0    0  501    0 -0.00000000000E+00 -0.00000000000E+00 -0.30829672795E+03  0.30829672795E+03  0.00000000000E+00 0. -1.
          2    1    1    2  501    0  0.73819127654E+02 -0.74314277908E+02 -0.64396941774E+02  0.12295869883E+03  0.00000000000E+00 0.  1.
          1    1    1    2  502    0 -0.84019664882E+02 -0.13395305496E+02 -0.72517755999E+02  0.11179250078E+03  0.00000000000E+00 0. -1.
         22    1    1    2    0    0  0.90551152241E+01  0.65297966662E+02 -0.11013220785E+03  0.12835467567E+03  0.00000000000E+00 0. -1.
         22    1    1    2    0    0  0.11454220033E+01  0.22411616742E+02  0.35874365835E+02  0.42315040832E+02  0.00000000000E+00 0. -1.
</event>
<event>
 6    1  0.1904004E-005  0.5756804E+02  0.7818608E-02  0.1509074E+00
          2   -1    0    0  502    0  0.00000000000E+00  0.00000000000E+00  0.87003519822E+02  0.87003519822E+02  0.00000000000E+00 0.  1.
          1   -1    0    0  501    0 -0.00000000000E+00 -0.00000000000E+00 -0.62250440761E+03  0.62250440761E+03  0.00000000000E+00 0. -1.
          2    1    1    2  501    0  0.22164660852E+02  0.21398226536E+02 -0.20143973816E+02  0.36809454908E+02  0.00000000000E+00 0.  1.
          1    1    1    2  502    0 -0.19537814635E+02 -0.23337040293E+02 -0.54218473871E+03  0.54303833616E+03  0.00000000000E+00 0. -1.
         22    1    1    2    0    0  0.46285712666E+01  0.13040035196E+02 -0.49905980737E+02  0.51788735293E+02  0.00000000000E+00 0.  1.
         22    1    1    2    0    0 -0.72554174831E+01 -0.11101221438E+02  0.76733805481E+02  0.77871401065E+02  0.00000000000E+00 0.  1.
</event>
<event>
 6    1  0.1726037E-005  0.4298904E+02  0.7818608E-02  0.1543485E+00
          2   -1    0    0  502    0  0.00000000000E+00  0.00000000000E+00  0.47380109213E+02  0.47380109213E+02  0.00000000000E+00 0.  1.
          1   -1    0    0  501    0 -0.00000000000E+00 -0.00000000000E+00 -0.28117386378E+03  0.28117386378E+03  0.00000000000E+00 0.  1.
          2    1    1    2  501    0 -0.33823979620E+02  0.34245941526E+02 -0.52495518012E+02  0.71222366709E+02  0.00000000000E+00 0.  1.
          1    1    1    2  502    0  0.84904203073E+01 -0.42366442560E+02 -0.98936247841E+02  0.10796010295E+03  0.00000000000E+00 0.  1.
         22    1    1    2    0    0  0.44274907435E+02  0.74170612843E+01 -0.10830602835E+03  0.11724110202E+03  0.00000000000E+00 0.  1.
         22    1    1    2    0    0 -0.18941348122E+02  0.70343974879E+00  0.25944039632E+02  0.32130401314E+02  0.00000000000E+00 0.  1.
</event>
<event>
 6    1  0.1726037E-005  0.9379875E+02  0.7818608E-02  0.1366648E+00
          2   -1    0    0  502    0  0.00000000000E+00  0.00000000000E+00  0.29820639010E+02  0.29820639010E+02  0.00000000000E+00 0. -1.
          1   -1    0    0  501    0 -0.00000000000E+00 -0.00000000000E+00 -0.67643641800E+03  0.67643641800E+03  0.00000000000E+00 0. -1.
          2    1    1    2  501    0 -0.54732536848E+02 -0.65486886961E+02 -0.16318053450E+03  0.18415230054E+03  0.00000000000E+00 0. -1.
          1    1    1    2  502    0  0.37302159328E+02  0.37587494517E+02 -0.26473122007E+03  0.26997572060E+03  0.00000000000E+00 0. -1.
         22    1    1    2    0    0 -0.49968913315E+01  0.41197930477E+02 -0.22200208799E+03  0.22584765987E+03  0.00000000000E+00 0.  1.
         22    1    1    2    0    0  0.22427268851E+02 -0.13298538033E+02  0.32980635539E+01  0.26281376013E+02  0.00000000000E+00 0. -1.
</event>
<event>
 6    1  0.1726037E-005  0.4557817E+02  0.7818608E-02  0.1552117E+00
          2   -1    0    0  502    0  0.00000000000E+00  0.00000000000E+00  0.29545734769E+03  0.29545734769E+03  0.00000000000E+00 0.  1.
          1   -1    0    0  501    0 -0.00000000000E+00 -0.00000000000E+00 -0.30517586212E+03  0.30517586212E+03  0.00000000000E+00 0. -1.
          2    1    1    2  501    0  0.21984768692E+02 -0.51814659907E+01  0.20729769799E+03  0.20852461062E+03  0.00000000000E+00 0.  1.
          1    1    1    2  502    0 -0.30710839529E+02 -0.64717331481E+01 -0.25753007663E+03  0.25943550136E+03  0.00000000000E+00 0. -1.
         22    1    1    2    0    0 -0.11151544544E+02  0.10254077242E+02 -0.43638670234E+02  0.46193469080E+02  0.00000000000E+00 0. -1.
         22    1    1    2    0    0  0.19877615381E+02  0.13991218964E+01  0.84152534450E+02  0.86479628755E+02  0.00000000000E+00 0.  1.
</event>
<event>
 6    1  0.1726037E-005  0.3165376E+02  0.7818608E-02  0.1592716E+00
          2   -1    0    0  502    0  0.00000000000E+00  0.00000000000E+00  0.44410634479E+02  0.44410634479E+02  0.00000000000E+00 0.  1.
          1   -1    0    0  501    0 -0.00000000000E+00 -0.00000000000E+00 -0.11728838983E+04  0.11728838983E+04  0.00000000000E+00 0. -1.
          2    1    1    2  501    0 -0.20799593278E+02 -0.57279967244E+02 -0.32781956856E+03  0.33343558187E+03  0.00000000000E+00 0.  1.
          1    1    1    2  502    0  0.21995430562E+02  0.44621585478E+02 -0.74384265953E+03  0.74550438429E+03  0.00000000000E+00 0. -1.
         22    1    1    2    0    0  0.15699834097E+02  0.11855902764E+02  0.37602328904E+02  0.42437982516E+02  0.00000000000E+00 0.  1.
         22    1    1    2    0    0 -0.16895671381E+02  0.80247900192E+00 -0.94413364631E+02  0.95916584097E+02  0.00000000000E+00 0.  1.
</event>
<event>
 6    1  0.1726037E-005  0.1222954E+03  0.7818608E-02  0.1240627E+00
          2   -1    0    0  502    0  0.00000000000E+00  0.00000000000E+00  0.81968640940E+02  0.81968640940E+02  0.00000000000E+00 0.  1.
          1   -1    0    0  501    0 -0.00000000000E+00 -0.00000000000E+00 -0.46984605191E+03  0.46984605191E+03  0.00000000000E+00 0.  1.
          2    1    1    2  501    0 -0.73980811253E+02  0.70551856817E+02  0.63969440619E+01  0.10242873536E+03  0.00000000000E+00 0.  1.
          1    1    1    2  502    0  0.40618472097E+02 -0.38452139877E+02 -0.24193235779E+03  0.24831369895E+03  0.00000000000E+00 0.  1.
         22    1    1    2    0    0  0.46450258099E+02 -0.38956061572E+02 -0.16856164884E+03  0.17913188066E+03  0.00000000000E+00 0.  1.
         22    1    1    2    0    0 -0.13087918944E+02  0.68563446316E+01  0.16219651594E+02  0.21940377887E+02  0.00000000000E+00 0.  1.
</event>
<event>
 6    1  0.1726037E-005  0.1276432E+03  0.7818608E-02  0.1361740E+00
          2   -1    0    0  502    0  0.00000000000E+00  0.00000000000E+00  0.33478463694E+03  0.33478463694E+03  0.00000000000E+00 0.  1.
          1   -1    0    0  501    0 -0.00000000000E+00 -0.00000000000E+00 -0.38049237511E+03  0.38049237511E+03  0.00000000000E+00 0. -1.
          2    1    1    2  501    0 -0.10983469926E+03 -0.56276296403E+02  0.28403668491E+03  0.30968939451E+03  0.00000000000E+00 0.  1.
          1    1    1    2  502    0  0.77798147268E+02  0.39953827622E+02 -0.21560733472E+03  0.23267011592E+03  0.00000000000E+00 0. -1.
         22    1    1    2    0    0  0.27671105315E+02  0.26669643170E+02 -0.13975675396E+03  0.14494450736E+03  0.00000000000E+00 0. -1.
         22    1    1    2    0    0  0.43654466730E+01 -0.10347174389E+02  0.25619665589E+02  0.27972994252E+02  0.00000000000E+00 0. -1.
</event>
<event>
 6    1  0.1726037E-005  0.8466963E+02  0.7818608E-02  0.1387278E+00
          2   -1    0    0  502    0  0.00000000000E+00  0.00000000000E+00  0.15523136583E+03  0.15523136583E+03  0.00000000000E+00 0.  1.
          1   -1    0    0  501    0 -0.00000000000E+00 -0.00000000000E+00 -0.13444724988E+03  0.13444724988E+03  0.00000000000E+00 0.  1.
          2    1    1    2  501    0 -0.91884358282E+01 -0.33464021045E+02  0.50764804722E+02  0.61492547971E+02  0.00000000000E+00 0.  1.
          1    1    1    2  502    0  0.21494174312E+02  0.19061303734E+02 -0.88552174309E+02  0.93095759325E+02  0.00000000000E+00 0.  1.
         22    1    1    2    0    0  0.75217310692E+01 -0.24136564459E+02  0.82009691694E+02  0.85818061700E+02  0.00000000000E+00 0.  1.
         22    1    1    2    0    0 -0.19827469553E+02  0.38539281770E+02 -0.23438206160E+02  0.49272246714E+02  0.00000000000E+00 0.  1.
</event>
<event>
 6    1  0.1726037E-005  0.3008641E+02  0.7818608E-02  0.1615505E+00
          2   -1    0    0  502    0  0.00000000000E+00  0.00000000000E+00  0.10157246122E+03  0.10157246122E+03  0.00000000000E+00 0. -1.
          1   -1    0    0  501    0 -0.00000000000E+00 -0.00000000000E+00 -0.20196416373E+03  0.20196416373E+03  0.00000000000E+00 0. -1.
          2    1    1    2  501    0 -0.21908833763E+02 -0.47689757983E+02  0.11682483612E+02  0.53766071426E+02  0.00000000000E+00 0. -1.
          1    1    1    2  502    0  0.32954852364E+02  0.47811821588E+02 -0.10964313841E+03  0.12407098927E+03  0.00000000000E+00 0. -1.
         22    1    1    2    0    0 -0.15153810800E+01 -0.11963299071E+02  0.60125464226E+02  0.61322820816E+02  0.00000000000E+00 0. -1.
         22    1    1    2    0    0 -0.95306375209E+01  0.11841235465E+02 -0.62556511940E+02  0.64376743433E+02  0.00000000000E+00 0. -1.
</event>
<event>
 6    1  0.1726037E-005  0.1865298E+03  0.7818608E-02  0.1284481E+00
          2   -1    0    0  502    0  0.00000000000E+00  0.00000000000E+00  0.27918678741E+03  0.27918678741E+03  0.00000000000E+00 0.  1.
          1   -1    0    0  501    0 -0.00000000000E+00 -0.00000000000E+00 -0.31525537872E+03  0.31525537872E+03  0.00000000000E+00 0.  1.
          2    1    1    2  501    0 -0.11904869795E+03  0.13019083379E+03  0.17956770233E+03  0.25172764132E+03  0.00000000000E+00 0.  1.
          1    1    1    2  502    0  0.77043524486E+02 -0.65355789523E+02 -0.15225686863E+03  0.18272722275E+03  0.00000000000E+00 0.  1.
         22    1    1    2    0    0  0.34998536092E+02 -0.77223859309E+02 -0.93777311314E+02  0.12642233225E+03  0.00000000000E+00 0.  1.
         22    1    1    2    0    0  0.70066373675E+01  0.12388815042E+02  0.30397886311E+02  0.33564969797E+02  0.00000000000E+00 0.  1.
</event>
<event>
 6    1  0.1726037E-005  0.3861885E+02  0.7818608E-02  0.1533530E+00
          2   -1    0    0  502    0  0.00000000000E+00  0.00000000000E+00  0.96149001038E+02  0.96149001038E+02  0.00000000000E+00 0.  1.
          1   -1    0    0  501    0 -0.00000000000E+00 -0.00000000000E+00 -0.29409222338E+03  0.29409222338E+03  0.00000000000E+00 0.  1.
          2    1    1    2  501    0  0.13076123959E+02  0.44232230175E+02 -0.21140978051E+02  0.50738704723E+02  0.00000000000E+00 0.  1.
          1    1    1    2  502    0  0.20170721460E+02 -0.24685072149E+02 -0.20493686824E+03  0.20740137598E+03  0.00000000000E+00 0.  1.
         22    1    1    2    0    0 -0.68162962029E+01 -0.37036091076E+02  0.70063110880E+02  0.79542274561E+02  0.00000000000E+00 0.  1.
         22    1    1    2    0    0 -0.26430549216E+02  0.17488933050E+02 -0.41928486924E+02  0.52558869155E+02  0.00000000000E+00 0.  1.
</event>
<event>
 6    1  0.1726037E-005  0.2743345E+03  0.7818608E-02  0.1228646E+00
          2   -1    0    0  502    0  0.00000000000E+00  0.00000000000E+00  0.30485372887E+03  0.30485372887E+03  0.00000000000E+00 0. -1.
          1   -1    0    0  501    0 -0.00000000000E+00 -0.00000000000E+00 -0.35460598851E+03  0.35460598851E+03  0.00000000000E+00 0. -1.
          2    1    1    2  501    0 -0.13256491319E+03  0.73352480453E+02  0.21073446004E+03  0.25954393703E+03  0.00000000000E+00 0. -1.
          1    1    1    2  502    0 -0.90092302611E+00 -0.35509876096E+02  0.35615119331E+02  0.50301090322E+02  0.00000000000E+00 0. -1.
         22    1    1    2    0    0  0.55799028421E+01  0.12289047716E+02  0.81683688052E+01  0.15775875838E+02  0.00000000000E+00 0.  1.
         22    1    1    2    0    0  0.12788593338E+03 -0.50131652074E+02 -0.30427020782E+03  0.33383881420E+03  0.00000000000E+00 0. -1.
</event>
<event>
 6    1  0.2426513E-005  0.1703412E+03  0.7818608E-02  0.1178111E+00
          2   -1    0    0  502    0  0.00000000000E+00  0.00000000000E+00  0.58795542459E+03  0.58795542459E+03  0.00000000000E+00 0. -1.
          1   -1    0    0  501    0 -0.00000000000E+00 -0.00000000000E+00 -0.45747709604E+03  0.45747709604E+03  0.00000000000E+00 0.  1.
          2    1    1    2  501    0  0.44871920854E+02 -0.14207481325E+03  0.52787266695E+03  0.54849639411E+03  0.00000000000E+00 0. -1.
          1    1    1    2  502    0 -0.39600716253E+02  0.13574331545E+03 -0.31298518091E+03  0.34344459217E+03  0.00000000000E+00 0.  1.
         22    1    1    2    0    0 -0.12048754469E+01  0.22300715558E+02 -0.11585585245E+03  0.11798877991E+03  0.00000000000E+00 0.  1.
         22    1    1    2    0    0 -0.40663291541E+01 -0.15969217763E+02  0.31446694960E+02  0.35502754438E+02  0.00000000000E+00 0.  1.
</event>
<event>
 6    1  0.1726037E-005  0.1595250E+03  0.7818608E-02  0.1260638E+00
          2   -1    0    0  502    0  0.00000000000E+00  0.00000000000E+00  0.10583763483E+04  0.10583763483E+04  0.00000000000E+00 0. -1.
          1   -1    0    0  501    0 -0.00000000000E+00 -0.00000000000E+00 -0.51406413296E+02  0.51406413296E+02  0.00000000000E+00 0. -1.
          2    1    1    2  501    0  0.54300263213E+02 -0.86836741983E+02  0.77670200698E+03  0.78342526509E+03  0.00000000000E+00 0. -1.
          1    1    1    2  502    0 -0.59906396696E+02 -0.21699097070E+02  0.88755093540E+02  0.10925700805E+03  0.00000000000E+00 0. -1.
         22    1    1    2    0    0  0.38103726362E+01  0.35814589719E+02  0.13977029578E+03  0.14433620252E+03  0.00000000000E+00 0. -1.
         22    1    1    2    0    0  0.17957608471E+01  0.72721249335E+02  0.17425386783E+01  0.72764285903E+02  0.00000000000E+00 0. -1.
</event>
<event>
 6    1  0.1726037E-005  0.5282896E+02  0.7818608E-02  0.1468273E+00
          2   -1    0    0  502    0  0.00000000000E+00  0.00000000000E+00  0.13639018146E+03  0.13639018146E+03  0.00000000000E+00 0.  1.
          1   -1    0    0  501    0 -0.00000000000E+00 -0.00000000000E+00 -0.29540761997E+03  0.29540761997E+03  0.00000000000E+00 0.  1.
          2    1    1    2  501    0 -0.46360033934E+02 -0.23573557913E+02  0.37611596209E+02  0.64184091085E+02  0.00000000000E+00 0.  1.
          1    1    1    2  502    0  0.11760935941E+02  0.36113699886E+02 -0.22677788143E+03  0.22993635302E+03  0.00000000000E+00 0.  1.
         22    1    1    2    0    0  0.11742108548E+02  0.74014931144E+01 -0.50047226473E+02  0.51936346533E+02  0.00000000000E+00 0. -1.
         22    1    1    2    0    0  0.22856989444E+02 -0.19941635087E+02  0.80196073190E+02  0.85741010791E+02  0.00000000000E+00 0.  1.
</event>
<event>
 6    1  0.1726037E-005  0.6017629E+02  0.7818608E-02  0.1417125E+00
          2   -1    0    0  502    0  0.00000000000E+00  0.00000000000E+00  0.40311482333E+03  0.40311482333E+03  0.00000000000E+00 0.  1.
          1   -1    0    0  501    0 -0.00000000000E+00 -0.00000000000E+00 -0.66025492371E+02  0.66025492371E+02  0.00000000000E+00 0.  1.
          2    1    1    2  501    0 -0.60726616622E+02  0.19295289483E+02  0.16056811833E+03  0.17274880835E+03  0.00000000000E+00 0.  1.
          1    1    1    2  502    0  0.29034447315E+02 -0.32213461401E+02 -0.29937044844E+02  0.52696611659E+02  0.00000000000E+00 0.  1.
         22    1    1    2    0    0  0.31692636551E+02  0.30467521819E+02  0.21819681897E+03  0.22258154664E+03  0.00000000000E+00 0.  1.
         22    1    1    2    0    0 -0.46724372769E-03 -0.17549349901E+02 -0.11738561496E+02  0.21113349051E+02  0.00000000000E+00 0.  1.
</event>
<event>
 6    1  0.1726037E-005  0.1525804E+03  0.7818608E-02  0.1252051E+00
          2   -1    0    0  502    0  0.00000000000E+00  0.00000000000E+00  0.33300109757E+03  0.33300109757E+03  0.00000000000E+00 0.  1.
          1   -1    0    0  501    0 -0.00000000000E+00 -0.00000000000E+00 -0.10018313225E+03  0.10018313225E+03  0.00000000000E+00 0.  1.
          2    1    1    2  501    0  0.96658900123E+02 -0.41182368448E+02  0.15205640409E+03  0.18482445853E+03  0.00000000000E+00 0.  1.
          1    1    1    2  502    0 -0.15051337900E+02 -0.53120655605E+02  0.29337536029E+02  0.62522298780E+02  0.00000000000E+00 0.  1.
         22    1    1    2    0    0 -0.35428041995E+02  0.33529551764E+02  0.88445581200E+02  0.10100493966E+03  0.00000000000E+00 0.  1.
         22    1    1    2    0    0 -0.46179520228E+02  0.60773472289E+02 -0.37021556001E+02  0.84832532859E+02  0.00000000000E+00 0.  1.
</event>
<event>
 6    1  0.1726037E-005  0.8502612E+02  0.7818608E-02  0.1342961E+00
          2   -1    0    0  502    0  0.00000000000E+00  0.00000000000E+00  0.73774593433E+02  0.73774593433E+02  0.00000000000E+00 0. -1.
          1   -1    0    0  501    0 -0.00000000000E+00 -0.00000000000E+00 -0.56976515671E+03  0.56976515671E+03  0.00000000000E+00 0. -1.
          2    1    1    2  501    0  0.11766741135E+02 -0.11857930197E+03 -0.10489743514E+03  0.15875446120E+03  0.00000000000E+00 0. -1.
          1    1    1    2  502    0  0.14229168084E+02  0.31413362883E+02 -0.30833287930E+03  0.31025543194E+03  0.00000000000E+00 0. -1.
         22    1    1    2    0    0 -0.30591848806E+02  0.71147080623E+02  0.11952461982E+02  0.78362169712E+02  0.00000000000E+00 0. -1.
         22    1    1    2    0    0  0.45959395870E+01  0.16018858466E+02 -0.94712710813E+02  0.96167687280E+02  0.00000000000E+00 0. -1.
</event>
<event>
 6    1  0.1726037E-005  0.6417636E+02  0.7818608E-02  0.1387043E+00
          2   -1    0    0  502    0  0.00000000000E+00  0.00000000000E+00  0.12631316547E+03  0.12631316547E+03  0.00000000000E+00 0. -1.
          1   -1    0    0  501    0 -0.00000000000E+00 -0.00000000000E+00 -0.20211601173E+03  0.20211601173E+03  0.00000000000E+00 0. -1.
          2    1    1    2  501    0 -0.52519916942E+01  0.43364801054E+02  0.80166710551E+02  0.91295075813E+02  0.00000000000E+00 0. -1.
          1    1    1    2  502    0  0.19233365644E+02 -0.28876384938E+02 -0.85709135622E+02  0.92465257746E+02  0.00000000000E+00 0. -1.
         22    1    1    2    0    0 -0.76537116168E+01 -0.27329501135E+02 -0.10411398378E+03  0.10791293969E+03  0.00000000000E+00 0.  1.
         22    1    1    2    0    0 -0.63276623326E+01  0.12841085020E+02  0.33853562590E+02  0.36755903949E+02  0.00000000000E+00 0.  1.
</event>
<event>
 6    1  0.1726037E-005  0.6198439E+02  0.7818608E-02  0.1445849E+00
          2   -1    0    0  502    0  0.00000000000E+00  0.00000000000E+00  0.62817620070E+03  0.62817620070E+03  0.00000000000E+00 0. -1.
          1   -1    0    0  501    0 -0.00000000000E+00 -0.00000000000E+00 -0.72663507503E+02  0.72663507503E+02  0.00000000000E+00 0. -1.
          2    1    1    2  501    0 -0.51004990614E+02  0.44848237482E+02  0.38024924616E+03  0.38626721667E+03  0.00000000000E+00 0. -1.
          1    1    1    2  502    0  0.58993824634E+02 -0.10892033284E+03  0.72233355268E+02  0.14339305375E+03  0.00000000000E+00 0. -1.
         22    1    1    2    0    0  0.62524629084E+01  0.19064975846E+02  0.11950732169E+03  0.12117989327E+03  0.00000000000E+00 0.  1.
         22    1    1    2    0    0 -0.14241296928E+02  0.45007119513E+02 -0.16477229917E+02  0.49999544506E+02  0.00000000000E+00 0. -1.
</event>
<event>
 6    1  0.1726037E-005  0.6281377E+02  0.7818608E-02  0.1446461E+00
          2   -1    0    0  502    0  0.00000000000E+00  0.00000000000E+00  0.33753735002E+03  0.33753735002E+03  0.00000000000E+00 0.  1.
          1   -1    0    0  501    0 -0.00000000000E+00 -0.00000000000E+00 -0.37036312240E+02  0.37036312240E+02  0.00000000000E+00 0.  1.
          2    1    1    2  501    0  0.33334858341E+02  0.38875345663E+02  0.15454484404E+03  0.16280851975E+03  0.00000000000E+00 0.  1.
          1    1    1    2  502    0 -0.42648578638E+01 -0.21024264500E+02  0.19307532149E+02  0.28861557617E+02  0.00000000000E+00 0.  1.
         22    1    1    2    0    0 -0.23555668190E+02  0.63315182019E+01 -0.21608119652E+02  0.32586323228E+02  0.00000000000E+00 0.  1.
         22    1    1    2    0    0 -0.55143322865E+01 -0.24182599365E+02  0.14825678123E+03  0.15031726167E+03  0.00000000000E+00 0.  1.
</event>
<event>
 6    1  0.1726037E-005  0.7246708E+02  0.7818608E-02  0.1460368E+00
          2   -1    0    0  502    0  0.00000000000E+00  0.00000000000E+00  0.36015014307E+02  0.36015014307E+02  0.00000000000E+00 0. -1.
          1   -1    0    0  501    0 -0.00000000000E+00 -0.00000000000E+00 -0.50816923314E+03  0.50816923314E+03  0.00000000000E+00 0. -1.
          2    1    1    2  501    0  0.61935057126E+02  0.16420205767E+02 -0.16043649110E+03  0.17275833449E+03  0.00000000000E+00 0. -1.
          1    1    1    2  502    0 -0.46293575276E+02 -0.17742691426E+02 -0.18454573182E+03  0.19108905082E+03  0.00000000000E+00 0. -1.
         22    1    1    2    0    0  0.90529832066E+01  0.95693513417E+01  0.23764554612E+02  0.27171364448E+02  0.00000000000E+00 0. -1.
         22    1    1    2    0    0 -0.24694465057E+02 -0.82468656828E+01 -0.15093655052E+03  0.15316549769E+03  0.00000000000E+00 0. -1.
</event>
<event>
 6    1  0.1726037E-005  0.6416007E+02  0.7818608E-02  0.1420277E+00
          2   -1    0    0  502    0  0.00000000000E+00  0.00000000000E+00  0.10134713724E+04  0.10134713724E+04  0.00000000000E+00 0.  1.
          1   -1    0    0  501    0 -0.00000000000E+00 -0.00000000000E+00 -0.20163739275E+03  0.20163739275E+03  0.00000000000E+00 0. -1.
          2    1    1    2  501    0  0.10413783833E+03  0.33197191600E+02  0.88838822651E+03  0.89508680244E+03  0.00000000000E+00 0.  1.
          1    1    1    2  502    0 -0.57877717230E+02 -0.76985329573E+02 -0.13923856618E+03  0.16930431014E+03  0.00000000000E+00 0. -1.
         22    1    1    2    0    0 -0.28994273617E+02  0.29504924791E+02 -0.32703865749E+02  0.52732829665E+02  0.00000000000E+00 0.  1.
         22    1    1    2    0    0 -0.17265847486E+02  0.14283213182E+02  0.95388185103E+02  0.97984822934E+02  0.00000000000E+00 0. -1.
</event>
<event>
 6    1  0.1726037E-005  0.1064766E+03  0.7818608E-02  0.1395140E+00
          2   -1    0    0  502    0  0.00000000000E+00  0.00000000000E+00  0.14397294988E+03  0.14397294988E+03  0.00000000000E+00 0. -1.
          1   -1    0    0  501    0 -0.00000000000E+00 -0.00000000000E+00 -0.34338845728E+03  0.34338845728E+03  0.00000000000E+00 0. -1.
          2    1    1    2  501    0 -0.68821333808E+02 -0.68007826086E+02  0.54927494628E+02  0.11125857298E+03  0.00000000000E+00 0. -1.
          1    1    1    2  502    0  0.63952164913E+02  0.60889108609E+02 -0.23538357198E+03  0.25140164857E+03  0.00000000000E+00 0. -1.
         22    1    1    2    0    0  0.15978316615E+02  0.85889911832E+01 -0.70068173756E+02  0.72378355500E+02  0.00000000000E+00 0. -1.
         22    1    1    2    0    0 -0.11109147720E+02 -0.14702737058E+01  0.51108743703E+02  0.52322830110E+02  0.00000000000E+00 0.  1.
</event>
<event>
 6    1  0.1726037E-005  0.6493632E+02  0.7818608E-02  0.1456055E+00
          2   -1    0    0  502    0  0.00000000000E+00  0.00000000000E+00  0.95098707305E+02  0.95098707305E+02  0.00000000000E+00 0.  1.
          1   -1    0    0  501    0 -0.00000000000E+00 -0.00000000000E+00 -0.21374983746E+03  0.21374983746E+03  0.00000000000E+00 0. -1.
          2    1    1    2  501    0 -0.41641527778E+02  0.35316113221E+02 -0.77412318785E+02  0.94730733073E+02  0.00000000000E+00 0.  1.
          1    1    1    2  502    0  0.54813752668E+01 -0.39850341416E+02 -0.70518837499E+02  0.81184984006E+02  0.00000000000E+00 0. -1.
         22    1    1    2    0    0  0.10931251926E+02  0.16142150588E+02  0.76066487998E+02  0.78524976221E+02  0.00000000000E+00 0.  1.
         22    1    1    2    0    0  0.25228900585E+02 -0.11607922392E+02 -0.46786461871E+02  0.54407851468E+02  0.00000000000E+00 0. -1.
</event>
<event>
 6    1  0.1726037E-005  0.9297547E+02  0.7818608E-02  0.1422307E+00
          2   -1    0    0  502    0  0.00000000000E+00  0.00000000000E+00  0.14544536372E+03  0.14544536372E+03  0.00000000000E+00 0.  1.
          1   -1    0    0  501    0 -0.00000000000E+00 -0.00000000000E+00 -0.37709734822E+03  0.37709734822E+03  0.00000000000E+00 0. -1.
          2    1    1    2  501    0  0.84654134714E+02  0.55115257583E+02  0.70132800947E+02  0.12297407821E+03  0.00000000000E+00 0.  1.
          1    1    1    2  502    0 -0.65075210155E+02 -0.38307405066E+02 -0.25715351560E+03  0.26801151252E+03  0.00000000000E+00 0. -1.
         22    1    1    2    0    0 -0.13046259255E+02 -0.79505329350E+01 -0.86718825197E+02  0.88054361040E+02  0.00000000000E+00 0. -1.
         22    1    1    2    0    0 -0.65326653037E+01 -0.88573195826E+01  0.42087555355E+02  0.43502760164E+02  0.00000000000E+00 0.  1.
</event>
<event>
 6    1  0.1726037E-005  0.1313098E+03  0.7818608E-02  0.1287188E+00
          2   -1    0    0  502    0  0.00000000000E+00  0.00000000000E+00  0.39012055137E+03  0.39012055137E+03  0.00000000000E+00 0.  1.
          1   -1    0    0  501    0 -0.00000000000E+00 -0.00000000000E+00 -0.78592859358E+02  0.78592859358E+02  0.00000000000E+00 0.  1.
          2    1    1    2  501    0 -0.91215053840E+02  0.40356038559E+02  0.23460491704E+03  0.25492795648E+03  0.00000000000E+00 0.  1.
          1    1    1    2  502    0  0.27625792670E+02 -0.48793613280E+02  0.29639296970E+02  0.63423095497E+02  0.00000000000E+00 0.  1.
         22    1    1    2    0    0 -0.32410501349E+00  0.38767944935E+02  0.66569157808E+02  0.77035779803E+02  0.00000000000E+00 0.  1.
         22    1    1    2    0    0  0.63913366183E+02 -0.30330370214E+02 -0.19285679810E+02  0.73326578946E+02  0.00000000000E+00 0.  1.
</event>
<event>
 6    1  0.1726037E-005  0.1119724E+03  0.7818608E-02  0.1359192E+00
          2   -1    0    0  502    0  0.00000000000E+00  0.00000000000E+00  0.15188109009E+03  0.15188109009E+03  0.00000000000E+00 0.  1.
          1   -1    0    0  501    0 -0.00000000000E+00 -0.00000000000E+00 -0.10006780553E+03  0.10006780553E+03  0.00000000000E+00 0.  1.
          2    1    1    2  501    0  0.36058184325E+01 -0.27020918803E+02  0.67235525908E+02  0.72551691391E+02  0.00000000000E+00 0.  1.
          1    1    1    2  502    0  0.73159274900E+00 -0.35339119575E+02 -0.79970237825E+01  0.36240046767E+02  0.00000000000E+00 0.  1.
         22    1    1    2    0    0  0.12757693458E+02 -0.11778590886E+02  0.46674747232E+02  0.49799859185E+02  0.00000000000E+00 0.  1.
         22    1    1    2    0    0 -0.17095104640E+02  0.74138629264E+02 -0.54099964790E+02  0.93357298280E+02  0.00000000000E+00 0.  1.
</event>
<event>
 6    1  0.1726037E-005  0.5715896E+02  0.7818608E-02  0.1412503E+00
          2   -1    0    0  502    0  0.00000000000E+00  0.00000000000E+00  0.15505545498E+03  0.15505545498E+03  0.00000000000E+00 0.  1.
          1   -1    0    0  501    0 -0.00000000000E+00 -0.00000000000E+00 -0.31806981306E+03  0.31806981306E+03  0.00000000000E+00 0. -1.
          2    1    1    2  501    0  0.32911423019E+02 -0.24000610862E+01  0.71527660742E+02  0.78772636808E+02  0.00000000000E+00 0.  1.
          1    1    1    2  502    0 -0.37809004344E+02 -0.60282510485E+01 -0.26548388063E+03  0.26823040748E+03  0.00000000000E+00 0. -1.
         22    1    1    2    0    0 -0.14833506597E+02  0.29075400535E+01 -0.44996906953E+02  0.47467971754E+02  0.00000000000E+00 0. -1.
         22    1    1    2    0    0  0.19731087922E+02  0.55207720813E+01  0.75938768766E+02  0.78654251994E+02  0.00000000000E+00 0.  1.
</event>
<event>
 6    1  0.1726037E-005  0.1322537E+03  0.7818608E-02  0.1295315E+00
          2   -1    0    0  502    0  0.00000000000E+00  0.00000000000E+00  0.22733642416E+03  0.22733642416E+03  0.00000000000E+00 0. -1.
          1   -1    0    0  501    0 -0.00000000000E+00 -0.00000000000E+00 -0.39270935017E+03  0.39270935017E+03  0.00000000000E+00 0.  1.
          2    1    1    2  501    0 -0.88479614929E+02 -0.48489575491E+02  0.79337931681E+02  0.12835259480E+03  0.00000000000E+00 0. -1.
          1    1    1    2  502    0  0.10863168792E+03  0.53498488678E+02 -0.31904389706E+03  0.34125055335E+03  0.00000000000E+00 0.  1.
         22    1    1    2    0    0  0.72835888145E+01  0.12593212262E+02 -0.34175842365E+02  0.37143342102E+02  0.00000000000E+00 0.  1.
         22    1    1    2    0    0 -0.27435661808E+02 -0.17602125450E+02  0.10850888173E+03  0.11329928408E+03  0.00000000000E+00 0. -1.
</event>
<event>
 6    1  0.1726037E-005  0.7919184E+02  0.7818608E-02  0.1451835E+00
          2   -1    0    0  502    0  0.00000000000E+00  0.00000000000E+00  0.23443417337E+03  0.23443417337E+03  0.00000000000E+00 0.  1.
          1   -1    0    0  501    0 -0.00000000000E+00 -0.00000000000E+00 -0.85270596807E+02  0.85270596807E+02  0.00000000000E+00 0.  1.
          2    1    1    2  501    0 -0.44836611679E+02  0.13455042748E+02  0.14959451341E+03  0.15674781774E+03  0.00000000000E+00 0.  1.
          1    1    1    2  502    0  0.76119275979E+01 -0.27602910953E+02 -0.17093416026E+02  0.33347368806E+02  0.00000000000E+00 0.  1.
         22    1    1    2    0    0 -0.85301644024E+01 -0.76141782861E+01  0.61134177012E+02  0.62194268342E+02  0.00000000000E+00 0.  1.
         22    1    1    2    0    0  0.45754848484E+02  0.21762046491E+02 -0.44471697837E+02  0.67415315291E+02  0.00000000000E+00 0.  1.
</event>
<event>
 6    1  0.1726037E-005  0.1688476E+03  0.7818608E-02  0.1215421E+00
          2   -1    0    0  502    0  0.00000000000E+00  0.00000000000E+00  0.86929966049E+02  0.86929966049E+02  0.00000000000E+00 0.  1.
          1   -1    0    0  501    0 -0.00000000000E+00 -0.00000000000E+00 -0.12070185177E+04  0.12070185177E+04  0.00000000000E+00 0.  1.
          2    1    1    2  501    0 -0.82553918564E+02 -0.12880831281E+03 -0.32791018255E+02  0.15646719080E+03  0.00000000000E+00 0.  1.
          1    1    1    2  502    0  0.86930859776E+01  0.14714928061E+03 -0.81407417790E+03  0.82731206183E+03  0.00000000000E+00 0.  1.
         22    1    1    2    0    0 -0.23940271770E+01 -0.14664513999E+02  0.92891254808E+01  0.17523332707E+02  0.00000000000E+00 0. -1.
         22    1    1    2    0    0  0.76254859764E+02 -0.36764538025E+01 -0.28251248101E+03  0.29264589845E+03  0.00000000000E+00 0. -1.
</event>
<event>
 6    1  0.1726037E-005  0.4849313E+02  0.7818608E-02  0.1489061E+00
          2   -1    0    0  502    0  0.00000000000E+00  0.00000000000E+00  0.13236082977E+03  0.13236082977E+03  0.00000000000E+00 0. -1.
          1   -1    0    0  501    0 -0.00000000000E+00 -0.00000000000E+00 -0.60228531462E+03  0.60228531462E+03  0.00000000000E+00 0. -1.
          2    1    1    2  501    0  0.73600161714E+02 -0.78188334437E+02 -0.50354944002E+03  0.51487128294E+03  0.00000000000E+00 0. -1.
          1    1    1    2  502    0 -0.33515129438E+02  0.80310101201E+02  0.33290473294E+02  0.93173128467E+02  0.00000000000E+00 0. -1.
         22    1    1    2    0    0 -0.15212134496E+02 -0.17333566477E+01  0.60018795883E+02  0.61940854212E+02  0.00000000000E+00 0. -1.
         22    1    1    2    0    0 -0.24872897779E+02 -0.38841011609E+00 -0.59684314006E+02  0.64660878781E+02  0.00000000000E+00 0.  1.
</event>
<event>
 6    1  0.1726037E-005  0.6522944E+02  0.7818608E-02  0.1400559E+00
          2   -1    0    0  502    0  0.00000000000E+00  0.00000000000E+00  0.48975947981E+03  0.48975947981E+03  0.00000000000E+00 0.  1.
          1   -1    0    0  501    0 -0.00000000000E+00 -0.00000000000E+00 -0.39465670133E+02  0.39465670133E+02  0.00000000000E+00 0.  1.
          2    1    1    2  501    0 -0.21662523313E+02 -0.30917140837E+02  0.97616482736E+01  0.38992618415E+02  0.00000000000E+00 0.  1.
          1    1    1    2  502    0  0.49397931304E+02  0.60756411516E+02  0.11494785846E+03  0.13908453300E+03  0.00000000000E+00 0.  1.
         22    1    1    2    0    0 -0.36923276581E+02 -0.69592015356E+02  0.27553034580E+03  0.28657171600E+03  0.00000000000E+00 0.  1.
         22    1    1    2    0    0  0.91878685897E+01  0.39752744677E+02  0.50053957154E+02  0.64576282530E+02  0.00000000000E+00 0. -1.
</event>
<event>
 6    1  0.1726037E-005  0.3207875E+02  0.7818608E-02  0.1604421E+00
          2   -1    0    0  502    0  0.00000000000E+00  0.00000000000E+00  0.15477420979E+03  0.15477420979E+03  0.00000000000E+00 0. -1.
          1   -1    0    0  501    0 -0.00000000000E+00 -0.00000000000E+00 -0.88949912505E+02  0.88949912505E+02  0.00000000000E+00 0. -1.
          2    1    1    2  501    0  0.31685770035E+02 -0.45148464390E+02 -0.14360327925E+01  0.55176390328E+02  0.00000000000E+00 0. -1.
          1    1    1    2  502    0 -0.29976161118E+02  0.37306209108E+02  0.45079547406E+02  0.65745639154E+02  0.00000000000E+00 0. -1.
         22    1    1    2    0    0 -0.83064076885E+01  0.24244955320E+02 -0.45841885626E+02  0.52519451110E+02  0.00000000000E+00 0. -1.
         22    1    1    2    0    0  0.65967987718E+01 -0.16402700038E+02  0.68022668296E+02  0.70282641703E+02  0.00000000000E+00 0.  1.
</event>
<event>
 6    1  0.1726037E-005  0.7889484E+02  0.7818608E-02  0.1441047E+00
          2   -1    0    0  502    0  0.00000000000E+00  0.00000000000E+00  0.73478829612E+02  0.73478829612E+02  0.00000000000E+00 0.  1.
          1   -1    0    0  501    0 -0.00000000000E+00 -0.00000000000E+00 -0.62818059807E+03  0.62818059807E+03  0.00000000000E+00 0.  1.
          2    1    1    2  501    0  0.42077795683E+02  0.56610028898E+02  0.82822383656E+01  0.71019938988E+02  0.00000000000E+00 0.  1.
          1    1    1    2  502    0 -0.33981646976E+02 -0.39164787088E+02 -0.47892135306E+03  0.48172014209E+03  0.00000000000E+00 0.  1.
         22    1    1    2    0    0  0.12458773770E+02 -0.53704872654E+01  0.29717878783E+02  0.32668264365E+02  0.00000000000E+00 0. -1.
         22    1    1    2    0    0 -0.20554922477E+02 -0.12074754545E+02 -0.11378053255E+03  0.11625108225E+03  0.00000000000E+00 0. -1.
</event>
<event>
 6    1  0.1726037E-005  0.4510339E+02  0.7818608E-02  0.1584701E+00
          2   -1    0    0  502    0  0.00000000000E+00  0.00000000000E+00  0.18074389118E+03  0.18074389118E+03  0.00000000000E+00 0.  1.
          1   -1    0    0  501    0 -0.00000000000E+00 -0.00000000000E+00 -0.17500398037E+03  0.17500398037E+03  0.00000000000E+00 0.  1.
          2    1    1    2  501    0 -0.34387817275E+02 -0.22830876903E+02  0.12019784609E+03  0.12708773789E+03  0.00000000000E+00 0.  1.
          1    1    1    2  502    0  0.21142385717E+02  0.22291262196E+02 -0.95801889533E+02  0.10060766811E+03  0.00000000000E+00 0.  1.
         22    1    1    2    0    0  0.46944813740E+01 -0.92685762267E+01  0.53618538241E+02  0.54615861283E+02  0.00000000000E+00 0. -1.
         22    1    1    2    0    0  0.85509501844E+01  0.98081909337E+01 -0.72274583981E+02  0.73436604279E+02  0.00000000000E+00 0.  1.
</event>
<event>
 6    1  0.1726037E-005  0.6664071E+02  0.7818608E-02  0.1375469E+00
          2   -1    0    0  502    0  0.00000000000E+00  0.00000000000E+00  0.13778492540E+03  0.13778492540E+03  0.00000000000E+00 0. -1.
          1   -1    0    0  501    0 -0.00000000000E+00 -0.00000000000E+00 -0.14037928163E+03  0.14037928163E+03  0.00000000000E+00 0. -1.
          2    1    1    2  501    0  0.77528116777E+01  0.78362378566E+02  0.43566680899E+02  0.89993467252E+02  0.00000000000E+00 0. -1.
          1    1    1    2  502    0  0.87948965478E+01 -0.26983568039E+02 -0.48205283072E+02  0.55939364186E+02  0.00000000000E+00 0. -1.
         22    1    1    2    0    0 -0.49549200874E+02 -0.43730021808E+02  0.43179500396E+02  0.78942430727E+02  0.00000000000E+00 0. -1.
         22    1    1    2    0    0  0.33001492649E+02 -0.76487887195E+01 -0.41135254458E+02  0.53288944869E+02  0.00000000000E+00 0. -1.
</event>
<event>
 6    1  0.1726037E-005  0.7581462E+02  0.7818608E-02  0.1433250E+00
          2   -1    0    0  502    0  0.00000000000E+00  0.00000000000E+00  0.21360344925E+03  0.21360344925E+03  0.00000000000E+00 0.  1.
          1   -1    0    0  501    0 -0.00000000000E+00 -0.00000000000E+00 -0.17238929789E+03  0.17238929789E+03  0.00000000000E+00 0.  1.
          2    1    1    2  501    0 -0.45440028265E+02  0.36839178042E+02  0.10449776764E+03  0.11975685638E+03  0.00000000000E+00 0.  1.
          1    1    1    2  502    0  0.45661086832E+02 -0.39462030531E+02 -0.11313128702E+03  0.12822197474E+03  0.00000000000E+00 0.  1.
         22    1    1    2    0    0 -0.15837294916E+02  0.66747734112E+01  0.91628514125E+02  0.93226375619E+02  0.00000000000E+00 0.  1.
         22    1    1    2    0    0  0.15616236349E+02 -0.40519209221E+01 -0.41780843384E+02  0.44787540397E+02  0.00000000000E+00 0. -1.
</event>
<event>
 6    1  0.1726037E-005  0.1377191E+03  0.7818608E-02  0.1320892E+00
          2   -1    0    0  502    0  0.00000000000E+00  0.00000000000E+00  0.94554049892E+02  0.94554049892E+02  0.00000000000E+00 0. -1.
          1   -1    0    0  501    0 -0.00000000000E+00 -0.00000000000E+00 -0.53782680007E+03  0.53782680007E+03  0.00000000000E+00 0. -1.
          2    1    1    2  501    0  0.30587210555E+02  0.10191911033E+03 -0.76562289659E+02  0.13109106262E+03  0.00000000000E+00 0. -1.
          1    1    1    2  502    0 -0.11942310230E+03  0.31918576907E+02 -0.72165401871E+02  0.14313810863E+03  0.00000000000E+00 0. -1.
         22    1    1    2    0    0  0.74631530188E+02 -0.14509155892E+03 -0.29796231147E+03  0.33971011881E+03  0.00000000000E+00 0. -1.
         22    1    1    2    0    0  0.14204361552E+02  0.11253871684E+02  0.34172528222E+01  0.18441559908E+02  0.00000000000E+00 0. -1.
</event>
<event>
 6    1  0.1726037E-005  0.4615649E+02  0.7818608E-02  0.1493892E+00
          2   -1    0    0  502    0  0.00000000000E+00  0.00000000000E+00  0.14182953810E+03  0.14182953810E+03  0.00000000000E+00 0. -1.
          1   -1    0    0  501    0 -0.00000000000E+00 -0.00000000000E+00 -0.12844440273E+03  0.12844440273E+03  0.00000000000E+00 0. -1.
          2    1    1    2  501    0  0.62424207821E+02 -0.18480790620E+02 -0.35357137911E+02  0.74084064044E+02  0.00000000000E+00 0. -1.
          1    1    1    2  502    0 -0.31446245367E+02  0.47373307385E+02 -0.67122268740E+01  0.57255135925E+02  0.00000000000E+00 0. -1.
         22    1    1    2    0    0  0.15025682825E+02 -0.25779890209E+02  0.80930405234E+02  0.86256039643E+02  0.00000000000E+00 0. -1.
         22    1    1    2    0    0 -0.46003645279E+02 -0.31126265552E+01 -0.25475905074E+02  0.52678701221E+02  0.00000000000E+00 0. -1.
</event>
<event>
 6    1  0.1726037E-005  0.5222558E+02  0.7818608E-02  0.1444750E+00
          2   -1    0    0  502    0  0.00000000000E+00  0.00000000000E+00  0.20169345393E+03  0.20169345393E+03  0.00000000000E+00 0.  1.
          1   -1    0    0  501    0 -0.00000000000E+00 -0.00000000000E+00 -0.18459619791E+03  0.18459619791E+03  0.00000000000E+00 0. -1.
          2    1    1    2  501    0 -0.73201768014E+02  0.16537652720E+02  0.29048483863E+01  0.75102802491E+02  0.00000000000E+00 0.  1.
          1    1    1    2  502    0  0.36403783948E+02  0.56067072538E+01 -0.11824648080E+03  0.12385031641E+03  0.00000000000E+00 0. -1.
         22    1    1    2    0    0  0.67947408951E+01  0.10398125706E+02 -0.22770989931E+02  0.25938533198E+02  0.00000000000E+00 0.  1.
         22    1    1    2    0    0  0.30003243171E+02 -0.32542485680E+02  0.15520987837E+03  0.16139799973E+03  0.00000000000E+00 0.  1.
</event>
<event>
 6    1  0.1726037E-005  0.1422625E+03  0.7818608E-02  0.1346136E+00
          2   -1    0    0  502    0  0.00000000000E+00  0.00000000000E+00  0.52855884574E+02  0.52855884574E+02  0.00000000000E+00 0. -1.
          1   -1    0    0  501    0 -0.00000000000E+00 -0.00000000000E+00 -0.72531915267E+03  0.72531915267E+03  0.00000000000E+00 0. -1.
          2    1    1    2  501    0  0.10779005725E+03 -0.61133022852E+02 -0.82162248758E+02  0.14868281019E+03  0.00000000000E+00 0. -1.
          1    1    1    2  502    0 -0.71222561965E+02  0.40517873241E+01 -0.23245217971E+03  0.24315239288E+03  0.00000000000E+00 0. -1.
         22    1    1    2    0    0  0.82109194086E+01  0.66556437037E+01  0.86687070147E+01  0.13669794144E+02  0.00000000000E+00 0.  1.
         22    1    1    2    0    0 -0.44778414697E+02  0.50425591824E+02 -0.36651754664E+03  0.37267004002E+03  0.00000000000E+00 0. -1.
</event>
<event>
 6    1  0.1726037E-005  0.1515750E+03  0.7818608E-02  0.1235398E+00
          2   -1    0    0  502    0  0.00000000000E+00  0.00000000000E+00  0.16969241369E+03  0.16969241369E+03  0.00000000000E+00 0. -1.
          1   -1    0    0  501    0 -0.00000000000E+00 -0.00000000000E+00 -0.42220478605E+03  0.42220478605E+03  0.00000000000E+00 0. -1.
          2    1    1    2  501    0  0.46529386191E+02  0.13624850813E+03 -0.10485540187E+03  0.17811034515E+03  0.00000000000E+00 0. -1.
          1    1    1    2  502    0  0.25145406657E+02 -0.13069215792E+03 -0.21529794913E+03  0.25311250170E+03  0.00000000000E+00 0. -1.
         22    1    1    2    0    0 -0.51767553324E+01 -0.26225034205E+02 -0.30360762249E+02  0.40451540133E+02  0.00000000000E+00 0. -1.
         22    1    1    2    0    0 -0.66498037515E+02  0.20668683995E+02  0.98001740886E+02  0.12022281276E+03  0.00000000000E+00 0. -1.
</event>
<event>
 6    1  0.1726037E-005  0.7643739E+02  0.7818608E-02  0.1354647E+00
          2   -1    0    0  502    0  0.00000000000E+00  0.00000000000E+00  0.23531938360E+02  0.23531938360E+02  0.00000000000E+00 0. -1.
          1   -1    0    0  501    0 -0.00000000000E+00 -0.00000000000E+00 -0.69772185932E+03  0.69772185932E+03  0.00000000000E+00 0.  1.
          2    1    1    2  501    0 -0.41923464207E+02  0.26930755025E+02 -0.30066854044E+03  0.30476944340E+03  0.00000000000E+00 0. -1.
          1    1    1    2  502    0  0.30757265593E+02 -0.49163560210E+02 -0.13779078760E+03  0.14949704407E+03  0.00000000000E+00 0.  1.
         22    1    1    2    0    0 -0.49157195242E+02  0.32512755118E+02 -0.77704683197E+02  0.97527057170E+02  0.00000000000E+00 0. -1.
         22    1    1    2    0    0  0.60323393857E+02 -0.10279949934E+02 -0.15802590972E+03  0.16946025304E+03  0.00000000000E+00 0.  1.
</event>
<event>
 6    1  0.1726037E-005  0.2988663E+02  0.7818608E-02  0.1634484E+00
          2   -1    0    0  502    0  0.00000000000E+00  0.00000000000E+00  0.11604366150E+03  0.11604366150E+03  0.00000000000E+00 0.  1.
          1   -1    0    0  501    0 -0.00000000000E+00 -0.00000000000E+00 -0.13147116720E+03  0.13147116720E+03  0.00000000000E+00 0.  1.
          2    1    1    2  501    0  0.56393611438E+02 -0.18594373741E+02  0.54709133709E+02  0.80740816549E+02  0.00000000000E+00 0.  1.
          1    1    1    2  502    0 -0.19804710302E+02  0.14249710406E+02 -0.63903686386E+01  0.25221372051E+02  0.00000000000E+00 0.  1.
         22    1    1    2    0    0 -0.21766453385E+02  0.43358542223E+01 -0.99975054277E+02  0.10240893322E+03  0.00000000000E+00 0.  1.
         22    1    1    2    0    0 -0.14822447751E+02  0.88091129792E-02  0.36228783498E+02  0.39143706885E+02  0.00000000000E+00 0.  1.
</event>
<event>
 6    1  0.1726037E-005  0.2253268E+03  0.7818608E-02  0.1253805E+00
          2   -1    0    0  502    0  0.00000000000E+00  0.00000000000E+00  0.26056381023E+03  0.26056381023E+03  0.00000000000E+00 0.  1.
          1   -1    0    0  501    0 -0.00000000000E+00 -0.00000000000E+00 -0.36956568636E+03  0.36956568636E+03  0.00000000000E+00 0.  1.
          2    1    1    2  501    0 -0.17596296557E+03  0.52298416486E+02  0.16883935233E+03  0.24940893431E+03  0.00000000000E+00 0.  1.
          1    1    1    2  502    0  0.41115377190E+02 -0.52792687356E+02 -0.35585541358E+02  0.75788342332E+02  0.00000000000E+00 0.  1.
         22    1    1    2    0    0  0.14336755339E+03  0.12383117460E+02 -0.24994356440E+03  0.28840836040E+03  0.00000000000E+00 0.  1.
         22    1    1    2    0    0 -0.85199650108E+01 -0.11888846591E+02  0.76878772989E+01  0.16523859549E+02  0.00000000000E+00 0. -1.
</event>
<event>
 6    1  0.1726037E-005  0.5875958E+02  0.7818608E-02  0.1468104E+00
          2   -1    0    0  502    0  0.00000000000E+00  0.00000000000E+00  0.13554762955E+03  0.13554762955E+03  0.00000000000E+00 0. -1.
          1   -1    0    0  501    0 -0.00000000000E+00 -0.00000000000E+00 -0.29119493196E+03  0.29119493196E+03  0.00000000000E+00 0. -1.
          2    1    1    2  501    0 -0.11904581622E+02  0.41262348947E+02  0.45878254873E+02  0.62841982579E+02  0.00000000000E+00 0. -1.
          1    1    1    2  502    0  0.31326974731E+01 -0.46427829159E+02 -0.23332321367E+03  0.23791821946E+03  0.00000000000E+00 0. -1.
         22    1    1    2    0    0  0.15477338959E+02  0.15772502646E+02  0.76460683728E+02  0.79589924093E+02  0.00000000000E+00 0. -1.
         22    1    1    2    0    0 -0.67054548103E+01 -0.10607022434E+02 -0.44663027345E+02  0.46392435383E+02  0.00000000000E+00 0.  1.
</event>
<event>
 6    1  0.1726037E-005  0.2513278E+02  0.7818608E-02  0.1667633E+00
          2   -1    0    0  502    0  0.00000000000E+00  0.00000000000E+00  0.74372540962E+02  0.74372540962E+02  0.00000000000E+00 0. -1.
          1   -1    0    0  501    0 -0.00000000000E+00 -0.00000000000E+00 -0.20247663076E+03  0.20247663076E+03  0.00000000000E+00 0. -1.
          2    1    1    2  501    0  0.67755302108E+01  0.24863142032E+02 -0.12189585933E+02  0.28507361270E+02  0.00000000000E+00 0. -1.
          1    1    1    2  502    0 -0.28919944377E+02 -0.15441822169E+02 -0.11825684760E+03  0.12271713434E+03  0.00000000000E+00 0. -1.
         22    1    1    2    0    0  0.69464177795E+01 -0.18421724444E+02 -0.58786196679E+02  0.61995399599E+02  0.00000000000E+00 0.  1.
         22    1    1    2    0    0  0.15197996387E+02  0.90004045807E+01  0.61128540417E+02  0.63629276518E+02  0.00000000000E+00 0. -1.
</event>
<event>
 6    1  0.1726037E-005  0.3037187E+02  0.7818608E-02  0.1657321E+00
          2   -1    0    0  502    0  0.00000000000E+00  0.00000000000E+00  0.17979816592E+03  0.17979816592E+03  0.00000000000E+00 0. -1.
          1   -1    0    0  501    0 -0.00000000000E+00 -0.00000000000E+00 -0.11509163283E+03  0.11509163283E+03  0.00000000000E+00 0. -1.
          2    1    1    2  501    0  0.17796165973E+02  0.14508592597E+02  0.11492558159E+03  0.11719680920E+03  0.00000000000E+00 0. -1.
          1    1    1    2  502    0 -0.99140171055E+01 -0.31199507791E+02 -0.44870159455E+02  0.55543030446E+02  0.00000000000E+00 0. -1.
         22    1    1    2    0    0 -0.15218961290E+02  0.29229790975E+02 -0.58448644421E+02  0.67098744383E+02  0.00000000000E+00 0. -1.
         22    1    1    2    0    0  0.73368124229E+01 -0.12538875781E+02  0.53099755375E+02  0.55051214730E+02  0.00000000000E+00 0. -1.
</event>
<event>
 6    1  0.1726037E-005  0.5506733E+02  0.7818608E-02  0.1449566E+00
          2   -1    0    0  502    0  0.00000000000E+00  0.00000000000E+00  0.13699738183E+03  0.13699738183E+03  0.00000000000E+00 0. -1.
          1   -1    0    0  501    0 -0.00000000000E+00 -0.00000000000E+00 -0.19179485430E+03  0.19179485430E+03  0.00000000000E+00 0. -1.
          2    1    1    2  501    0 -0.63506848284E+01  0.72266798843E+02  0.21278527068E+01  0.72576505633E+02  0.00000000000E+00 0. -1.
          1    1    1    2  502    0 -0.58187354472E+02 -0.70399411804E+02 -0.64496362347E+02  0.11181067104E+03  0.00000000000E+00 0. -1.
         22    1    1    2    0    0  0.25985490544E+02 -0.13640627315E+01  0.67952184978E+02  0.72764042145E+02  0.00000000000E+00 0. -1.
         22    1    1    2    0    0  0.38552548757E+02 -0.50332430748E+00 -0.60381147808E+02  0.71641017313E+02  0.00000000000E+00 0. -1.
</event>
<event>
 6    1  0.1726037E-005  0.6402645E+02  0.7818608E-02  0.1383666E+00
          2   -1    0    0  502    0  0.00000000000E+00  0.00000000000E+00  0.19922203263E+03  0.19922203263E+03  0.00000000000E+00 0. -1.
          1   -1    0    0  501    0 -0.00000000000E+00 -0.00000000000E+00 -0.17554900442E+03  0.17554900442E+03  0.00000000000E+00 0.  1.
          2    1    1    2  501    0  0.44664727012E+02  0.21877525859E+02  0.12297383757E+03  0.13265040032E+03  0.00000000000E+00 0. -1.
          1    1    1    2  502    0 -0.34684589529E+02 -0.24565861480E+02 -0.10951620468E+03  0.11747468403E+03  0.00000000000E+00 0.  1.
         22    1    1    2    0    0  0.91647843072E+01  0.59948471899E+01  0.65312237635E+02  0.66224012632E+02  0.00000000000E+00 0. -1.
         22    1    1    2    0    0 -0.19144921791E+02 -0.33065115690E+01 -0.55096842314E+02  0.58421940075E+02  0.00000000000E+00 0. -1.
</event>
<event>
 6    1  0.1726037E-005  0.4643041E+02  0.7818608E-02  0.1467697E+00
          2   -1    0    0  502    0  0.00000000000E+00  0.00000000000E+00  0.34505184848E+03  0.34505184848E+03  0.00000000000E+00 0.  1.
          1   -1    0    0  501    0 -0.00000000000E+00 -0.00000000000E+00 -0.11873293835E+03  0.11873293835E+03  0.00000000000E+00 0. -1.
          2    1    1    2  501    0 -0.12826403574E+02  0.18381183213E+02  0.23622463883E+03  0.23728561801E+03  0.00000000000E+00 0.  1.
          1    1    1    2  502    0  0.85421474942E+01 -0.24608678133E+02 -0.80983217227E+02  0.85069599715E+02  0.00000000000E+00 0. -1.
         22    1    1    2    0    0  0.15711469435E+02 -0.10131820767E+02 -0.31662381378E+02  0.36769694837E+02  0.00000000000E+00 0.  1.
         22    1    1    2    0    0 -0.11427213355E+02  0.16359315687E+02  0.10273986990E+03  0.10465987427E+03  0.00000000000E+00 0.  1.
</event>
<event>
 6    1  0.1726037E-005  0.1985938E+03  0.7818608E-02  0.1152896E+00
          2   -1    0    0  502    0  0.00000000000E+00  0.00000000000E+00  0.34177052190E+02  0.34177052190E+02  0.00000000000E+00 0. -1.
          1   -1    0    0  501    0 -0.00000000000E+00 -0.00000000000E+00 -0.12165062178E+04  0.12165062178E+04  0.00000000000E+00 0. -1.
          2    1    1    2  501    0  0.70000564258E+02  0.14008274574E+03 -0.35786655812E+03  0.39062991190E+03  0.00000000000E+00 0. -1.
          1    1    1    2  502    0 -0.22788609575E+02 -0.10312536605E+03 -0.33653718721E+03  0.35272005929E+03  0.00000000000E+00 0. -1.
         22    1    1    2    0    0  0.17373292497E+02  0.21830114978E+02 -0.29267866695E+02  0.40435049562E+02  0.00000000000E+00 0. -1.
         22    1    1    2    0    0 -0.64585247180E+02 -0.58787494662E+02 -0.45865755356E+03  0.46689824921E+03  0.00000000000E+00 0.  1.
</event>
<event>
 6    1  0.1726037E-005  0.8855373E+02  0.7818608E-02  0.1336607E+00
          2   -1    0    0  502    0  0.00000000000E+00  0.00000000000E+00  0.12742298248E+03  0.12742298248E+03  0.00000000000E+00 0.  1.
          1   -1    0    0  501    0 -0.00000000000E+00 -0.00000000000E+00 -0.11158628628E+03  0.11158628628E+03  0.00000000000E+00 0. -1.
          2    1    1    2  501    0  0.67054576560E+02 -0.38459685697E+01  0.36516342518E+02  0.76449663065E+02  0.00000000000E+00 0.  1.
          1    1    1    2  502    0 -0.34337404811E+02  0.44017415395E+01 -0.13943031917E+02  0.37320782907E+02  0.00000000000E+00 0. -1.
         22    1    1    2    0    0 -0.46583610156E+00  0.51670951935E+02  0.23555639117E+02  0.56788840553E+02  0.00000000000E+00 0.  1.
         22    1    1    2    0    0 -0.32251335647E+02 -0.52226724904E+02 -0.30292253520E+02  0.68449982239E+02  0.00000000000E+00 0. -1.
</event>
<event>
 6    1  0.1726037E-005  0.1802835E+02  0.7818608E-02  0.1821455E+00
          2   -1    0    0  502    0  0.00000000000E+00  0.00000000000E+00  0.65097977253E+02  0.65097977253E+02  0.00000000000E+00 0. -1.
          1   -1    0    0  501    0 -0.00000000000E+00 -0.00000000000E+00 -0.20473250402E+03  0.20473250402E+03  0.00000000000E+00 0. -1.
          2    1    1    2  501    0 -0.34680440244E+02 -0.16955296772E+01 -0.10919534713E+03  0.11458285906E+03  0.00000000000E+00 0. -1.
          1    1    1    2  502    0  0.16361115651E+02 -0.11823061040E+02 -0.13992493179E+02  0.24561366881E+02  0.00000000000E+00 0. -1.
         22    1    1    2    0    0  0.12229268877E+02  0.53595180177E+01 -0.72498238865E+02  0.73717529050E+02  0.00000000000E+00 0. -1.
         22    1    1    2    0    0  0.60900557165E+01  0.81590726994E+01  0.56051552410E+02  0.56968726276E+02  0.00000000000E+00 0. -1.
</event>
<event>
 6    1  0.1726037E-005  0.4722202E+02  0.7818608E-02  0.1571619E+00
          2   -1    0    0  502    0  0.00000000000E+00  0.00000000000E+00  0.72814650313E+02  0.72814650313E+02  0.00000000000E+00 0. -1.
          1   -1    0    0  501    0 -0.00000000000E+00 -0.00000000000E+00 -0.22883937657E+03  0.22883937657E+03  0.00000000000E+00 0. -1.
          2    1    1    2  501    0  0.11937965123E+02  0.20959112489E+02  0.19326547610E+01  0.24197821432E+02  0.00000000000E+00 0. -1.
          1    1    1    2  502    0 -0.38790719699E+02  0.21687386586E+02 -0.13549596704E+03  0.14259810573E+03  0.00000000000E+00 0. -1.
         22    1    1    2    0    0 -0.84091092072E+01  0.65262355081E+01  0.43829622544E+02  0.45103665925E+02  0.00000000000E+00 0.  1.
         22    1    1    2    0    0  0.35261863783E+02 -0.49172734583E+02 -0.66291036515E+02  0.89754433796E+02  0.00000000000E+00 0. -1.
</event>
<event>
 6    1  0.1726037E-005  0.8598630E+02  0.7818608E-02  0.1384921E+00
          2   -1    0    0  502    0  0.00000000000E+00  0.00000000000E+00  0.15820003937E+04  0.15820003937E+04  0.00000000000E+00 0. -1.
          1   -1    0    0  501    0 -0.00000000000E+00 -0.00000000000E+00 -0.36873445873E+02  0.36873445873E+02  0.00000000000E+00 0. -1.
          2    1    1    2  501    0  0.52503106108E+02  0.25267005330E+02  0.13948530445E+04  0.13960694873E+04  0.00000000000E+00 0. -1.
          1    1    1    2  502    0 -0.16030098132E+02 -0.31179352282E+02  0.24533492488E+02  0.42790282874E+02  0.00000000000E+00 0. -1.
         22    1    1    2    0    0 -0.44453354813E+01 -0.24678114080E+02  0.13281663425E+03  0.13516297072E+03  0.00000000000E+00 0.  1.
         22    1    1    2    0    0 -0.32027672495E+02  0.30590461031E+02 -0.70762234096E+01  0.44851098641E+02  0.00000000000E+00 0. -1.
</event>
<event>
 6    1  0.1726037E-005  0.3262090E+02  0.7818608E-02  0.1610526E+00
          2   -1    0    0  502    0  0.00000000000E+00  0.00000000000E+00  0.11457739611E+03  0.11457739611E+03  0.00000000000E+00 0. -1.
          1   -1    0    0  501    0 -0.00000000000E+00 -0.00000000000E+00 -0.10940927656E+03  0.10940927656E+03  0.00000000000E+00 0.  1.
          2    1    1    2  501    0  0.10845876923E+02  0.42249989275E+02 -0.13101491280E+01  0.43639559240E+02  0.00000000000E+00 0. -1.
          1    1    1    2  502    0 -0.21828400600E+02 -0.33382677087E+02 -0.25065238311E+02  0.47107837711E+02  0.00000000000E+00 0.  1.
         22    1    1    2    0    0  0.10067061504E+02 -0.24167238764E+02 -0.46684299902E+02  0.53524060143E+02  0.00000000000E+00 0.  1.
         22    1    1    2    0    0  0.91546217319E+00  0.15299926576E+02  0.78227806891E+02  0.79715215581E+02  0.00000000000E+00 0. -1.
</event>
<event>
 6    1  0.1726037E-005  0.6630692E+02  0.7818608E-02  0.1450772E+00
          2   -1    0    0  502    0  0.00000000000E+00  0.00000000000E+00  0.26113058576E+03  0.26113058576E+03  0.00000000000E+00 0. -1.
          1   -1    0    0  501    0 -0.00000000000E+00 -0.00000000000E+00 -0.95844358241E+02  0.95844358241E+02  0.00000000000E+00 0. -1.
          2    1    1    2  501    0  0.87970955433E+02  0.65159138372E+02  0.71975203442E+02  0.13101538926E+03  0.00000000000E+00 0. -1.
          1    1    1    2  502    0 -0.68459252140E+02 -0.33446841988E+02  0.52801802289E+02  0.92700543513E+02  0.00000000000E+00 0. -1.
         22    1    1    2    0    0 -0.21709198253E+02 -0.46548277352E+02 -0.31135009677E+02  0.60061803509E+02  0.00000000000E+00 0.  1.
         22    1    1    2    0    0  0.21974949598E+01  0.14835980968E+02  0.71644231465E+02  0.73197207718E+02  0.00000000000E+00 0. -1.
</event>
<event>
 6    1  0.1726037E-005  0.2278345E+02  0.7818608E-02  0.1710946E+00
          2   -1    0    0  502    0  0.00000000000E+00  0.00000000000E+00  0.11582303187E+03  0.11582303187E+03  0.00000000000E+00 0. -1.
          1   -1    0    0  501    0 -0.00000000000E+00 -0.00000000000E+00 -0.37157506650E+03  0.37157506650E+03  0.00000000000E+00 0. -1.
          2    1    1    2  501    0 -0.21300880218E+02  0.68396901655E+01  0.23573512008E+02  0.32499528120E+02  0.00000000000E+00 0. -1.
          1    1    1    2  502    0  0.30671302517E+02 -0.10749509589E+02 -0.32454349064E+03  0.32616676420E+03  0.00000000000E+00 0. -1.
         22    1    1    2    0    0 -0.30169211550E+01 -0.17052918950E+02  0.83147413089E+02  0.84931714697E+02  0.00000000000E+00 0. -1.
         22    1    1    2    0    0 -0.63535011436E+01  0.20962738373E+02 -0.37929469087E+02  0.43800091348E+02  0.00000000000E+00 0. -1.
</event>
<event>
 6    1  0.1726037E-005  0.7390911E+02  0.7818608E-02  0.1467002E+00
          2   -1    0    0  502    0  0.00000000000E+00  0.00000000000E+00  0.11442776692E+03  0.11442776692E+03  0.00000000000E+00 0.  1.
          1   -1    0    0  501    0 -0.00000000000E+00 -0.00000000000E+00 -0.25510497763E+03  0.25510497763E+03  0.00000000000E+00 0. -1.
          2    1    1    2  501    0  0.15183406381E+02 -0.60964122842E+02  0.56698083470E+02  0.84627612352E+02  0.00000000000E+00 0.  1.
          1    1    1    2  502    0 -0.67087141102E+01  0.49435580802E+02 -0.13773721350E+03  0.14649376600E+03  0.00000000000E+00 0. -1.
         22    1    1    2    0    0 -0.16860848782E+01 -0.11155084880E+02  0.37120913673E+02  0.38797435905E+02  0.00000000000E+00 0.  1.
         22    1    1    2    0    0 -0.67886073930E+01  0.22683626921E+02 -0.96758994356E+02  0.99613930298E+02  0.00000000000E+00 0. -1.
</event>
<event>
 6    1  0.1726037E-005  0.1215246E+03  0.7818608E-02  0.1244111E+00
          2   -1    0    0  502    0  0.00000000000E+00  0.00000000000E+00  0.11267625105E+03  0.11267625105E+03  0.00000000000E+00 0.  1.
          1   -1    0    0  501    0 -0.00000000000E+00 -0.00000000000E+00 -0.48284664138E+03  0.48284664138E+03  0.00000000000E+00 0. -1.
          2    1    1    2  501    0  0.14462125187E+02  0.95488646168E+02  0.66078105371E+02  0.11701944548E+03  0.00000000000E+00 0.  1.
          1    1    1    2  502    0  0.95872942390E+01 -0.59336680794E+02 -0.18163150696E+03  0.19131848374E+03  0.00000000000E+00 0. -1.
         22    1    1    2    0    0  0.12265022446E+02  0.10873193861E+02  0.77813775974E+01  0.18144061223E+02  0.00000000000E+00 0.  1.
         22    1    1    2    0    0 -0.36314441873E+02 -0.47025159235E+02 -0.26239836633E+03  0.26904090199E+03  0.00000000000E+00 0. -1.
</event>
<event>
 6    1  0.1726037E-005  0.2880672E+03  0.7818608E-02  0.1209116E+00
          2   -1    0    0  502    0  0.00000000000E+00  0.00000000000E+00  0.85101527849E+03  0.85101527849E+03  0.00000000000E+00 0.  1.
          1   -1    0    0  501    0 -0.00000000000E+00 -0.00000000000E+00 -0.10887245511E+03  0.10887245511E+03  0.00000000000E+00 0.  1.
          2    1    1    2  501    0  0.72216142948E+02  0.27282731384E+03  0.24861739127E+03  0.37611237911E+03  0.00000000000E+00 0.  1.
          1    1    1    2  502    0  0.42616181192E+01 -0.24330351752E+02  0.35579472960E+02  0.43313119277E+02  0.00000000000E+00 0.  1.
         22    1    1    2    0    0  0.17456369559E+02  0.20808523613E+01  0.15786066375E+02  0.23627413661E+02  0.00000000000E+00 0.  1.
         22    1    1    2    0    0 -0.93934130627E+02 -0.25057781444E+03  0.44215989277E+03  0.51683482155E+03  0.00000000000E+00 0.  1.
</event>
<event>
 6    1  0.1726037E-005  0.7157486E+02  0.7818608E-02  0.1368460E+00
          2   -1    0    0  502    0  0.00000000000E+00  0.00000000000E+00  0.57050217669E+03  0.57050217669E+03  0.00000000000E+00 0. -1.
          1   -1    0    0  501    0 -0.00000000000E+00 -0.00000000000E+00 -0.30651361635E+02  0.30651361635E+02  0.00000000000E+00 0. -1.
          2    1    1    2  501    0  0.25282524880E+02  0.63847344812E+02  0.24646349490E+03  0.25585140966E+03  0.00000000000E+00 0. -1.
          1    1    1    2  502    0 -0.18980484012E+02  0.20428711442E+02  0.31317224703E+02  0.41932798470E+02  0.00000000000E+00 0. -1.
         22    1    1    2    0    0 -0.21200189236E+02 -0.29317436033E+02  0.10335363650E+01  0.36194312766E+02  0.00000000000E+00 0. -1.
         22    1    1    2    0    0  0.14898148368E+02 -0.54958620221E+02  0.26103655909E+03  0.26717501744E+03  0.00000000000E+00 0. -1.
</event>
<event>
 6    1  0.1726037E-005  0.1010301E+03  0.7818608E-02  0.1411499E+00
          2   -1    0    0  502    0  0.00000000000E+00  0.00000000000E+00  0.35010461996E+02  0.35010461996E+02  0.00000000000E+00 0.  1.
          1   -1    0    0  501    0 -0.00000000000E+00 -0.00000000000E+00 -0.65060345345E+03  0.65060345345E+03  0.00000000000E+00 0.  1.
          2    1    1    2  501    0  0.98131632840E+02 -0.29696311228E+02 -0.22377883968E+03  0.24614763325E+03  0.00000000000E+00 0.  1.
          1    1    1    2  502    0 -0.54003028967E+02  0.17350434742E+02 -0.19538237179E+03  0.20344934487E+03  0.00000000000E+00 0.  1.
         22    1    1    2    0    0 -0.81111301157E+01 -0.60797287016E+01  0.16451382761E+02  0.19323600275E+02  0.00000000000E+00 0.  1.
         22    1    1    2    0    0 -0.36017473757E+02  0.18425605188E+02 -0.21288316274E+03  0.21669333705E+03  0.00000000000E+00 0.  1.
</event>
<event>
 6    1  0.1726037E-005  0.8701119E+02  0.7818608E-02  0.1316765E+00
          2   -1    0    0  502    0  0.00000000000E+00  0.00000000000E+00  0.10121430962E+03  0.10121430962E+03  0.00000000000E+00 0.  1.
          1   -1    0    0  501    0 -0.00000000000E+00 -0.00000000000E+00 -0.22641439225E+03  0.22641439225E+03  0.00000000000E+00 0.  1.
          2    1    1    2  501    0  0.56492836977E+02 -0.41243841119E+02 -0.12956126124E+03  0.14723659692E+03  0.00000000000E+00 0.  1.
          1    1    1    2  502    0  0.17832557369E+02 -0.15116625085E+02 -0.11165568136E+02  0.25907187575E+02  0.00000000000E+00 0.  1.
         22    1    1    2    0    0  0.18903279539E+02  0.50309187645E+02 -0.15683075805E+02  0.55984883724E+02  0.00000000000E+00 0.  1.
         22    1    1    2    0    0 -0.93228673885E+02  0.60512785586E+01  0.31209822550E+02  0.98500033655E+02  0.00000000000E+00 0.  1.
</event>
<event>
 6    1  0.1726037E-005  0.8966288E+02  0.7818608E-02  0.1400119E+00
          2   -1    0    0  502    0  0.00000000000E+00  0.00000000000E+00  0.61259971564E+02  0.61259971564E+02  0.00000000000E+00 0.  1.
          1   -1    0    0  501    0 -0.00000000000E+00 -0.00000000000E+00 -0.16545779055E+03  0.16545779055E+03  0.00000000000E+00 0.  1.
          2    1    1    2  501    0 -0.16024965098E+02  0.17559983846E+02  0.13982254009E+02  0.27579992136E+02  0.00000000000E+00 0.  1.
          1    1    1    2  502    0 -0.21127473001E+02  0.11212594031E+02 -0.48592239808E+01  0.24407057136E+02  0.00000000000E+00 0.  1.
         22    1    1    2    0    0  0.21978281667E+02 -0.37161537770E+02 -0.13798508809E+03  0.14458184288E+03  0.00000000000E+00 0.  1.
         22    1    1    2    0    0  0.15174156432E+02  0.83889598933E+01  0.24664239071E+02  0.30148869970E+02  0.00000000000E+00 0.  1.
</event>
<event>
 6    1  0.1726037E-005  0.1586575E+03  0.7818608E-02  0.1284032E+00
          2   -1    0    0  502    0  0.00000000000E+00  0.00000000000E+00  0.60100969128E+02  0.60100969128E+02  0.00000000000E+00 0.  1.
          1   -1    0    0  501    0 -0.00000000000E+00 -0.00000000000E+00 -0.75077872451E+03  0.75077872451E+03  0.00000000000E+00 0.  1.
          2    1    1    2  501    0  0.12769081366E+03  0.83915095990E+02 -0.39487152437E+03  0.42340312704E+03  0.00000000000E+00 0.  1.
          1    1    1    2  502    0 -0.84275906473E+02 -0.60549960236E+02 -0.19331997713E+03  0.21941134805E+03  0.00000000000E+00 0.  1.
         22    1    1    2    0    0 -0.54538311825E+02 -0.28616425060E+01 -0.12452478657E+03  0.13597440540E+03  0.00000000000E+00 0.  1.
         22    1    1    2    0    0  0.11123404635E+02 -0.20503493248E+02  0.22038532679E+02  0.32090813151E+02  0.00000000000E+00 0. -1.
</event>
<event>
 6    1  0.1726037E-005  0.3778163E+02  0.7818608E-02  0.1540094E+00
          2   -1    0    0  502    0  0.00000000000E+00  0.00000000000E+00  0.11381903346E+03  0.11381903346E+03  0.00000000000E+00 0. -1.
          1   -1    0    0  501    0 -0.00000000000E+00 -0.00000000000E+00 -0.21997742374E+03  0.21997742374E+03  0.00000000000E+00 0.  1.
          2    1    1    2  501    0  0.41176695054E+02 -0.50309437643E+02  0.43296263110E+02  0.78109705740E+02  0.00000000000E+00 0. -1.
          1    1    1    2  502    0 -0.45932027021E+02  0.49360604177E+02 -0.10863816693E+03  0.12786114212E+03  0.00000000000E+00 0.  1.
         22    1    1    2    0    0  0.16791510422E+02 -0.84477790316E+01  0.40731930321E+02  0.44859892337E+02  0.00000000000E+00 0. -1.
         22    1    1    2    0    0 -0.12036178456E+02  0.93966124977E+01 -0.81548416778E+02  0.82965717000E+02  0.00000000000E+00 0.  1.
</event>
<event>
 6    1  0.1726037E-005  0.5870994E+02  0.7818608E-02  0.1514812E+00
          2   -1    0    0  502    0  0.00000000000E+00  0.00000000000E+00  0.41538211325E+02  0.41538211325E+02  0.00000000000E+00 0. -1.
          1   -1    0    0  501    0 -0.00000000000E+00 -0.00000000000E+00 -0.31380016412E+03  0.31380016412E+03  0.00000000000E+00 0.  1.
          2    1    1    2  501    0  0.47993046854E+02 -0.28396207671E+02 -0.96447452214E+02  0.11140820524E+03  0.00000000000E+00 0. -1.
          1    1    1    2  502    0 -0.98583566896E+01  0.20005076663E+02 -0.69141623978E+02  0.72649531693E+02  0.00000000000E+00 0.  1.
         22    1    1    2    0    0 -0.61625482193E+01 -0.97920733610E+01  0.28729404628E+02  0.30971606215E+02  0.00000000000E+00 0. -1.
         22    1    1    2    0    0 -0.31972141945E+02  0.18183204369E+02 -0.13540228123E+03  0.14030903230E+03  0.00000000000E+00 0.  1.
</event>
<event>
 6    1  0.1726037E-005  0.4262130E+02  0.7818608E-02  0.1518050E+00
          2   -1    0    0  502    0  0.00000000000E+00  0.00000000000E+00  0.52422242356E+03  0.52422242356E+03  0.00000000000E+00 0. -1.
          1   -1    0    0  501    0 -0.00000000000E+00 -0.00000000000E+00 -0.11716258718E+03  0.11716258718E+03  0.00000000000E+00 0. -1.
          2    1    1    2  501    0 -0.82878518909E+02  0.31919068065E+02  0.40797904242E+03  0.41753392061E+03  0.00000000000E+00 0. -1.
          1    1    1    2  502    0  0.65317066533E+02 -0.61385248843E+02 -0.97479641147E+01  0.90163688703E+02  0.00000000000E+00 0. -1.
         22    1    1    2    0    0  0.11536391793E+02  0.16900848053E+02 -0.60035665003E+02  0.63427187175E+02  0.00000000000E+00 0. -1.
         22    1    1    2    0    0  0.60250605825E+01  0.12565332725E+02  0.68864423073E+02  0.70260214252E+02  0.00000000000E+00 0. -1.
</event>
<event>
 6    1  0.1726037E-005  0.7109725E+02  0.7818608E-02  0.1434503E+00
          2   -1    0    0  502    0  0.00000000000E+00  0.00000000000E+00  0.10697252770E+03  0.10697252770E+03  0.00000000000E+00 0.  1.
          1   -1    0    0  501    0 -0.00000000000E+00 -0.00000000000E+00 -0.18272112549E+03  0.18272112549E+03  0.00000000000E+00 0.  1.
          2    1    1    2  501    0  0.73885597824E+02 -0.39892467590E+02 -0.35773749406E+02  0.91270212462E+02  0.00000000000E+00 0.  1.
          1    1    1    2  502    0 -0.27711288060E+02  0.38536966436E+01 -0.49921894786E+02  0.57227284077E+02  0.00000000000E+00 0.  1.
         22    1    1    2    0    0 -0.15189865916E+02  0.13691242528E+02  0.68386031251E+02  0.71378087805E+02  0.00000000000E+00 0.  1.
         22    1    1    2    0    0 -0.30984443848E+02  0.22347528418E+02 -0.58438984848E+02  0.69818068844E+02  0.00000000000E+00 0.  1.
</event>
<event>
 6    1  0.1726037E-005  0.2210517E+02  0.7818608E-02  0.1745978E+00
          2   -1    0    0  502    0  0.00000000000E+00  0.00000000000E+00  0.25871459855E+03  0.25871459855E+03  0.00000000000E+00 0.  1.
          1   -1    0    0  501    0 -0.00000000000E+00 -0.00000000000E+00 -0.40559082160E+03  0.40559082160E+03  0.00000000000E+00 0.  1.
          2    1    1    2  501    0 -0.19964224379E+02 -0.10962669252E+02  0.19347307021E+03  0.19480908415E+03  0.00000000000E+00 0.  1.
          1    1    1    2  502    0  0.17720881567E+02 -0.94185008209E+01 -0.33776572607E+03  0.33836138005E+03  0.00000000000E+00 0.  1.
         22    1    1    2    0    0  0.10322468551E+02  0.50935037981E+01 -0.65182891852E+02  0.66191438480E+02  0.00000000000E+00 0. -1.
         22    1    1    2    0    0 -0.80791257386E+01  0.15287666275E+02  0.62599324657E+02  0.64943517462E+02  0.00000000000E+00 0. -1.
</event>
<event>
 6    1  0.1726037E-005  0.4597041E+02  0.7818608E-02  0.1575831E+00
          2   -1    0    0  502    0  0.00000000000E+00  0.00000000000E+00  0.40295341934E+02  0.40295341934E+02  0.00000000000E+00 0.  1.
          1   -1    0    0  501    0 -0.00000000000E+00 -0.00000000000E+00 -0.36032726411E+03  0.36032726411E+03  0.00000000000E+00 0.  1.
          2    1    1    2  501    0 -0.23615921260E+02 -0.10305387769E+02 -0.17601728458E+02  0.31204704753E+02  0.00000000000E+00 0.  1.
          1    1    1    2  502    0 -0.15404502581E+01  0.52910485915E+02 -0.18764204808E+03  0.19496520385E+03  0.00000000000E+00 0.  1.
         22    1    1    2    0    0  0.10230480044E+02 -0.38990703225E+01  0.25717479006E+02  0.27950924810E+02  0.00000000000E+00 0.  1.
         22    1    1    2    0    0  0.14925891474E+02 -0.38706027824E+02 -0.14050562465E+03  0.14650177263E+03  0.00000000000E+00 0.  1.
</event>
<event>
 6    1  0.1726037E-005  0.3690004E+02  0.7818608E-02  0.1567150E+00
          2   -1    0    0  502    0  0.00000000000E+00  0.00000000000E+00  0.76986608943E+02  0.76986608943E+02  0.00000000000E+00 0. -1.
          1   -1    0    0  501    0 -0.00000000000E+00 -0.00000000000E+00 -0.36318709793E+03  0.36318709793E+03  0.00000000000E+00 0. -1.
          2    1    1    2  501    0 -0.25874735247E+02  0.39886408219E+02 -0.36006776552E+02  0.59639881307E+02  0.00000000000E+00 0. -1.
          1    1    1    2  502    0  0.20314220010E+02 -0.62534825857E+02 -0.24389524322E+03  0.25260277442E+03  0.00000000000E+00 0. -1.
         22    1    1    2    0    0  0.13950254792E+02  0.21932559522E+01 -0.64313731917E+02  0.65845850997E+02  0.00000000000E+00 0. -1.
         22    1    1    2    0    0 -0.83897395551E+01  0.20455161686E+02  0.58015262709E+02  0.62085200141E+02  0.00000000000E+00 0. -1.
</event>
<event>
 6    1  0.1726037E-005  0.8286448E+02  0.7818608E-02  0.1433661E+00
          2   -1    0    0  502    0  0.00000000000E+00  0.00000000000E+00  0.22738191677E+03  0.22738191677E+03  0.00000000000E+00 0.  1.
          1   -1    0    0  501    0 -0.00000000000E+00 -0.00000000000E+00 -0.76113874103E+02  0.76113874103E+02  0.00000000000E+00 0. -1.
          2    1    1    2  501    0 -0.56351515293E+02 -0.35181052002E+02  0.13053319655E+03  0.14646540580E+03  0.00000000000E+00 0.  1.
          1    1    1    2  502    0  0.31212775185E+01  0.22030799528E+02  0.87412293708E+01  0.23906224965E+02  0.00000000000E+00 0. -1.
         22    1    1    2    0    0  0.85949821536E+01  0.98610707012E+01  0.63532101465E+02  0.64864800549E+02  0.00000000000E+00 0.  1.
         22    1    1    2    0    0  0.44635255621E+02  0.32891817733E+01 -0.51538484714E+02  0.68259359561E+02  0.00000000000E+00 0. -1.
</event>
<event>
 6    1  0.1726037E-005  0.7332731E+02  0.7818608E-02  0.1412934E+00
          2   -1    0    0  502    0  0.00000000000E+00  0.00000000000E+00  0.17141451705E+03  0.17141451705E+03  0.00000000000E+00 0. -1.
          1   -1    0    0  501    0 -0.00000000000E+00 -0.00000000000E+00 -0.45927843275E+03  0.45927843275E+03  0.00000000000E+00 0. -1.
          2    1    1    2  501    0  0.17965316645E+02  0.54549459596E+02  0.97717311148E+02  0.11334491185E+03  0.00000000000E+00 0. -1.
          1    1    1    2  502    0 -0.34529323421E+02 -0.53346869860E+02 -0.38904118227E+03  0.39419691044E+03  0.00000000000E+00 0. -1.
         22    1    1    2    0    0  0.25701901620E+02  0.34102827271E+01  0.60173350918E+02  0.65521370070E+02  0.00000000000E+00 0.  1.
         22    1    1    2    0    0 -0.91378948446E+01 -0.46128724636E+01 -0.56713395491E+02  0.57629757440E+02  0.00000000000E+00 0. -1.
</event>
<event>
 6    1  0.1726037E-005  0.9128835E+02  0.7818608E-02  0.1311832E+00
          2   -1    0    0  502    0  0.00000000000E+00  0.00000000000E+00  0.71943102826E+02  0.71943102826E+02  0.00000000000E+00 0. -1.
          1   -1    0    0  501    0 -0.00000000000E+00 -0.00000000000E+00 -0.53881682851E+03  0.53881682851E+03  0.00000000000E+00 0. -1.
          2    1    1    2  501    0  0.22991249019E+02 -0.61619935740E+02 -0.46000813837E+02  0.80260132604E+02  0.00000000000E+00 0. -1.
          1    1    1    2  502    0  0.32688463018E+02  0.84942906668E+02 -0.36641310518E+03  0.37754787333E+03  0.00000000000E+00 0. -1.
         22    1    1    2    0    0 -0.65422089463E+02 -0.32888171584E+02  0.21072680949E+02  0.76195403419E+02  0.00000000000E+00 0. -1.
         22    1    1    2    0    0  0.97423774260E+01  0.95652006556E+01 -0.75532487614E+02  0.76756521982E+02  0.00000000000E+00 0. -1.
</event>
<event>
 6    1  0.1726037E-005  0.3047149E+02  0.7818608E-02  0.1597445E+00
          2   -1    0    0  502    0  0.00000000000E+00  0.00000000000E+00  0.55647258175E+02  0.55647258175E+02  0.00000000000E+00 0.  1.
          1   -1    0    0  501    0 -0.00000000000E+00 -0.00000000000E+00 -0.51522985554E+03  0.51522985554E+03  0.00000000000E+00 0.  1.
          2    1    1    2  501    0 -0.33688691545E+02 -0.19422033159E+02  0.48786895232E+01  0.39191133200E+02  0.00000000000E+00 0.  1.
          1    1    1    2  502    0  0.27421235465E+02 -0.94059109078E+01 -0.37482210811E+03  0.37594149551E+03  0.00000000000E+00 0.  1.
         22    1    1    2    0    0 -0.11488596658E+02  0.16774909159E+02  0.28868296504E+02  0.35309545076E+02  0.00000000000E+00 0. -1.
         22    1    1    2    0    0  0.17756052737E+02  0.12053034908E+02 -0.11850747528E+03  0.12043493993E+03  0.00000000000E+00 0.  1.
</event>
<event>
 6    1  0.1726037E-005  0.1345531E+03  0.7818608E-02  0.1315088E+00
          2   -1    0    0  502    0  0.00000000000E+00  0.00000000000E+00  0.44978539378E+03  0.44978539378E+03  0.00000000000E+00 0. -1.
          1   -1    0    0  501    0 -0.00000000000E+00 -0.00000000000E+00 -0.59402484311E+03  0.59402484311E+03  0.00000000000E+00 0. -1.
          2    1    1    2  501    0 -0.99820383238E+02 -0.67948822832E+02  0.36823832941E+03  0.38753144219E+03  0.00000000000E+00 0. -1.
          1    1    1    2  502    0  0.99594873621E+02  0.59160554849E+02 -0.52209832148E+03  0.53479507046E+03  0.00000000000E+00 0. -1.
         22    1    1    2    0    0  0.30859867391E+01  0.21339980338E+02 -0.53175986663E+02  0.57381213237E+02  0.00000000000E+00 0. -1.
         22    1    1    2    0    0 -0.28604771218E+01 -0.12551712355E+02  0.62796529401E+02  0.64102511005E+02  0.00000000000E+00 0. -1.
</event>
<event>
 6    1  0.1726037E-005  0.6395444E+02  0.7818608E-02  0.1388885E+00
          2   -1    0    0  502    0  0.00000000000E+00  0.00000000000E+00  0.12899250788E+02  0.12899250788E+02  0.00000000000E+00 0. -1.
          1   -1    0    0  501    0 -0.00000000000E+00 -0.00000000000E+00 -0.94786943961E+03  0.94786943961E+03  0.00000000000E+00 0. -1.
          2    1    1    2  501    0  0.32619724462E+02  0.33874738450E+02 -0.28333268627E+03  0.28720890557E+03  0.00000000000E+00 0. -1.
          1    1    1    2  502    0 -0.39267515006E+02 -0.83320299028E+01 -0.15475667863E+03  0.15987804739E+03  0.00000000000E+00 0. -1.
         22    1    1    2    0    0 -0.54299886296E+02  0.38063009545E+01 -0.31416530813E+03  0.31884605441E+03  0.00000000000E+00 0. -1.
         22    1    1    2    0    0  0.60947676840E+02 -0.29349009501E+02 -0.18271551579E+03  0.19483568303E+03  0.00000000000E+00 0. -1.
</event>
<event>
 6    1  0.1726037E-005  0.1719566E+03  0.7818608E-02  0.1275908E+00
          2   -1    0    0  502    0  0.00000000000E+00  0.00000000000E+00  0.61896051392E+03  0.61896051392E+03  0.00000000000E+00 0.  1.
          1   -1    0    0  501    0 -0.00000000000E+00 -0.00000000000E+00 -0.48300230063E+02  0.48300230063E+02  0.00000000000E+00 0.  1.
          2    1    1    2  501    0 -0.87580657497E+02 -0.91184099742E+02  0.24063194564E+03  0.27182465833E+03  0.00000000000E+00 0.  1.
          1    1    1    2  502    0  0.38489647210E+02  0.37980905748E+02  0.17979841824E+03  0.18775375720E+03  0.00000000000E+00 0.  1.
         22    1    1    2    0    0  0.16494452136E+02 -0.13611335079E+02  0.12844665219E+03  0.13021473746E+03  0.00000000000E+00 0.  1.
         22    1    1    2    0    0  0.32596558151E+02  0.66814529073E+02  0.21783267799E+02  0.77467590995E+02  0.00000000000E+00 0.  1.
</event>
<event>
 6    1  0.1726037E-005  0.1306301E+03  0.7818608E-02  0.1360702E+00
          2   -1    0    0  502    0  0.00000000000E+00  0.00000000000E+00  0.89078384933E+02  0.89078384933E+02  0.00000000000E+00 0.  1.
          1   -1    0    0  501    0 -0.00000000000E+00 -0.00000000000E+00 -0.36009798584E+03  0.36009798584E+03  0.00000000000E+00 0.  1.
          2    1    1    2  501    0  0.62587256388E+02 -0.99446825995E+02 -0.27731915001E+02  0.12073067122E+03  0.00000000000E+00 0.  1.
          1    1    1    2  502    0 -0.20982891813E+02  0.73483861788E+02 -0.12387772792E+03  0.14555360238E+03  0.00000000000E+00 0.  1.
         22    1    1    2    0    0 -0.37660505275E+02  0.35868180918E+02 -0.14560284807E+03  0.15461251381E+03  0.00000000000E+00 0. -1.
         22    1    1    2    0    0 -0.39438592995E+01 -0.99052167102E+01  0.26192890085E+02  0.28279583364E+02  0.00000000000E+00 0.  1.
</event>
<event>
 6    1  0.1726037E-005  0.8211821E+02  0.7818608E-02  0.1390931E+00
          2   -1    0    0  502    0  0.00000000000E+00  0.00000000000E+00  0.80059038499E+03  0.80059038499E+03  0.00000000000E+00 0.  1.
          1   -1    0    0  501    0 -0.00000000000E+00 -0.00000000000E+00 -0.48834265336E+02  0.48834265336E+02  0.00000000000E+00 0. -1.
          2    1    1    2  501    0  0.64727355896E+02  0.50745665427E+02  0.42013093179E+03  0.42810600674E+03  0.00000000000E+00 0.  1.
          1    1    1    2  502    0  0.47460422338E+02 -0.69179715354E+02  0.16315829895E+03  0.18346377087E+03  0.00000000000E+00 0. -1.
         22    1    1    2    0    0 -0.26082479289E+02  0.15726401893E+01  0.14457794304E+03  0.14692021827E+03  0.00000000000E+00 0. -1.
         22    1    1    2    0    0 -0.86105298945E+02  0.16861409738E+02  0.23888945878E+02  0.90934654450E+02  0.00000000000E+00 0. -1.
</event>
<event>
 6    1  0.1726037E-005  0.6560175E+02  0.7818608E-02  0.1478183E+00
          2   -1    0    0  502    0  0.00000000000E+00  0.00000000000E+00  0.28214089436E+02  0.28214089436E+02  0.00000000000E+00 0.  1.
          1   -1    0    0  501    0 -0.00000000000E+00 -0.00000000000E+00 -0.53815276457E+03  0.53815276457E+03  0.00000000000E+00 0.  1.
          2    1    1    2  501    0  0.27057071303E+02  0.68137347577E+02 -0.19619588791E+03  0.20944595884E+03  0.00000000000E+00 0.  1.
          1    1    1    2  502    0 -0.15373055833E+02 -0.19691858332E+02 -0.11339841668E+03  0.11611761725E+03  0.00000000000E+00 0.  1.
         22    1    1    2    0    0 -0.10155654940E+02 -0.34777089383E+02 -0.21654332339E+03  0.21955316937E+03  0.00000000000E+00 0.  1.
         22    1    1    2    0    0 -0.15283605294E+01 -0.13668399862E+02  0.16198952837E+02  0.21250108558E+02  0.00000000000E+00 0.  1.
</event>
<event>
 6    1  0.1726037E-005  0.7499825E+02  0.7818608E-02  0.1425419E+00
          2   -1    0    0  502    0  0.00000000000E+00  0.00000000000E+00  0.60855716121E+03  0.60855716121E+03  0.00000000000E+00 0. -1.
          1   -1    0    0  501    0 -0.00000000000E+00 -0.00000000000E+00 -0.91215715938E+02  0.91215715938E+02  0.00000000000E+00 0. -1.
          2    1    1    2  501    0 -0.54827959337E+02  0.30720504704E+02  0.52809226167E+03  0.53181885202E+03  0.00000000000E+00 0. -1.
          1    1    1    2  502    0  0.21377531335E+02 -0.86370669206E+01 -0.24381639373E+02  0.33556848920E+02  0.00000000000E+00 0. -1.
         22    1    1    2    0    0  0.23818149429E+01  0.19851679140E+02  0.60828831267E+02  0.64030531158E+02  0.00000000000E+00 0. -1.
         22    1    1    2    0    0  0.31068613059E+02 -0.41935116923E+02 -0.47198008289E+02  0.70366645048E+02  0.00000000000E+00 0. -1.
</event>
<event>
 6    1  0.1726037E-005  0.3563241E+02  0.7818608E-02  0.1599055E+00
          2   -1    0    0  502    0  0.00000000000E+00  0.00000000000E+00  0.12960934833E+03  0.12960934833E+03  0.00000000000E+00 0. -1.
          1   -1    0    0  501    0 -0.00000000000E+00 -0.00000000000E+00 -0.21500856516E+03  0.21500856516E+03  0.00000000000E+00 0.  1.
          2    1    1    2  501    0 -0.24520212618E+02 -0.42582605656E+02  0.59597236006E+02  0.77242149574E+02  0.00000000000E+00 0. -1.
          1    1    1    2  502    0  0.38826029858E+02  0.31248599717E+01 -0.12765569128E+03  0.13346610379E+03  0.00000000000E+00 0.  1.
         22    1    1    2    0    0 -0.15511288064E+02  0.24819247842E+02  0.53812243609E+02  0.61256450135E+02  0.00000000000E+00 0. -1.
         22    1    1    2    0    0  0.12054708245E+01  0.14638497842E+02 -0.71153005159E+02  0.72653209992E+02  0.00000000000E+00 0.  1.
</event>
<event>
 6    1  0.1726037E-005  0.8642655E+02  0.7818608E-02  0.1405603E+00
          2   -1    0    0  502    0  0.00000000000E+00  0.00000000000E+00  0.65330696523E+02  0.65330696523E+02  0.00000000000E+00 0. -1.
          1   -1    0    0  501    0 -0.00000000000E+00 -0.00000000000E+00 -0.20483606349E+03  0.20483606349E+03  0.00000000000E+00 0. -1.
          2    1    1    2  501    0  0.53659746687E+01 -0.22067880972E+02  0.12204315551E+02  0.25782365539E+02  0.00000000000E+00 0. -1.
          1    1    1    2  502    0  0.21776166287E+02 -0.10711603298E+02 -0.97825521075E+02  0.10079073587E+03  0.00000000000E+00 0. -1.
         22    1    1    2    0    0 -0.27978746256E+02  0.50516066726E+02 -0.87929341155E+02  0.10519625600E+03  0.00000000000E+00 0. -1.
         22    1    1    2    0    0  0.83660529945E+00 -0.17736582456E+02  0.34045179711E+02  0.38397402610E+02  0.00000000000E+00 0. -1.
</event>
<event>
 6    1  0.1726037E-005  0.4940867E+02  0.7818608E-02  0.1510700E+00
          2   -1    0    0  502    0  0.00000000000E+00  0.00000000000E+00  0.50805466765E+02  0.50805466765E+02  0.00000000000E+00 0. -1.
          1   -1    0    0  501    0 -0.00000000000E+00 -0.00000000000E+00 -0.49421525337E+03  0.49421525337E+03  0.00000000000E+00 0. -1.
          2    1    1    2  501    0  0.23081884453E+02  0.20820209095E+02 -0.29677965075E+02  0.42977157976E+02  0.00000000000E+00 0. -1.
          1    1    1    2  502    0 -0.32067687089E+02 -0.12963294343E+02 -0.36566843031E+03  0.36730067313E+03  0.00000000000E+00 0. -1.
         22    1    1    2    0    0  0.20233696458E+02  0.34141739650E+01  0.40157552470E+02  0.45096430863E+02  0.00000000000E+00 0. -1.
         22    1    1    2    0    0 -0.11247893821E+02 -0.11271088717E+02 -0.88220943687E+02  0.89646458164E+02  0.00000000000E+00 0. -1.
</event>
<event>
 6    1  0.1726037E-005  0.7084472E+02  0.7818608E-02  0.1368617E+00
          2   -1    0    0  502    0  0.00000000000E+00  0.00000000000E+00  0.29051682628E+03  0.29051682628E+03  0.00000000000E+00 0. -1.
          1   -1    0    0  501    0 -0.00000000000E+00 -0.00000000000E+00 -0.44758161669E+02  0.44758161669E+02  0.00000000000E+00 0. -1.
          2    1    1    2  501    0  0.35975433720E+02  0.25590354753E+02  0.91823572152E+02  0.10188555585E+03  0.00000000000E+00 0. -1.
          1    1    1    2  502    0  0.42392997778E+01  0.26875680533E+02  0.56328072350E+01  0.27784930881E+02  0.00000000000E+00 0. -1.
         22    1    1    2    0    0 -0.57654227654E+02 -0.10306832196E+02  0.14887054908E+03  0.15997712693E+03  0.00000000000E+00 0. -1.
         22    1    1    2    0    0  0.17439494156E+02 -0.42159203089E+02 -0.56826385084E+00  0.45627374298E+02  0.00000000000E+00 0. -1.
</event>
<event>
 6    1  0.1726037E-005  0.5653535E+02  0.7818608E-02  0.1459883E+00
          2   -1    0    0  502    0  0.00000000000E+00  0.00000000000E+00  0.38159316293E+02  0.38159316293E+02  0.00000000000E+00 0.  1.
          1   -1    0    0  501    0 -0.00000000000E+00 -0.00000000000E+00 -0.49559484982E+03  0.49559484982E+03  0.00000000000E+00 0.  1.
          2    1    1    2  501    0  0.64118611985E+02  0.17555770499E+02 -0.22565894859E+03  0.23524744964E+03  0.00000000000E+00 0.  1.
          1    1    1    2  502    0 -0.25017456835E+02 -0.86873514113E+01 -0.13771311617E+03  0.14023639180E+03  0.00000000000E+00 0.  1.
         22    1    1    2    0    0 -0.25223804307E+02  0.12014571324E+02  0.24454166729E+02  0.37129455938E+02  0.00000000000E+00 0.  1.
         22    1    1    2    0    0 -0.13877350842E+02 -0.20882990411E+02 -0.11851763549E+03  0.12114086873E+03  0.00000000000E+00 0. -1.
</event>
<event>
 6    1  0.1726037E-005  0.8036771E+02  0.7818608E-02  0.1447179E+00
          2   -1    0    0  502    0  0.00000000000E+00  0.00000000000E+00  0.32531821754E+03  0.32531821754E+03  0.00000000000E+00 0.  1.
          1   -1    0    0  501    0 -0.00000000000E+00 -0.00000000000E+00 -0.13194628034E+03  0.13194628034E+03  0.00000000000E+00 0.  1.
          2    1    1    2  501    0 -0.99837822102E+01 -0.74936489198E+02  0.25527625145E+03  0.26623508010E+03  0.00000000000E+00 0.  1.
          1    1    1    2  502    0  0.13193388169E+02  0.38184617858E+02 -0.43927629851E+02  0.59680542865E+02  0.00000000000E+00 0.  1.
         22    1    1    2    0    0 -0.11686594909E+02 -0.84330223669E+00  0.51003960739E+02  0.52332510644E+02  0.00000000000E+00 0.  1.
         22    1    1    2    0    0  0.84769889504E+01  0.37595173577E+02 -0.68980645145E+02  0.79016364270E+02  0.00000000000E+00 0.  1.
</event>
<event>
 6    1  0.1726037E-005  0.2938329E+02  0.7818608E-02  0.1621527E+00
          2   -1    0    0  502    0  0.00000000000E+00  0.00000000000E+00  0.28325255574E+03  0.28325255574E+03  0.00000000000E+00 0. -1.
          1   -1    0    0  501    0 -0.00000000000E+00 -0.00000000000E+00 -0.78042598178E+02  0.78042598178E+02  0.00000000000E+00 0.  1.
          2    1    1    2  501    0 -0.17579455149E+02  0.17461407968E+02  0.14953118944E+03  0.15157016404E+03  0.00000000000E+00 0. -1.
          1    1    1    2  502    0 -0.14896659995E+02  0.22769949810E+02 -0.35925033279E+02  0.45066496530E+02  0.00000000000E+00 0.  1.
         22    1    1    2    0    0 -0.14768246832E+01 -0.24121973569E+02  0.11689037726E+03  0.11936251889E+03  0.00000000000E+00 0. -1.
         22    1    1    2    0    0  0.33952939827E+02 -0.16109384208E+02 -0.25286575865E+02  0.45295974451E+02  0.00000000000E+00 0. -1.
</event>
<event>
 6    1  0.1726037E-005  0.4182677E+02  0.7818608E-02  0.1521899E+00
          2   -1    0    0  502    0  0.00000000000E+00  0.00000000000E+00  0.68133510073E+02  0.68133510073E+02  0.00000000000E+00 0.  1.
          1   -1    0    0  501    0 -0.00000000000E+00 -0.00000000000E+00 -0.10114621056E+04  0.10114621056E+04  0.00000000000E+00 0.  1.
          2    1    1    2  501    0 -0.11418666029E+02  0.55969112885E+02  0.88556287362E+01  0.57804408926E+02  0.00000000000E+00 0.  1.
          1    1    1    2  502    0 -0.39643024531E+01 -0.61721004891E+02 -0.87096945987E+03  0.87316264130E+03  0.00000000000E+00 0.  1.
         22    1    1    2    0    0 -0.76316034837E+01  0.15137366593E+02  0.30114740769E+02  0.34558339814E+02  0.00000000000E+00 0.  1.
         22    1    1    2    0    0  0.23014571966E+02 -0.93854745867E+01 -0.11132950520E+03  0.11407022567E+03  0.00000000000E+00 0.  1.
</event>
<event>
 6    1  0.1726037E-005  0.5653301E+02  0.7818608E-02  0.1422528E+00
          2   -1    0    0  502    0  0.00000000000E+00  0.00000000000E+00  0.40513215705E+03  0.40513215705E+03  0.00000000000E+00 0. -1.
          1   -1    0    0  501    0 -0.00000000000E+00 -0.00000000000E+00 -0.28260178541E+02  0.28260178541E+02  0.00000000000E+00 0. -1.
          2    1    1    2  501    0 -0.62063146105E+01  0.33234603528E+02  0.72213999826E+02  0.79736559894E+02  0.00000000000E+00 0. -1.
          1    1    1    2  502    0 -0.32407562382E+02 -0.14084809507E+02  0.27755461007E+02  0.44933256883E+02  0.00000000000E+00 0. -1.
         22    1    1    2    0    0 -0.90500580114E+01 -0.29580704306E+02  0.36508128302E+01  0.31148837082E+02  0.00000000000E+00 0.  1.
         22    1    1    2    0    0  0.47663935004E+02  0.10430910284E+02  0.27325170484E+03  0.27757368173E+03  0.00000000000E+00 0. -1.
</event>
<event>
 6    1  0.1726037E-005  0.2033528E+03  0.7818608E-02  0.1286658E+00
          2   -1    0    0  502    0  0.00000000000E+00  0.00000000000E+00  0.10775635664E+03  0.10775635664E+03  0.00000000000E+00 0. -1.
          1   -1    0    0  501    0 -0.00000000000E+00 -0.00000000000E+00 -0.48324701429E+03  0.48324701429E+03  0.00000000000E+00 0. -1.
          2    1    1    2  501    0 -0.19444289836E+03  0.41146284101E+02 -0.25368000673E+03  0.32226480297E+03  0.00000000000E+00 0. -1.
          1    1    1    2  502    0  0.25359893274E+02 -0.10581786584E+02 -0.45642450638E+01  0.27855533152E+02  0.00000000000E+00 0. -1.
         22    1    1    2    0    0  0.72032129915E+00  0.10518148238E+02  0.18130122574E+02  0.20972640503E+02  0.00000000000E+00 0.  1.
         22    1    1    2    0    0  0.16836268379E+03 -0.41082645756E+02 -0.13537652843E+03  0.21991039431E+03  0.00000000000E+00 0. -1.
</event>
<event>
 6    1  0.1726037E-005  0.6084650E+02  0.7818608E-02  0.1461799E+00
          2   -1    0    0  502    0  0.00000000000E+00  0.00000000000E+00  0.10642564111E+03  0.10642564111E+03  0.00000000000E+00 0.  1.
          1   -1    0    0  501    0 -0.00000000000E+00 -0.00000000000E+00 -0.23670849247E+03  0.23670849247E+03  0.00000000000E+00 0. -1.
          2    1    1    2  501    0 -0.50252033413E+02 -0.89771160173E+00  0.44294975305E+02  0.66993414494E+02  0.00000000000E+00 0.  1.
          1    1    1    2  502    0  0.40660179207E+01  0.22345786440E+02 -0.13681728226E+03  0.13868970906E+03  0.00000000000E+00 0. -1.
         22    1    1    2    0    0  0.21795985513E+02  0.16112047401E+00  0.44182565671E+02  0.49266520615E+02  0.00000000000E+00 0. -1.
         22    1    1    2    0    0  0.24390029979E+02 -0.21609195312E+02 -0.81943110079E+02  0.88184489418E+02  0.00000000000E+00 0. -1.
</event>
<event>
 6    1  0.1726037E-005  0.9393331E+02  0.7818608E-02  0.1425666E+00
          2   -1    0    0  502    0  0.00000000000E+00  0.00000000000E+00  0.16127004519E+03  0.16127004519E+03  0.00000000000E+00 0. -1.
          1   -1    0    0  501    0 -0.00000000000E+00 -0.00000000000E+00 -0.13010862364E+03  0.13010862364E+03  0.00000000000E+00 0.  1.
          2    1    1    2  501    0 -0.56563990668E+01 -0.82923652542E+02  0.79763941957E+02  0.11519814859E+03  0.00000000000E+00 0. -1.
          1    1    1    2  502    0  0.80061376208E+01  0.24939480031E+02 -0.14401631303E+02  0.29891184118E+02  0.00000000000E+00 0.  1.
         22    1    1    2    0    0  0.49515483272E+01 -0.88467072031E+01  0.42849560268E+02  0.44032566065E+02  0.00000000000E+00 0. -1.
         22    1    1    2    0    0 -0.73012868812E+01  0.66830879714E+02 -0.77050449373E+02  0.10225677006E+03  0.00000000000E+00 0.  1.
</event>
<event>
 6    1  0.1726037E-005  0.4597798E+02  0.7818608E-02  0.1473951E+00
          2   -1    0    0  502    0  0.00000000000E+00  0.00000000000E+00  0.29833034829E+03  0.29833034829E+03  0.00000000000E+00 0. -1.
          1   -1    0    0  501    0 -0.00000000000E+00 -0.00000000000E+00 -0.96317764156E+02  0.96317764156E+02  0.00000000000E+00 0. -1.
          2    1    1    2  501    0 -0.59401058787E+02  0.41713994051E+02  0.80188669784E+02  0.10816083324E+03  0.00000000000E+00 0. -1.
          1    1    1    2  502    0  0.49871708065E+02  0.11071735133E+02 -0.45805545601E+02  0.68614273966E+02  0.00000000000E+00 0. -1.
         22    1    1    2    0    0 -0.99896560665E+01 -0.28449508893E+02  0.18131593263E+03  0.18380597164E+03  0.00000000000E+00 0. -1.
         22    1    1    2    0    0  0.19519006789E+02 -0.24336220291E+02 -0.13686472681E+02  0.34067033603E+02  0.00000000000E+00 0. -1.
</event>
<event>
 6    1  0.1726037E-005  0.4970471E+02  0.7818608E-02  0.1496709E+00
          2   -1    0    0  502    0  0.00000000000E+00  0.00000000000E+00  0.98574066053E+02  0.98574066053E+02  0.00000000000E+00 0. -1.
          1   -1    0    0  501    0 -0.00000000000E+00 -0.00000000000E+00 -0.10986035724E+03  0.10986035724E+03  0.00000000000E+00 0. -1.
          2    1    1    2  501    0  0.30597941851E+01 -0.22359420663E+02  0.25867835559E+02  0.34328573366E+02  0.00000000000E+00 0. -1.
          1    1    1    2  502    0 -0.13867854336E+01  0.32401845466E+02 -0.38776888981E+02  0.50551457768E+02  0.00000000000E+00 0. -1.
         22    1    1    2    0    0 -0.22825743892E+02  0.86342022810E+01 -0.55065667370E+02  0.60231152705E+02  0.00000000000E+00 0. -1.
         22    1    1    2    0    0  0.21152735141E+02 -0.18676627084E+02  0.56688429608E+02  0.63323239451E+02  0.00000000000E+00 0.  1.
</event>
<event>
 6    1  0.1726037E-005  0.7676569E+02  0.7818608E-02  0.1392913E+00
          2   -1    0    0  502    0  0.00000000000E+00  0.00000000000E+00  0.42290843130E+02  0.42290843130E+02  0.00000000000E+00 0. -1.
          1   -1    0    0  501    0 -0.00000000000E+00 -0.00000000000E+00 -0.32499821491E+03  0.32499821491E+03  0.00000000000E+00 0. -1.
          2    1    1    2  501    0 -0.95849777429E+01 -0.59328460135E+02 -0.21776064957E+02  0.63921318708E+02  0.00000000000E+00 0. -1.
          1    1    1    2  502    0 -0.14976615509E+02  0.17649562206E+02 -0.34109371218E+02  0.41222024005E+02  0.00000000000E+00 0. -1.
         22    1    1    2    0    0 -0.12601878131E+02  0.28307628586E+02  0.92473144771E+00  0.30999746722E+02  0.00000000000E+00 0.  1.
         22    1    1    2    0    0  0.37163471383E+02  0.13371269343E+02 -0.22774666705E+03  0.23114596860E+03  0.00000000000E+00 0. -1.
</event>
<event>
 6    1  0.1726037E-005  0.1364377E+03  0.7818608E-02  0.1334267E+00
          2   -1    0    0  502    0  0.00000000000E+00  0.00000000000E+00  0.12497046763E+03  0.12497046763E+03  0.00000000000E+00 0. -1.
          1   -1    0    0  501    0 -0.00000000000E+00 -0.00000000000E+00 -0.53155846623E+03  0.53155846623E+03  0.00000000000E+00 0. -1.
          2    1    1    2  501    0 -0.11736702171E+03  0.60546179768E+02 -0.61429845416E+02  0.14565192611E+03  0.00000000000E+00 0. -1.
          1    1    1    2  502    0  0.11666741894E+03 -0.32859634313E+02 -0.36172368314E+03  0.38149058331E+03  0.00000000000E+00 0. -1.
         22    1    1    2    0    0 -0.48031597751E+01 -0.13910661742E+02  0.71235423334E+02  0.72739689245E+02  0.00000000000E+00 0. -1.
         22    1    1    2    0    0  0.55027625463E+01 -0.13775883713E+02 -0.54669893375E+02  0.56646735205E+02  0.00000000000E+00 0.  1.
</event>
<event>
 6    1  0.1726037E-005  0.1786818E+03  0.7818608E-02  0.1275355E+00
          2   -1    0    0  502    0  0.00000000000E+00  0.00000000000E+00  0.13886805179E+03  0.13886805179E+03  0.00000000000E+00 0.  1.
          1   -1    0    0  501    0 -0.00000000000E+00 -0.00000000000E+00 -0.22916546615E+03  0.22916546615E+03  0.00000000000E+00 0.  1.
          2    1    1    2  501    0 -0.89740527433E+02 -0.76438207895E+02  0.28552345941E+02  0.12129055342E+03  0.00000000000E+00 0.  1.
          1    1    1    2  502    0  0.24497667640E+02  0.12776700978E+02  0.25318366436E+02  0.37475318367E+02  0.00000000000E+00 0.  1.
         22    1    1    2    0    0  0.58335850231E+02  0.81644226335E+02 -0.15685249247E+03  0.18620299543E+03  0.00000000000E+00 0.  1.
         22    1    1    2    0    0  0.69070095614E+01 -0.17982719419E+02  0.12684365731E+02  0.23064650718E+02  0.00000000000E+00 0.  1.
</event>
<event>
 6    1  0.1726037E-005  0.1432103E+03  0.7818608E-02  0.1318059E+00
          2   -1    0    0  502    0  0.00000000000E+00  0.00000000000E+00  0.27963216258E+02  0.27963216258E+02  0.00000000000E+00 0. -1.
          1   -1    0    0  501    0 -0.00000000000E+00 -0.00000000000E+00 -0.89597118927E+03  0.89597118927E+03  0.00000000000E+00 0.  1.
          2    1    1    2  501    0  0.21628857039E+02  0.98980960322E+02 -0.38531537715E+03  0.39841307437E+03  0.00000000000E+00 0. -1.
          1    1    1    2  502    0  0.37103027147E+02 -0.41625601216E+02 -0.12057294085E+03  0.13284261125E+03  0.00000000000E+00 0.  1.
         22    1    1    2    0    0 -0.97774037051E+01  0.13850590756E+02  0.32217886046E+01  0.17257358121E+02  0.00000000000E+00 0. -1.
         22    1    1    2    0    0 -0.48954480481E+02 -0.71205949862E+02 -0.36534144362E+03  0.37542136178E+03  0.00000000000E+00 0.  1.
</event>
<event>
 6    1  0.1726037E-005  0.6050027E+02  0.7818608E-02  0.1418828E+00
          2   -1    0    0  502    0  0.00000000000E+00  0.00000000000E+00  0.10965726792E+03  0.10965726792E+03  0.00000000000E+00 0. -1.
          1   -1    0    0  501    0 -0.00000000000E+00 -0.00000000000E+00 -0.52546688041E+03  0.52546688041E+03  0.00000000000E+00 0.  1.
          2    1    1    2  501    0  0.37857770753E+02  0.30379502112E+02  0.69589471339E+02  0.84845857154E+02  0.00000000000E+00 0. -1.
          1    1    1    2  502    0 -0.93820897737E+01 -0.71474233631E+02 -0.35241684893E+03  0.35971408798E+03  0.00000000000E+00 0.  1.
         22    1    1    2    0    0  0.12373316271E+01  0.11215305426E+02  0.24803102384E+02  0.27248999123E+02  0.00000000000E+00 0. -1.
         22    1    1    2    0    0 -0.29713012606E+02  0.29879426094E+02 -0.15778533728E+03  0.16331520407E+03  0.00000000000E+00 0.  1.
</event>
<event>
 6    1  0.1726037E-005  0.2340588E+02  0.7818608E-02  0.1691090E+00
          2   -1    0    0  502    0  0.00000000000E+00  0.00000000000E+00  0.87063113093E+02  0.87063113093E+02  0.00000000000E+00 0. -1.
          1   -1    0    0  501    0 -0.00000000000E+00 -0.00000000000E+00 -0.16735378997E+03  0.16735378997E+03  0.00000000000E+00 0. -1.
          2    1    1    2  501    0  0.21297051705E+02  0.50971205248E+02 -0.12113107378E+02  0.56554005571E+02  0.00000000000E+00 0. -1.
          1    1    1    2  502    0 -0.13879719176E+02 -0.38038110057E+02 -0.60371360491E+02  0.72692816623E+02  0.00000000000E+00 0. -1.
         22    1    1    2    0    0  0.30302590668E+01 -0.10954702691E+02 -0.65513073049E+02  0.66491734234E+02  0.00000000000E+00 0.  1.
         22    1    1    2    0    0 -0.10447591596E+02 -0.19783924997E+01  0.57706864039E+02  0.58678346638E+02  0.00000000000E+00 0. -1.
</event>
<event>
 6    1  0.1726037E-005  0.6319801E+02  0.7818608E-02  0.1428167E+00
          2   -1    0    0  502    0  0.00000000000E+00  0.00000000000E+00  0.19979559249E+03  0.19979559249E+03  0.00000000000E+00 0. -1.
          1   -1    0    0  501    0 -0.00000000000E+00 -0.00000000000E+00 -0.78389225402E+02  0.78389225402E+02  0.00000000000E+00 0. -1.
          2    1    1    2  501    0  0.33867846954E+02 -0.55053656949E+02  0.62846011768E+02  0.90152966651E+02  0.00000000000E+00 0. -1.
          1    1    1    2  502    0 -0.10104172247E+02  0.27589420419E+02 -0.19796185502E+02  0.35428228523E+02  0.00000000000E+00 0. -1.
         22    1    1    2    0    0  0.77181129343E+01  0.33447945712E+02 -0.26240609209E+02  0.43207683475E+02  0.00000000000E+00 0. -1.
         22    1    1    2    0    0 -0.31481787641E+02 -0.59837091824E+01  0.10459715003E+03  0.10939593924E+03  0.00000000000E+00 0. -1.
</event>
<event>
 6    1  0.3286046E-005  0.1199077E+03  0.7818608E-02  0.1346728E+00
          2   -1    0    0  502    0  0.00000000000E+00  0.00000000000E+00  0.38161222974E+03  0.38161222974E+03  0.00000000000E+00 0.  1.
          1   -1    0    0  501    0 -0.00000000000E+00 -0.00000000000E+00 -0.17188926855E+04  0.17188926855E+04  0.00000000000E+00 0.  1.
          2    1    1    2  501    0  0.46349733953E+02 -0.24846111368E+03  0.25450893242E+03  0.35868651986E+03  0.00000000000E+00 0.  1.
          1    1    1    2  502    0  0.50824099389E+01  0.17604739918E+03 -0.15784640730E+04  0.15882592192E+04  0.00000000000E+00 0.  1.
         22    1    1    2    0    0 -0.41826641341E+02  0.66213245440E+02  0.47548111497E+02  0.91621420555E+02  0.00000000000E+00 0.  1.
         22    1    1    2    0    0 -0.96055025507E+01  0.62004690611E+01 -0.60873426736E+02  0.61937755678E+02  0.00000000000E+00 0. -1.
</event>
<event>
 6    1  0.1726037E-005  0.2120249E+03  0.7818608E-02  0.1263471E+00
          2   -1    0    0  502    0  0.00000000000E+00  0.00000000000E+00  0.91977147783E+02  0.91977147783E+02  0.00000000000E+00 0. -1.
          1   -1    0    0  501    0 -0.00000000000E+00 -0.00000000000E+00 -0.70412356551E+03  0.70412356551E+03  0.00000000000E+00 0.  1.
          2    1    1    2  501    0  0.13954875558E+03  0.79050188330E+01 -0.76798336319E+01  0.13998330026E+03  0.00000000000E+00 0. -1.
          1    1    1    2  502    0 -0.16086984758E+02  0.60290930122E+02 -0.21338913428E+03  0.22232568444E+03  0.00000000000E+00 0.  1.
         22    1    1    2    0    0 -0.13669035968E+03 -0.62229145016E+02 -0.39145205498E+03  0.41927488867E+03  0.00000000000E+00 0.  1.
         22    1    1    2    0    0  0.13228588854E+02 -0.59668039389E+01  0.37460516813E+00  0.14516839923E+02  0.00000000000E+00 0.  1.
</event>
<event>
 6    1  0.1726037E-005  0.1875982E+03  0.7818608E-02  0.1197423E+00
          2   -1    0    0  502    0  0.00000000000E+00  0.00000000000E+00  0.64603835557E+03  0.64603835557E+03  0.00000000000E+00 0.  1.
          1   -1    0    0  501    0 -0.00000000000E+00 -0.00000000000E+00 -0.38656846842E+03  0.38656846842E+03  0.00000000000E+00 0. -1.
          2    1    1    2  501    0 -0.22259572190E+03  0.36774798660E+02  0.39278603049E+03  0.45297031577E+03  0.00000000000E+00 0.  1.
          1    1    1    2  502    0  0.16833522081E+03  0.39683782727E+02 -0.30230503433E+03  0.34828132732E+03  0.00000000000E+00 0. -1.
         22    1    1    2    0    0  0.10937799562E+02 -0.69062801938E+01 -0.20878250947E+02  0.24560812852E+02  0.00000000000E+00 0. -1.
         22    1    1    2    0    0  0.43322701528E+02 -0.69552301194E+02  0.18986714193E+03  0.20679436804E+03  0.00000000000E+00 0.  1.
</event>
<event>
 6    1  0.1726037E-005  0.7021441E+02  0.7818608E-02  0.1402162E+00
          2   -1    0    0  502    0  0.00000000000E+00  0.00000000000E+00  0.26053130850E+03  0.26053130850E+03  0.00000000000E+00 0.  1.
          1   -1    0    0  501    0 -0.00000000000E+00 -0.00000000000E+00 -0.83546834006E+02  0.83546834006E+02  0.00000000000E+00 0. -1.
          2    1    1    2  501    0 -0.95589999573E+01  0.40359349634E+02  0.58418952849E+02  0.71645136855E+02  0.00000000000E+00 0.  1.
          1    1    1    2  502    0  0.28798909814E+02 -0.48393546215E+02 -0.39040351603E+02  0.68523438144E+02  0.00000000000E+00 0. -1.
         22    1    1    2    0    0 -0.18323668960E+02  0.29770784669E+02  0.17348695282E+03  0.17697395080E+03  0.00000000000E+00 0.  1.
         22    1    1    2    0    0 -0.91624089594E+00 -0.21736588088E+02 -0.15881079569E+02  0.26935616707E+02  0.00000000000E+00 0. -1.
</event>
<event>
 6    1  0.1726037E-005  0.6208393E+02  0.7818608E-02  0.1504776E+00
          2   -1    0    0  502    0  0.00000000000E+00  0.00000000000E+00  0.28718604417E+03  0.28718604417E+03  0.00000000000E+00 0.  1.
          1   -1    0    0  501    0 -0.00000000000E+00 -0.00000000000E+00 -0.19400398950E+03  0.19400398950E+03  0.00000000000E+00 0. -1.
          2    1    1    2  501    0 -0.42730114809E+02  0.40406598398E+02  0.24565558204E+03  0.25259695345E+03  0.00000000000E+00 0.  1.
          1    1    1    2  502    0  0.24589933906E+02 -0.20276996036E+02 -0.75600596619E+02  0.82044327207E+02  0.00000000000E+00 0. -1.
         22    1    1    2    0    0  0.26059209811E+02 -0.12194579347E+02 -0.10888940346E+03  0.11262633958E+03  0.00000000000E+00 0.  1.
         22    1    1    2    0    0 -0.79190289080E+01 -0.79350230147E+01  0.32016472703E+02  0.33922413437E+02  0.00000000000E+00 0.  1.
</event>
<event>
 6    1  0.1726037E-005  0.2190339E+03  0.7818608E-02  0.1271071E+00
          2   -1    0    0  502    0  0.00000000000E+00  0.00000000000E+00  0.32483344837E+03  0.32483344837E+03  0.00000000000E+00 0. -1.
          1   -1    0    0  501    0 -0.00000000000E+00 -0.00000000000E+00 -0.16761086317E+03  0.16761086317E+03  0.00000000000E+00 0.  1.
          2    1    1    2  501    0 -0.39794415689E+02 -0.20582639005E+03  0.11580494262E+03  0.23949714632E+03  0.00000000000E+00 0. -1.
          1    1    1    2  502    0 -0.37023730550E+01  0.30754925863E+02  0.87615402889E+01  0.32192198112E+02  0.00000000000E+00 0.  1.
         22    1    1    2    0    0  0.45978690453E+02  0.18615337474E+03  0.60684770253E+01  0.19184354385E+03  0.00000000000E+00 0.  1.
         22    1    1    2    0    0 -0.24819017093E+01 -0.11081910556E+02  0.26587625268E+02  0.28911423263E+02  0.00000000000E+00 0. -1.
</event>
<event>
 6    1  0.1726037E-005  0.1397895E+03  0.7818608E-02  0.1279354E+00
          2   -1    0    0  502    0  0.00000000000E+00  0.00000000000E+00  0.21720691850E+03  0.21720691850E+03  0.00000000000E+00 0.  1.
          1   -1    0    0  501    0 -0.00000000000E+00 -0.00000000000E+00 -0.24156032063E+03  0.24156032063E+03  0.00000000000E+00 0.  1.
          2    1    1    2  501    0 -0.69965232317E+02 -0.10171344074E+03  0.92713943555E+02  0.15439116908E+03  0.00000000000E+00 0.  1.
          1    1    1    2  502    0  0.27207015330E+02  0.10778031077E+03 -0.13083820751E+03  0.17168416822E+03  0.00000000000E+00 0.  1.
         22    1    1    2    0    0  0.20199283710E+02  0.23601034936E+02 -0.49978984761E+02  0.58846570250E+02  0.00000000000E+00 0.  1.
         22    1    1    2    0    0  0.22558933277E+02 -0.29667904965E+02  0.63749846584E+02  0.73845331572E+02  0.00000000000E+00 0.  1.
</event>
<event>
 6    1  0.1930670E-005  0.7249663E+02  0.7818608E-02  0.1407193E+00
          2   -1    0    0  502    0  0.00000000000E+00  0.00000000000E+00  0.83795235282E+02  0.83795235282E+02  0.00000000000E+00 0. -1.
          1   -1    0    0  501    0 -0.00000000000E+00 -0.00000000000E+00 -0.16001435153E+04  0.16001435153E+04  0.00000000000E+00 0.  1.
          2    1    1    2  501    0 -0.67262875459E+02  0.43422390329E+02 -0.30022837191E+02  0.85505374976E+02  0.00000000000E+00 0. -1.
          1    1    1    2  502    0  0.11148482792E+03 -0.33189286967E+02 -0.14522276193E+04  0.14568786682E+04  0.00000000000E+00 0.  1.
         22    1    1    2    0    0 -0.11256413993E+00 -0.18129137660E+02 -0.77247455617E+02  0.79346378004E+02  0.00000000000E+00 0. -1.
         22    1    1    2    0    0 -0.44109388321E+02  0.78960342981E+01  0.43149632093E+02  0.62208329390E+02  0.00000000000E+00 0.  1.
</event>
<event>
 6    1  0.1726037E-005  0.2995126E+02  0.7818608E-02  0.1631573E+00
          2   -1    0    0  502    0  0.00000000000E+00  0.00000000000E+00  0.10384265383E+03  0.10384265383E+03  0.00000000000E+00 0.  1.
          1   -1    0    0  501    0 -0.00000000000E+00 -0.00000000000E+00 -0.12832204080E+03  0.12832204080E+03  0.00000000000E+00 0.  1.
          2    1    1    2  501    0 -0.18507097542E+02 -0.36633720519E+02  0.20062051790E+02  0.45684002238E+02  0.00000000000E+00 0.  1.
          1    1    1    2  502    0  0.43266991830E+02  0.29220557502E+01 -0.36839272726E+02  0.56900817277E+02  0.00000000000E+00 0.  1.
         22    1    1    2    0    0 -0.17312614195E+02  0.17918443371E+02 -0.65036387199E+02  0.69645738441E+02  0.00000000000E+00 0.  1.
         22    1    1    2    0    0 -0.74472800930E+01  0.15793221397E+02  0.57334221160E+02  0.59934136674E+02  0.00000000000E+00 0.  1.
</event>
<event>
 6    1  0.1726037E-005  0.3636209E+02  0.7818608E-02  0.1550561E+00
          2   -1    0    0  502    0  0.00000000000E+00  0.00000000000E+00  0.50899604104E+02  0.50899604104E+02  0.00000000000E+00 0.  1.
          1   -1    0    0  501    0 -0.00000000000E+00 -0.00000000000E+00 -0.44383999377E+03  0.44383999377E+03  0.00000000000E+00 0.  1.
          2    1    1    2  501    0  0.15577229806E+02 -0.20433832370E+02 -0.13506165463E+03  0.13748397051E+03  0.00000000000E+00 0.  1.
          1    1    1    2  502    0 -0.19102768445E+02 -0.13246921073E+02 -0.22637734434E+03  0.22756778926E+03  0.00000000000E+00 0.  1.
         22    1    1    2    0    0  0.17441656610E+02  0.24942189147E+02  0.43398206537E+02  0.53006872341E+02  0.00000000000E+00 0.  1.
         22    1    1    2    0    0 -0.13916117971E+02  0.87385642961E+01 -0.74899597229E+02  0.76680965764E+02  0.00000000000E+00 0.  1.
</event>
<event>
 6    1  0.1726037E-005  0.1001792E+03  0.7818608E-02  0.1373821E+00
          2   -1    0    0  502    0  0.00000000000E+00  0.00000000000E+00  0.40009443615E+02  0.40009443615E+02  0.00000000000E+00 0.  1.
          1   -1    0    0  501    0 -0.00000000000E+00 -0.00000000000E+00 -0.77635134960E+03  0.77635134960E+03  0.00000000000E+00 0. -1.
          2    1    1    2  501    0 -0.54224371435E+02 -0.22123309932E+02 -0.73359693418E+02  0.93868886849E+02  0.00000000000E+00 0.  1.
          1    1    1    2  502    0  0.47534612735E+02 -0.47652885072E+01 -0.54809494769E+03  0.55017299013E+03  0.00000000000E+00 0. -1.
         22    1    1    2    0    0 -0.18473059649E+02 -0.44713398124E+01  0.22334995285E+02  0.29327441533E+02  0.00000000000E+00 0.  1.
         22    1    1    2    0    0  0.25162818349E+02  0.31359938251E+02 -0.13722226017E+03  0.14299147471E+03  0.00000000000E+00 0.  1.
</event>
<event>
 6    1  0.1726037E-005  0.6886127E+02  0.7818608E-02  0.1482145E+00
          2   -1    0    0  502    0  0.00000000000E+00  0.00000000000E+00  0.60382179478E+02  0.60382179478E+02  0.00000000000E+00 0.  1.
          1   -1    0    0  501    0 -0.00000000000E+00 -0.00000000000E+00 -0.78284447365E+03  0.78284447365E+03  0.00000000000E+00 0. -1.
          2    1    1    2  501    0 -0.71094812519E+02 -0.78594478632E+01  0.32763207098E+01  0.71602915898E+02  0.00000000000E+00 0.  1.
          1    1    1    2  502    0  0.53718979825E+02 -0.45132628442E+02 -0.51171668693E+03  0.51650426002E+03  0.00000000000E+00 0. -1.
         22    1    1    2    0    0  0.19657018392E+02  0.63399561770E+02 -0.22804451877E+03  0.23750832690E+03  0.00000000000E+00 0. -1.
         22    1    1    2    0    0 -0.22811856985E+01 -0.10407485465E+02  0.14022590817E+02  0.17611150306E+02  0.00000000000E+00 0.  1.
</event>
<event>
 6    1  0.1726037E-005  0.1221980E+03  0.7818608E-02  0.1355653E+00
          2   -1    0    0  502    0  0.00000000000E+00  0.00000000000E+00  0.28722380733E+03  0.28722380733E+03  0.00000000000E+00 0. -1.
          1   -1    0    0  501    0 -0.00000000000E+00 -0.00000000000E+00 -0.32079499084E+03  0.32079499084E+03  0.00000000000E+00 0.  1.
          2    1    1    2  501    0  0.84989985372E+02  0.10149863451E+03  0.19336822214E+03  0.23434278260E+03  0.00000000000E+00 0. -1.
          1    1    1    2  502    0 -0.51590274109E+02 -0.81353677770E+02 -0.21912460346E+03  0.23936492874E+03  0.00000000000E+00 0.  1.
         22    1    1    2    0    0 -0.12696596396E+02 -0.63166003608E+01  0.60218335960E+02  0.61865588060E+02  0.00000000000E+00 0. -1.
         22    1    1    2    0    0 -0.20703114867E+02 -0.13828356376E+02 -0.68033138151E+02  0.72445498769E+02  0.00000000000E+00 0. -1.
</event>
<event>
 6    1  0.1726037E-005  0.1830730E+03  0.7818608E-02  0.1169854E+00
          2   -1    0    0  502    0  0.00000000000E+00  0.00000000000E+00  0.36783350552E+03  0.36783350552E+03  0.00000000000E+00 0.  1.
          1   -1    0    0  501    0 -0.00000000000E+00 -0.00000000000E+00 -0.22512333071E+03  0.22512333071E+03  0.00000000000E+00 0.  1.
          2    1    1    2  501    0 -0.91191676217E+02  0.44607188663E+02  0.21296726783E+03  0.23592537011E+03  0.00000000000E+00 0.  1.
          1    1    1    2  502    0  0.14626066253E+03 -0.12357379944E+02 -0.14007843981E+03  0.20289616936E+03  0.00000000000E+00 0.  1.
         22    1    1    2    0    0  0.14627204068E+02  0.11728807379E+01 -0.26707106988E+02  0.30472943930E+02  0.00000000000E+00 0. -1.
         22    1    1    2    0    0 -0.69696190377E+02 -0.33422689456E+02  0.96528453770E+02  0.12366235284E+03  0.00000000000E+00 0.  1.
</event>
<event>
 6    1  0.1726037E-005  0.8188617E+02  0.7818608E-02  0.1417181E+00
          2   -1    0    0  502    0  0.00000000000E+00  0.00000000000E+00  0.58808391020E+02  0.58808391020E+02  0.00000000000E+00 0. -1.
          1   -1    0    0  501    0 -0.00000000000E+00 -0.00000000000E+00 -0.19473570113E+03  0.19473570113E+03  0.00000000000E+00 0. -1.
          2    1    1    2  501    0 -0.15237424186E+02 -0.13128194907E+02  0.22760253478E+02  0.30373635536E+02  0.00000000000E+00 0. -1.
          1    1    1    2  502    0  0.69175804623E+00  0.31776631041E+02 -0.30106210934E+02  0.43779181654E+02  0.00000000000E+00 0. -1.
         22    1    1    2    0    0 -0.17205532070E+02  0.28009902428E+01  0.19661495657E+02  0.26276420830E+02  0.00000000000E+00 0.  1.
         22    1    1    2    0    0  0.31751198210E+02 -0.21449426377E+02 -0.14824284831E+03  0.15311485413E+03  0.00000000000E+00 0. -1.
</event>
<event>
 6    1  0.1726037E-005  0.2196737E+03  0.7818608E-02  0.1271836E+00
          2   -1    0    0  502    0  0.00000000000E+00  0.00000000000E+00  0.20051850568E+03  0.20051850568E+03  0.00000000000E+00 0. -1.
          1   -1    0    0  501    0 -0.00000000000E+00 -0.00000000000E+00 -0.50415250740E+03  0.50415250740E+03  0.00000000000E+00 0. -1.
          2    1    1    2  501    0 -0.14745734680E+03  0.16174711455E+03  0.45605413126E+02  0.22357471212E+03  0.00000000000E+00 0. -1.
          1    1    1    2  502    0  0.12898810004E+03 -0.13111984594E+03 -0.28530995474E+03  0.33945856039E+03  0.00000000000E+00 0. -1.
         22    1    1    2    0    0  0.10576815256E+02 -0.22832759891E+02 -0.10040634168E+03  0.10351153266E+03  0.00000000000E+00 0. -1.
         22    1    1    2    0    0  0.78924315046E+01 -0.77945087162E+01  0.36476881563E+02  0.38126207912E+02  0.00000000000E+00 0. -1.
</event>
<event>
 6    1  0.1726037E-005  0.5486145E+02  0.7818608E-02  0.1487285E+00
          2   -1    0    0  502    0  0.00000000000E+00  0.00000000000E+00  0.20811450301E+03  0.20811450301E+03  0.00000000000E+00 0.  1.
          1   -1    0    0  501    0 -0.00000000000E+00 -0.00000000000E+00 -0.69601344754E+02  0.69601344754E+02  0.00000000000E+00 0.  1.
          2    1    1    2  501    0  0.20761550313E+02 -0.28508867182E+02  0.10622416278E+03  0.11192573537E+03  0.00000000000E+00 0.  1.
          1    1    1    2  502    0 -0.25309886569E+02 -0.48641294581E+01 -0.11722099616E+02  0.28313560937E+02  0.00000000000E+00 0.  1.
         22    1    1    2    0    0 -0.12661577317E+02  0.21891706541E+02 -0.41992476774E+02  0.49019694624E+02  0.00000000000E+00 0.  1.
         22    1    1    2    0    0  0.17209913573E+02  0.11481290100E+02  0.86003571865E+02  0.88456856835E+02  0.00000000000E+00 0. -1.
</event>
<event>
 6    1  0.1726037E-005  0.4832575E+02  0.7818608E-02  0.1565725E+00
          2   -1    0    0  502    0  0.00000000000E+00  0.00000000000E+00  0.24207538974E+02  0.24207538974E+02  0.00000000000E+00 0.  1.
          1   -1    0    0  501    0 -0.00000000000E+00 -0.00000000000E+00 -0.50850203498E+03  0.50850203498E+03  0.00000000000E+00 0.  1.
          2    1    1    2  501    0  0.56039150124E+01 -0.20775410037E+02 -0.17196399551E+03  0.17330504112E+03  0.00000000000E+00 0.  1.
          1    1    1    2  502    0  0.43080521968E+02 -0.62842033823E+01 -0.86379391679E+02  0.96730666761E+02  0.00000000000E+00 0.  1.
         22    1    1    2    0    0 -0.48377063881E+02  0.16370994610E+02 -0.23979939663E+03  0.24517769148E+03  0.00000000000E+00 0.  1.
         22    1    1    2    0    0 -0.30737309954E+00  0.10688618810E+02  0.13848287810E+02  0.17496174598E+02  0.00000000000E+00 0.  1.
</event>
<event>
 6    1  0.1726037E-005  0.4472487E+02  0.7818608E-02  0.1542757E+00
          2   -1    0    0  502    0  0.00000000000E+00  0.00000000000E+00  0.77417868727E+02  0.77417868727E+02  0.00000000000E+00 0. -1.
          1   -1    0    0  501    0 -0.00000000000E+00 -0.00000000000E+00 -0.23882856611E+03  0.23882856611E+03  0.00000000000E+00 0. -1.
          2    1    1    2  501    0  0.37417426150E+02  0.69525164216E+02 -0.32432200015E+02  0.85356076742E+02  0.00000000000E+00 0. -1.
          1    1    1    2  502    0 -0.27955989491E+02 -0.52017342933E+02 -0.63865548874E+02  0.86983617120E+02  0.00000000000E+00 0. -1.
         22    1    1    2    0    0 -0.54920906682E+01 -0.28233552334E+02 -0.10163987449E+03  0.10563124833E+03  0.00000000000E+00 0. -1.
         22    1    1    2    0    0 -0.39693459908E+01  0.10725731051E+02  0.36526925999E+02  0.38275492643E+02  0.00000000000E+00 0.  1.
</event>
<event>
 6    1  0.1726037E-005  0.8260880E+02  0.7818608E-02  0.1407628E+00
          2   -1    0    0  502    0  0.00000000000E+00  0.00000000000E+00  0.12559738157E+03  0.12559738157E+03  0.00000000000E+00 0. -1.
          1   -1    0    0  501    0 -0.00000000000E+00 -0.00000000000E+00 -0.52886920007E+03  0.52886920007E+03  0.00000000000E+00 0.  1.
          2    1    1    2  501    0 -0.58311777109E+02 -0.24691268522E+02  0.43211918878E+02  0.76662846438E+02  0.00000000000E+00 0. -1.
          1    1    1    2  502    0  0.70608854751E+02  0.12835703190E+02 -0.44424106682E+03  0.45000054567E+03  0.00000000000E+00 0.  1.
         22    1    1    2    0    0  0.72201334651E+01  0.91925367680E+01 -0.62926217629E+02  0.64002671230E+02  0.00000000000E+00 0.  1.
         22    1    1    2    0    0 -0.19517211107E+02  0.26630285647E+01  0.60683547079E+02  0.63800518310E+02  0.00000000000E+00 0. -1.
</event>
<event>
 6    1  0.1726037E-005  0.6442003E+02  0.7818608E-02  0.1496051E+00
          2   -1    0    0  502    0  0.00000000000E+00  0.00000000000E+00  0.74678375051E+02  0.74678375051E+02  0.00000000000E+00 0. -1.
          1   -1    0    0  501    0 -0.00000000000E+00 -0.00000000000E+00 -0.15457703449E+03  0.15457703449E+03  0.00000000000E+00 0.  1.
          2    1    1    2  501    0 -0.21779643228E+02  0.11465097383E+02  0.15935354506E+02  0.29321269419E+02  0.00000000000E+00 0. -1.
          1    1    1    2  502    0 -0.91271168950E+01 -0.19827360000E+02 -0.59709462325E+02  0.63573959752E+02  0.00000000000E+00 0.  1.
         22    1    1    2    0    0 -0.11312014280E+02 -0.26377918610E-01  0.43986338817E+02  0.45417621749E+02  0.00000000000E+00 0. -1.
         22    1    1    2    0    0  0.42218774403E+02  0.83886405356E+01 -0.80110890441E+02  0.90942558626E+02  0.00000000000E+00 0.  1.
</event>
<event>
 6    1  0.1726037E-005  0.3528610E+03  0.7818608E-02  0.1079284E+00
          2   -1    0    0  502    0  0.00000000000E+00  0.00000000000E+00  0.16049061140E+03  0.16049061140E+03  0.00000000000E+00 0.  1.
          1   -1    0    0  501    0 -0.00000000000E+00 -0.00000000000E+00 -0.15344391157E+04  0.15344391157E+04  0.00000000000E+00 0. -1.
          2    1    1    2  501    0 -0.34943132449E+02 -0.36651007999E+03 -0.76315372195E+03  0.84732181877E+03  0.00000000000E+00 0.  1.
          1    1    1    2  502    0  0.19711437685E+03  0.45790138897E+02 -0.15914166475E+03  0.25744297201E+03  0.00000000000E+00 0. -1.
         22    1    1    2    0    0  0.11398351953E+02 -0.31178195246E+01 -0.20790672419E+02  0.23914332219E+02  0.00000000000E+00 0.  1.
         22    1    1    2    0    0 -0.17356959635E+03  0.32383776062E+03 -0.43086244516E+03  0.56625060409E+03  0.00000000000E+00 0. -1.
</event>
<event>
 6    1  0.1726037E-005  0.5971668E+02  0.7818608E-02  0.1441706E+00
          2   -1    0    0  502    0  0.00000000000E+00  0.00000000000E+00  0.76672576335E+03  0.76672576335E+03  0.00000000000E+00 0.  1.
          1   -1    0    0  501    0 -0.00000000000E+00 -0.00000000000E+00 -0.69823720825E+02  0.69823720825E+02  0.00000000000E+00 0. -1.
          2    1    1    2  501    0 -0.56657000009E+02 -0.40637660853E+02  0.54929321397E+03  0.55370070439E+03  0.00000000000E+00 0.  1.
          1    1    1    2  502    0  0.54385589946E+02  0.84164127924E+02  0.19732867513E+02  0.10213118468E+03  0.00000000000E+00 0. -1.
         22    1    1    2    0    0  0.23146688802E+02 -0.36194679168E+02  0.14595389316E+03  0.15214586071E+03  0.00000000000E+00 0.  1.
         22    1    1    2    0    0 -0.20875278739E+02 -0.73317879031E+01 -0.18077932125E+02  0.28571734392E+02  0.00000000000E+00 0.  1.
</event>
<event>
 6    1  0.1726037E-005  0.1780499E+03  0.7818608E-02  0.1170828E+00
          2   -1    0    0  502    0  0.00000000000E+00  0.00000000000E+00  0.39731708733E+03  0.39731708733E+03  0.00000000000E+00 0. -1.
          1   -1    0    0  501    0 -0.00000000000E+00 -0.00000000000E+00 -0.12637553349E+03  0.12637553349E+03  0.00000000000E+00 0. -1.
          2    1    1    2  501    0 -0.82045803728E+02  0.12660606986E+03  0.25154312474E+03  0.29331647489E+03  0.00000000000E+00 0. -1.
          1    1    1    2  502    0  0.20179287684E+02 -0.58035416962E+02 -0.22839169280E+02  0.65551055878E+02  0.00000000000E+00 0. -1.
         22    1    1    2    0    0  0.80090656768E+02 -0.81579649372E+02 -0.29859525892E+01  0.11436200595E+03  0.00000000000E+00 0. -1.
         22    1    1    2    0    0 -0.18224140724E+02  0.13008996471E+02  0.45223550965E+02  0.50463084093E+02  0.00000000000E+00 0.  1.
</event>
<event>
 6    1  0.1726037E-005  0.3027214E+03  0.7818608E-02  0.1225328E+00
          2   -1    0    0  502    0  0.00000000000E+00  0.00000000000E+00  0.88377040959E+03  0.88377040959E+03  0.00000000000E+00 0.  1.
          1   -1    0    0  501    0 -0.00000000000E+00 -0.00000000000E+00 -0.18989131711E+03  0.18989131711E+03  0.00000000000E+00 0.  1.
          2    1    1    2  501    0  0.10299436157E+03  0.27387029723E+03  0.64977316552E+03  0.71261346104E+03  0.00000000000E+00 0.  1.
          1    1    1    2  502    0 -0.97271777942E+02 -0.16118362100E+03  0.28877112022E+02  0.19046219063E+03  0.00000000000E+00 0.  1.
         22    1    1    2    0    0  0.14642174895E+01 -0.10660551814E+02  0.58535612786E+02  0.59516462110E+02  0.00000000000E+00 0. -1.
         22    1    1    2    0    0 -0.71868011189E+01 -0.10202612442E+03 -0.43306797846E+02  0.11106961292E+03  0.00000000000E+00 0. -1.
</event>
<event>
 6    1  0.1726037E-005  0.1195102E+03  0.7818608E-02  0.1268445E+00
          2   -1    0    0  502    0  0.00000000000E+00  0.00000000000E+00  0.12020498842E+03  0.12020498842E+03  0.00000000000E+00 0. -1.
          1   -1    0    0  501    0 -0.00000000000E+00 -0.00000000000E+00 -0.55059384794E+03  0.55059384794E+03  0.00000000000E+00 0.  1.
          2    1    1    2  501    0 -0.15485274703E+03  0.32414473086E+02 -0.33954786904E+01  0.15824538099E+03  0.00000000000E+00 0. -1.
          1    1    1    2  502    0  0.82089482131E+02 -0.48529364061E+02 -0.32187392918E+03  0.33570315539E+03  0.00000000000E+00 0.  1.
         22    1    1    2    0    0  0.77401551354E+01 -0.18275331800E+02 -0.10126544576E+03  0.10319199707E+03  0.00000000000E+00 0.  1.
         22    1    1    2    0    0  0.65023109768E+02  0.34390222775E+02 -0.38540058937E+01  0.73658302912E+02  0.00000000000E+00 0. -1.
</event>
<event>
 6    1  0.1726037E-005  0.1798869E+03  0.7818608E-02  0.1308111E+00
          2   -1    0    0  502    0  0.00000000000E+00  0.00000000000E+00  0.21743714566E+03  0.21743714566E+03  0.00000000000E+00 0.  1.
          1   -1    0    0  501    0 -0.00000000000E+00 -0.00000000000E+00 -0.20173730855E+03  0.20173730855E+03  0.00000000000E+00 0.  1.
          2    1    1    2  501    0 -0.13669022398E+03 -0.12374910991E+02  0.10766290118E+03  0.17443811523E+03  0.00000000000E+00 0.  1.
          1    1    1    2  502    0  0.65087109894E+02 -0.36603698213E+02 -0.14501713098E+02  0.76068799649E+02  0.00000000000E+00 0.  1.
         22    1    1    2    0    0  0.81832629486E+02  0.49401398204E+02 -0.10338031263E+03  0.14079973875E+03  0.00000000000E+00 0.  1.
         22    1    1    2    0    0 -0.10229515396E+02 -0.42278899988E+00  0.25918961655E+02  0.27867800578E+02  0.00000000000E+00 0.  1.
</event>
<event>
 6    1  0.1759303E-005  0.1214947E+03  0.7818608E-02  0.1326037E+00
          2   -1    0    0  502    0  0.00000000000E+00  0.00000000000E+00  0.19567298310E+03  0.19567298310E+03  0.00000000000E+00 0. -1.
          1   -1    0    0  501    0 -0.00000000000E+00 -0.00000000000E+00 -0.32869565153E+03  0.32869565153E+03  0.00000000000E+00 0. -1.
          2    1    1    2  501    0 -0.47230954973E+01 -0.10679400527E+03  0.22566862241E+02  0.10925442995E+03  0.00000000000E+00 0. -1.
          1    1    1    2  502    0 -0.97895483880E+01  0.11330377142E+03 -0.23925032077E+03  0.26490431455E+03  0.00000000000E+00 0. -1.
         22    1    1    2    0    0  0.17823396697E+02 -0.16204477620E+02  0.11486676899E+03  0.11736538324E+03  0.00000000000E+00 0. -1.
         22    1    1    2    0    0 -0.33107528120E+01  0.96947114744E+01 -0.31205978880E+02  0.32844506887E+02  0.00000000000E+00 0. -1.
</event>
<event>
 6    1  0.1726037E-005  0.1869029E+03  0.7818608E-02  0.1161522E+00
          2   -1    0    0  502    0  0.00000000000E+00  0.00000000000E+00  0.49089737198E+03  0.49089737198E+03  0.00000000000E+00 0.  1.
          1   -1    0    0  501    0 -0.00000000000E+00 -0.00000000000E+00 -0.95192842928E+02  0.95192842928E+02  0.00000000000E+00 0.  1.
          2    1    1    2  501    0  0.13586769179E+03 -0.68240547258E+02  0.24397949553E+03  0.28747660114E+03  0.00000000000E+00 0.  1.
          1    1    1    2  502    0 -0.90351903628E+02  0.67381746092E+02  0.32579238514E+02  0.11732507395E+03  0.00000000000E+00 0.  1.
         22    1    1    2    0    0 -0.72894741788E+02  0.51738443322E+01  0.16434615022E+02  0.74903328474E+02  0.00000000000E+00 0.  1.
         22    1    1    2    0    0  0.27378953629E+02 -0.43150431659E+01  0.10271117998E+03  0.10638521134E+03  0.00000000000E+00 0.  1.
</event>
<event>
 6    1  0.1726037E-005  0.6771063E+02  0.7818608E-02  0.1378705E+00
          2   -1    0    0  502    0  0.00000000000E+00  0.00000000000E+00  0.45208325052E+03  0.45208325052E+03  0.00000000000E+00 0. -1.
          1   -1    0    0  501    0 -0.00000000000E+00 -0.00000000000E+00 -0.90118601506E+02  0.90118601506E+02  0.00000000000E+00 0. -1.
          2    1    1    2  501    0 -0.12007263387E+03  0.36280394704E+02  0.25494579446E+03  0.28413212166E+03  0.00000000000E+00 0. -1.
          1    1    1    2  502    0  0.58159610531E+02  0.29868973378E+01  0.98340536836E+02  0.11429052033E+03  0.00000000000E+00 0. -1.
         22    1    1    2    0    0  0.80524850729E+01 -0.44824437109E+02  0.55781805095E+02  0.72011682786E+02  0.00000000000E+00 0.  1.
         22    1    1    2    0    0  0.53860538267E+02  0.55571450679E+01 -0.47103487380E+02  0.71767527246E+02  0.00000000000E+00 0. -1.
</event>
<event>
 6    1  0.1726037E-005  0.2328496E+02  0.7818608E-02  0.1723157E+00
          2   -1    0    0  502    0  0.00000000000E+00  0.00000000000E+00  0.39630308566E+02  0.39630308566E+02  0.00000000000E+00 0.  1.
          1   -1    0    0  501    0 -0.00000000000E+00 -0.00000000000E+00 -0.25162824881E+03  0.25162824881E+03  0.00000000000E+00 0.  1.
          2    1    1    2  501    0  0.24703549156E+01  0.27621496269E+02 -0.73495309685E+02  0.78553231985E+02  0.00000000000E+00 0.  1.
          1    1    1    2  502    0  0.14864379424E+02 -0.28456233847E+02 -0.39822281752E+02  0.51151941746E+02  0.00000000000E+00 0.  1.
         22    1    1    2    0    0  0.70961810750E+00  0.14874402588E+02  0.28595401913E+02  0.32240477986E+02  0.00000000000E+00 0.  1.
         22    1    1    2    0    0 -0.18044352447E+02 -0.14039665009E+02 -0.12727575072E+03  0.12931290566E+03  0.00000000000E+00 0.  1.
</event>
<event>
 6    1  0.1726037E-005  0.7176678E+02  0.7818608E-02  0.1461334E+00
          2   -1    0    0  502    0  0.00000000000E+00  0.00000000000E+00  0.12510742939E+03  0.12510742939E+03  0.00000000000E+00 0.  1.
          1   -1    0    0  501    0 -0.00000000000E+00 -0.00000000000E+00 -0.74398224432E+03  0.74398224432E+03  0.00000000000E+00 0.  1.
          2    1    1    2  501    0  0.67911952681E+02  0.39505953110E+02  0.15394735173E+02  0.80060923797E+02  0.00000000000E+00 0.  1.
          1    1    1    2  502    0 -0.54599741085E+02 -0.19677212950E+02 -0.65501767785E+03  0.65758382183E+03  0.00000000000E+00 0.  1.
         22    1    1    2    0    0 -0.64972530746E+01 -0.83215933818E+01 -0.54247940565E+02  0.55265742278E+02  0.00000000000E+00 0. -1.
         22    1    1    2    0    0 -0.68149585215E+01 -0.11507146779E+02  0.74996068321E+02  0.76179185807E+02  0.00000000000E+00 0.  1.
</event>
<event>
 6    1  0.1726037E-005  0.1220043E+03  0.7818608E-02  0.1375254E+00
          2   -1    0    0  502    0  0.00000000000E+00  0.00000000000E+00  0.81077048446E+02  0.81077048446E+02  0.00000000000E+00 0.  1.
          1   -1    0    0  501    0 -0.00000000000E+00 -0.00000000000E+00 -0.51047302417E+03  0.51047302417E+03  0.00000000000E+00 0. -1.
          2    1    1    2  501    0 -0.75314446039E+01 -0.60075318323E+02  0.42485469010E+02  0.73964732180E+02  0.00000000000E+00 0.  1.
          1    1    1    2  502    0 -0.46451659890E+02 -0.23292756102E+01 -0.21914428487E+03  0.22402544459E+03  0.00000000000E+00 0. -1.
         22    1    1    2    0    0  0.15401279548E+01  0.10161083052E+02  0.13645764630E+02  0.17082929937E+02  0.00000000000E+00 0.  1.
         22    1    1    2    0    0  0.52442976540E+02  0.52243510881E+02 -0.26638292449E+03  0.27647696591E+03  0.00000000000E+00 0. -1.
</event>
<event>
 6    1  0.1726037E-005  0.3938792E+02  0.7818608E-02  0.1526818E+00
          2   -1    0    0  502    0  0.00000000000E+00  0.00000000000E+00  0.53897634842E+02  0.53897634842E+02  0.00000000000E+00 0.  1.
          1   -1    0    0  501    0 -0.00000000000E+00 -0.00000000000E+00 -0.72220546501E+03  0.72220546501E+03  0.00000000000E+00 0.  1.
          2    1    1    2  501    0  0.47620299764E+02 -0.56905955357E+02 -0.73415009854E+02  0.10438268236E+03  0.00000000000E+00 0.  1.
          1    1    1    2  502    0 -0.17317267135E+02  0.51825910718E+02 -0.51395185016E+03  0.51684844689E+03  0.00000000000E+00 0.  1.
         22    1    1    2    0    0 -0.13863173835E+02 -0.22862941469E+02 -0.10885477919E+03  0.11209043061E+03  0.00000000000E+00 0.  1.
         22    1    1    2    0    0 -0.16439858794E+02  0.27942986108E+02  0.27913809038E+02  0.42781540000E+02  0.00000000000E+00 0.  1.
</event>
<event>
 6    1  0.1726037E-005  0.8211665E+02  0.7818608E-02  0.1409983E+00
          2   -1    0    0  502    0  0.00000000000E+00  0.00000000000E+00  0.47553216341E+03  0.47553216341E+03  0.00000000000E+00 0. -1.
          1   -1    0    0  501    0 -0.00000000000E+00 -0.00000000000E+00 -0.52033374712E+02  0.52033374712E+02  0.00000000000E+00 0.  1.
          2    1    1    2  501    0 -0.37888885401E+02 -0.60199523746E+02  0.32028827916E+03  0.32809165193E+03  0.00000000000E+00 0. -1.
          1    1    1    2  502    0  0.14432336017E+02  0.33687706732E+02  0.34740891640E+01  0.36813356317E+02  0.00000000000E+00 0.  1.
         22    1    1    2    0    0  0.10125011435E+02 -0.16465464374E+02  0.11386737111E+03  0.11549634443E+03  0.00000000000E+00 0.  1.
         22    1    1    2    0    0  0.13331537949E+02  0.42977281388E+02 -0.14130950742E+02  0.47164185442E+02  0.00000000000E+00 0. -1.
</event>
<event>
 6    1  0.1726037E-005  0.1151289E+03  0.7818608E-02  0.1271481E+00
          2   -1    0    0  502    0  0.00000000000E+00  0.00000000000E+00  0.60735939620E+02  0.60735939620E+02  0.00000000000E+00 0.  1.
          1   -1    0    0  501    0 -0.00000000000E+00 -0.00000000000E+00 -0.44804785619E+03  0.44804785619E+03  0.00000000000E+00 0.  1.
          2    1    1    2  501    0  0.79970752633E+00  0.80752621652E+02 -0.63907281072E+02  0.10298429982E+03  0.00000000000E+00 0.  1.
          1    1    1    2  502    0  0.49204034120E+02 -0.93313855560E+02 -0.15043659697E+03  0.18373808076E+03  0.00000000000E+00 0.  1.
         22    1    1    2    0    0  0.23491766752E+02  0.37423713613E+02 -0.16051175178E+02  0.47011037750E+02  0.00000000000E+00 0.  1.
         22    1    1    2    0    0 -0.73495508398E+02 -0.24862479705E+02 -0.15691686335E+03  0.17505037748E+03  0.00000000000E+00 0.  1.
</event>
<event>
 6    1  0.1726037E-005  0.9383120E+02  0.7818608E-02  0.1419691E+00
          2   -1    0    0  502    0  0.00000000000E+00  0.00000000000E+00  0.11804814398E+03  0.11804814398E+03  0.00000000000E+00 0.  1.
          1   -1    0    0  501    0 -0.00000000000E+00 -0.00000000000E+00 -0.15624200008E+03  0.15624200008E+03  0.00000000000E+00 0. -1.
          2    1    1    2  501    0 -0.39762232984E+02  0.61995286912E+02  0.22599639701E+02  0.77040213433E+02  0.00000000000E+00 0.  1.
          1    1    1    2  502    0  0.35169492421E+02  0.55704349693E+01 -0.41441731213E+02  0.54638265244E+02  0.00000000000E+00 0. -1.
         22    1    1    2    0    0  0.56921870360E+01 -0.56473605300E+02 -0.70359736729E+02  0.90400009079E+02  0.00000000000E+00 0. -1.
         22    1    1    2    0    0 -0.10994464726E+01 -0.11092116581E+02  0.51007972139E+02  0.52211656309E+02  0.00000000000E+00 0. -1.
</event>
<event>
 6    1  0.1726037E-005  0.2895456E+02  0.7818608E-02  0.1615572E+00
          2   -1    0    0  502    0  0.00000000000E+00  0.00000000000E+00  0.29678100609E+03  0.29678100609E+03  0.00000000000E+00 0.  1.
          1   -1    0    0  501    0 -0.00000000000E+00 -0.00000000000E+00 -0.11578013813E+03  0.11578013813E+03  0.00000000000E+00 0. -1.
          2    1    1    2  501    0 -0.32555364591E+02 -0.58334451332E+02  0.20928940014E+03  0.21969254195E+03  0.00000000000E+00 0.  1.
          1    1    1    2  502    0  0.31959982553E+02  0.50464315704E+02 -0.25204437454E+02  0.64833257759E+02  0.00000000000E+00 0. -1.
         22    1    1    2    0    0 -0.10915917451E+02  0.35546646885E+01  0.61362259776E+02  0.62426915827E+02  0.00000000000E+00 0. -1.
         22    1    1    2    0    0  0.11511299490E+02  0.43154709395E+01 -0.64446354503E+02  0.65608428681E+02  0.00000000000E+00 0. -1.
</event>
<event>
 6    1  0.1726037E-005  0.6096155E+02  0.7818608E-02  0.1469547E+00
          2   -1    0    0  502    0  0.00000000000E+00  0.00000000000E+00  0.12038006620E+03  0.12038006620E+03  0.00000000000E+00 0.  1.
          1   -1    0    0  501    0 -0.00000000000E+00 -0.00000000000E+00 -0.31384612582E+03  0.31384612582E+03  0.00000000000E+00 0.  1.
          2    1    1    2  501    0 -0.45429988143E+02  0.10164658757E+03  0.28616032859E+02  0.11495559979E+03  0.00000000000E+00 0.  1.
          1    1    1    2  502    0  0.45713938303E+02 -0.77005928862E+02 -0.13395677143E+03  0.16113377624E+03  0.00000000000E+00 0.  1.
         22    1    1    2    0    0 -0.61238444362E+01 -0.33747646145E+02 -0.11982744062E+03  0.12463956280E+03  0.00000000000E+00 0.  1.
         22    1    1    2    0    0  0.58398942757E+01  0.91069874368E+01  0.31702119564E+02  0.33497253174E+02  0.00000000000E+00 0.  1.
</event>
<event>
 6    1  0.1726037E-005  0.1719930E+03  0.7818608E-02  0.1231660E+00
          2   -1    0    0  502    0  0.00000000000E+00  0.00000000000E+00  0.15085183256E+03  0.15085183256E+03  0.00000000000E+00 0. -1.
          1   -1    0    0  501    0 -0.00000000000E+00 -0.00000000000E+00 -0.36006947581E+03  0.36006947581E+03  0.00000000000E+00 0. -1.
          2    1    1    2  501    0 -0.10141946288E+03 -0.96531292145E+02 -0.34629918715E+02  0.14423393874E+03  0.00000000000E+00 0. -1.
          1    1    1    2  502    0  0.10857663800E+03  0.12272563649E+03 -0.17860374533E+03  0.24238351020E+03  0.00000000000E+00 0. -1.
         22    1    1    2    0    0  0.16463849590E+02  0.19529979742E+02 -0.45950444100E+02  0.52573013658E+02  0.00000000000E+00 0.  1.
         22    1    1    2    0    0 -0.23621024705E+02 -0.45724324086E+02  0.49966464891E+02  0.71730845771E+02  0.00000000000E+00 0. -1.
</event>
<event>
 6    1  0.1726037E-005  0.8020781E+02  0.7818608E-02  0.1340439E+00
          2   -1    0    0  502    0  0.00000000000E+00  0.00000000000E+00  0.11900492244E+03  0.11900492244E+03  0.00000000000E+00 0.  1.
          1   -1    0    0  501    0 -0.00000000000E+00 -0.00000000000E+00 -0.26168696886E+03  0.26168696886E+03  0.00000000000E+00 0. -1.
          2    1    1    2  501    0 -0.13667660443E+02 -0.12061860097E+03 -0.69929638979E+02  0.14009213486E+03  0.00000000000E+00 0.  1.
          1    1    1    2  502    0 -0.19911196636E+02  0.30004495572E+02 -0.77438949069E+02  0.85402086268E+02  0.00000000000E+00 0. -1.
         22    1    1    2    0    0  0.33064233554E+02  0.56035251178E+02  0.60952365081E+02  0.89153708414E+02  0.00000000000E+00 0.  1.
         22    1    1    2    0    0  0.51462352530E+00  0.34578854216E+02 -0.56265823457E+02  0.66043961764E+02  0.00000000000E+00 0. -1.
</event>
<event>
 6    1  0.1726037E-005  0.9481611E+02  0.7818608E-02  0.1296089E+00
          2   -1    0    0  502    0  0.00000000000E+00  0.00000000000E+00  0.64772304734E+02  0.64772304734E+02  0.00000000000E+00 0. -1.
          1   -1    0    0  501    0 -0.00000000000E+00 -0.00000000000E+00 -0.60747944003E+03  0.60747944003E+03  0.00000000000E+00 0. -1.
          2    1    1    2  501    0  0.23656620875E+02  0.68398223929E+02  0.15376957800E+02  0.73989212586E+02  0.00000000000E+00 0. -1.
          1    1    1    2  502    0  0.44012407164E+01 -0.51773776520E+02 -0.33092075196E+03  0.33497528108E+03  0.00000000000E+00 0. -1.
         22    1    1    2    0    0  0.55898885275E+01  0.96556145788E+01  0.14266707138E+02  0.18111230748E+02  0.00000000000E+00 0. -1.
         22    1    1    2    0    0 -0.33647750119E+02 -0.26280061987E+02 -0.24143004828E+03  0.24517602036E+03  0.00000000000E+00 0. -1.
</event>
<event>
 6    1  0.1726037E-005  0.4718101E+02  0.7818608E-02  0.1479323E+00
          2   -1    0    0  502    0  0.00000000000E+00  0.00000000000E+00  0.12882595989E+03  0.12882595989E+03  0.00000000000E+00 0. -1.
          1   -1    0    0  501    0 -0.00000000000E+00 -0.00000000000E+00 -0.18732545676E+03  0.18732545676E+03  0.00000000000E+00 0.  1.
          2    1    1    2  501    0 -0.79208907334E+02  0.24339729783E+02 -0.17931595662E+02  0.84782165400E+02  0.00000000000E+00 0. -1.
          1    1    1    2  502    0  0.65915403381E+02 -0.49309046336E+02 -0.62404290918E+02  0.10329819930E+03  0.00000000000E+00 0.  1.
         22    1    1    2    0    0  0.25546966602E+02  0.85475445867E+01 -0.48135464149E+02  0.55160954758E+02  0.00000000000E+00 0.  1.
         22    1    1    2    0    0 -0.12253462649E+02  0.16421771967E+02  0.69971853855E+02  0.72910097198E+02  0.00000000000E+00 0. -1.
</event>
<event>
 6    1  0.1726037E-005  0.4100545E+02  0.7818608E-02  0.1512078E+00
          2   -1    0    0  502    0  0.00000000000E+00  0.00000000000E+00  0.16603235151E+03  0.16603235151E+03  0.00000000000E+00 0.  1.
          1   -1    0    0  501    0 -0.00000000000E+00 -0.00000000000E+00 -0.18911302380E+03  0.18911302380E+03  0.00000000000E+00 0.  1.
          2    1    1    2  501    0 -0.68831181671E+01  0.86164409929E+02 -0.42252911841E+02  0.96213260070E+02  0.00000000000E+00 0.  1.
          1    1    1    2  502    0  0.79051453418E+01 -0.76918163854E+02 -0.73539950533E+02  0.10670997881E+03  0.00000000000E+00 0.  1.
         22    1    1    2    0    0 -0.18764903039E+02 -0.88422948375E+01  0.11883994808E+03  0.12063681455E+03  0.00000000000E+00 0.  1.
         22    1    1    2    0    0  0.17742875864E+02 -0.40395123743E+00 -0.26127757996E+02  0.31585321883E+02  0.00000000000E+00 0. -1.
</event>
<event>
 6    1  0.1726037E-005  0.2383704E+03  0.7818608E-02  0.1231891E+00
          2   -1    0    0  502    0  0.00000000000E+00  0.00000000000E+00  0.11957748272E+03  0.11957748272E+03  0.00000000000E+00 0. -1.
          1   -1    0    0  501    0 -0.00000000000E+00 -0.00000000000E+00 -0.33338596602E+03  0.33338596602E+03  0.00000000000E+00 0. -1.
          2    1    1    2  501    0  0.49944939871E+02 -0.53344930258E+02  0.32410367567E+02  0.79941294265E+02  0.00000000000E+00 0. -1.
          1    1    1    2  502    0  0.42298199745E+01 -0.77293702976E+02 -0.12383903816E+03  0.14604216949E+03  0.00000000000E+00 0. -1.
         22    1    1    2    0    0 -0.55189407537E+01 -0.18432077095E+02  0.10071520516E+02  0.21717175198E+02  0.00000000000E+00 0.  1.
         22    1    1    2    0    0 -0.48655819092E+02  0.14907071033E+03 -0.13245133323E+03  0.20526280979E+03  0.00000000000E+00 0. -1.
</event>
<event>
 6    1  0.1726037E-005  0.5774777E+02  0.7818608E-02  0.1482369E+00
          2   -1    0    0  502    0  0.00000000000E+00  0.00000000000E+00  0.52295293588E+02  0.52295293588E+02  0.00000000000E+00 0. -1.
          1   -1    0    0  501    0 -0.00000000000E+00 -0.00000000000E+00 -0.30635322009E+03  0.30635322009E+03  0.00000000000E+00 0. -1.
          2    1    1    2  501    0 -0.50507513566E+00 -0.37218991651E+02 -0.11276466487E+02  0.38893021698E+02  0.00000000000E+00 0. -1.
          1    1    1    2  502    0 -0.23338925466E+02 -0.41787055247E+02 -0.10675407923E+03  0.11699272140E+03  0.00000000000E+00 0. -1.
         22    1    1    2    0    0  0.35733429064E+02  0.64178412228E+02 -0.15768106370E+03  0.17395132767E+03  0.00000000000E+00 0. -1.
         22    1    1    2    0    0 -0.11889428462E+02  0.14827634669E+02  0.21653682913E+02  0.28811442913E+02  0.00000000000E+00 0. -1.
</event>
<event>
 6    1  0.1726037E-005  0.1671070E+03  0.7818608E-02  0.1211878E+00
          2   -1    0    0  502    0  0.00000000000E+00  0.00000000000E+00  0.39639112810E+02  0.39639112810E+02  0.00000000000E+00 0.  1.
          1   -1    0    0  501    0 -0.00000000000E+00 -0.00000000000E+00 -0.12093741900E+04  0.12093741900E+04  0.00000000000E+00 0.  1.
          2    1    1    2  501    0 -0.12219924369E+03 -0.58585706285E+02 -0.35507326409E+03  0.38005521048E+03  0.00000000000E+00 0.  1.
          1    1    1    2  502    0  0.12654047935E+03  0.12819628227E+02 -0.62817148587E+03  0.64091828765E+03  0.00000000000E+00 0.  1.
         22    1    1    2    0    0  0.75421382128E+01 -0.38301324491E+02 -0.97598465379E+02  0.10511582065E+03  0.00000000000E+00 0.  1.
         22    1    1    2    0    0 -0.11883373872E+02  0.84067402549E+02 -0.88891861835E+02  0.12292398402E+03  0.00000000000E+00 0.  1.
</event>
<event>
 6    1  0.1726037E-005  0.9967153E+02  0.7818608E-02  0.1342355E+00
          2   -1    0    0  502    0  0.00000000000E+00  0.00000000000E+00  0.20172598699E+03  0.20172598699E+03  0.00000000000E+00 0. -1.
          1   -1    0    0  501    0 -0.00000000000E+00 -0.00000000000E+00 -0.23046737289E+03  0.23046737289E+03  0.00000000000E+00 0. -1.
          2    1    1    2  501    0  0.57982947329E+02  0.84201392610E+02 -0.51819670976E+02  0.11461751611E+03  0.00000000000E+00 0. -1.
          1    1    1    2  502    0 -0.59539949457E+02 -0.55108300277E+02 -0.10740332148E+03  0.13460090566E+03  0.00000000000E+00 0. -1.
         22    1    1    2    0    0  0.18988020471E+02 -0.26746125559E+02  0.15181956447E+03  0.15532250420E+03  0.00000000000E+00 0. -1.
         22    1    1    2    0    0 -0.17431018343E+02 -0.23469667738E+01 -0.21337957919E+02  0.27652433920E+02  0.00000000000E+00 0. -1.
</event>
<event>
 6    1  0.1726037E-005  0.2309518E+02  0.7818608E-02  0.1709953E+00
          2   -1    0    0  502    0  0.00000000000E+00  0.00000000000E+00  0.82438048435E+02  0.82438048435E+02  0.00000000000E+00 0. -1.
          1   -1    0    0  501    0 -0.00000000000E+00 -0.00000000000E+00 -0.13667603145E+03  0.13667603145E+03  0.00000000000E+00 0. -1.
          2    1    1    2  501    0  0.26844221336E+02  0.40264103146E+01  0.71538525605E+01  0.28071369856E+02  0.00000000000E+00 0. -1.
          1    1    1    2  502    0 -0.26356452531E+02 -0.26113324719E+02 -0.53115396636E+02  0.64790536945E+02  0.00000000000E+00 0. -1.
         22    1    1    2    0    0  0.81915988657E+01  0.13072400253E+02  0.57378063549E+02  0.59415756471E+02  0.00000000000E+00 0. -1.
         22    1    1    2    0    0 -0.86793676708E+01  0.90145141518E+01 -0.65654502485E+02  0.66836416609E+02  0.00000000000E+00 0. -1.
</event>
<event>
 6    1  0.1726037E-005  0.4991448E+02  0.7818608E-02  0.1516854E+00
          2   -1    0    0  502    0  0.00000000000E+00  0.00000000000E+00  0.54898006172E+02  0.54898006172E+02  0.00000000000E+00 0.  1.
          1   -1    0    0  501    0 -0.00000000000E+00 -0.00000000000E+00 -0.24289043025E+03  0.24289043025E+03  0.00000000000E+00 0.  1.
          2    1    1    2  501    0  0.45671588266E+01  0.33589044009E+02 -0.52325695389E+02  0.62346300734E+02  0.00000000000E+00 0.  1.
          1    1    1    2  502    0 -0.28423323635E+02  0.34738438005E+02 -0.43512877533E+02  0.62514117707E+02  0.00000000000E+00 0.  1.
         22    1    1    2    0    0  0.14993652185E+02 -0.52297340667E+02 -0.12443720489E+03  0.13581030671E+03  0.00000000000E+00 0.  1.
         22    1    1    2    0    0  0.88625126235E+01 -0.16030141347E+02  0.32283353737E+02  0.37117711272E+02  0.00000000000E+00 0.  1.
</event>
<event>
 6    1  0.1726037E-005  0.1031817E+03  0.7818608E-02  0.1406616E+00
          2   -1    0    0  502    0  0.00000000000E+00  0.00000000000E+00  0.28136965040E+02  0.28136965040E+02  0.00000000000E+00 0. -1.
          1   -1    0    0  501    0 -0.00000000000E+00 -0.00000000000E+00 -0.10570583297E+04  0.10570583297E+04  0.00000000000E+00 0. -1.
          2    1    1    2  501    0 -0.10364000699E+03  0.78471628307E+01 -0.27501002068E+03  0.29399547698E+03  0.00000000000E+00 0. -1.
          1    1    1    2  502    0  0.53833080603E+02  0.96967220025E+01 -0.52041645150E+03  0.52328320246E+03  0.00000000000E+00 0. -1.
         22    1    1    2    0    0  0.10247324878E+02 -0.68638198897E+00  0.13636786206E+02  0.17071635113E+02  0.00000000000E+00 0. -1.
         22    1    1    2    0    0  0.39559601506E+02 -0.16857502844E+02 -0.24713167872E+03  0.25084498021E+03  0.00000000000E+00 0. -1.
</event>
<event>
 6    1  0.1726037E-005  0.8513963E+02  0.7818608E-02  0.1420940E+00
          2   -1    0    0  502    0  0.00000000000E+00  0.00000000000E+00  0.17362369523E+03  0.17362369523E+03  0.00000000000E+00 0. -1.
          1   -1    0    0  501    0 -0.00000000000E+00 -0.00000000000E+00 -0.16450218127E+03  0.16450218127E+03  0.00000000000E+00 0. -1.
          2    1    1    2  501    0  0.83268497532E+01 -0.66776030489E+02  0.91395404288E+02  0.11349667220E+03  0.00000000000E+00 0. -1.
          1    1    1    2  502    0  0.33414129482E+01  0.30323579743E+02 -0.84729614320E+02  0.90054383967E+02  0.00000000000E+00 0. -1.
         22    1    1    2    0    0 -0.24685995297E+02  0.43143431228E+02 -0.55671640630E+02  0.74633006052E+02  0.00000000000E+00 0. -1.
         22    1    1    2    0    0  0.13017732596E+02 -0.66909804823E+01  0.58127364627E+02  0.59941814289E+02  0.00000000000E+00 0. -1.
</event>
<event>
 6    1  0.1726037E-005  0.6604876E+02  0.7818608E-02  0.1438240E+00
          2   -1    0    0  502    0  0.00000000000E+00  0.00000000000E+00  0.82310794216E+02  0.82310794216E+02  0.00000000000E+00 0. -1.
          1   -1    0    0  501    0 -0.00000000000E+00 -0.00000000000E+00 -0.30157551425E+03  0.30157551425E+03  0.00000000000E+00 0.  1.
          2    1    1    2  501    0 -0.30687699913E+02  0.73271734049E+02 -0.19479623576E+02  0.81792039167E+02  0.00000000000E+00 0. -1.
          1    1    1    2  502    0 -0.99017861100E+01 -0.87658342413E+02 -0.11052336630E+03  0.14141232217E+03  0.00000000000E+00 0.  1.
         22    1    1    2    0    0 -0.12316375528E+02  0.14246971134E+02  0.27016956952E+02  0.32933042004E+02  0.00000000000E+00 0.  1.
         22    1    1    2    0    0  0.52905861551E+02  0.13963722956E+00 -0.11627868712E+03  0.12774890513E+03  0.00000000000E+00 0.  1.
</event>
<event>
 6    1  0.1726037E-005  0.1470436E+03  0.7818608E-02  0.1314921E+00
          2   -1    0    0  502    0  0.00000000000E+00  0.00000000000E+00  0.33668798091E+03  0.33668798091E+03  0.00000000000E+00 0.  1.
          1   -1    0    0  501    0 -0.00000000000E+00 -0.00000000000E+00 -0.25331928082E+03  0.25331928082E+03  0.00000000000E+00 0. -1.
          2    1    1    2  501    0  0.15750322170E+03  0.15275597027E+03  0.12543436365E+03  0.25273589156E+03  0.00000000000E+00 0.  1.
          1    1    1    2  502    0 -0.43598378186E+02 -0.13823791526E+03 -0.76038207151E+02  0.16368368502E+03  0.00000000000E+00 0. -1.
         22    1    1    2    0    0 -0.11601944622E+03 -0.16502043116E+01 -0.20279813183E+02  0.11779009253E+03  0.00000000000E+00 0.  1.
         22    1    1    2    0    0  0.21146027071E+01 -0.12867850694E+02  0.54252356777E+02  0.55797592618E+02  0.00000000000E+00 0. -1.
</event>
<event>
 6    1  0.1726037E-005  0.5723248E+02  0.7818608E-02  0.1430005E+00
          2   -1    0    0  502    0  0.00000000000E+00  0.00000000000E+00  0.12622069343E+03  0.12622069343E+03  0.00000000000E+00 0. -1.
          1   -1    0    0  501    0 -0.00000000000E+00 -0.00000000000E+00 -0.96337639461E+02  0.96337639461E+02  0.00000000000E+00 0.  1.
          2    1    1    2  501    0  0.15555523636E+02  0.21569238666E+02  0.50635749428E+02  0.57194278494E+02  0.00000000000E+00 0. -1.
          1    1    1    2  502    0  0.44841083250E+01 -0.30919655424E+02 -0.24930081790E+02  0.39970505340E+02  0.00000000000E+00 0.  1.
         22    1    1    2    0    0 -0.55451686954E+01 -0.30026237975E+02 -0.48951358158E+02  0.57693668008E+02  0.00000000000E+00 0.  1.
         22    1    1    2    0    0 -0.14494463266E+02  0.39376654733E+02  0.53128744491E+02  0.67699881053E+02  0.00000000000E+00 0.  1.
</event>
<event>
 6    1  0.1726037E-005  0.6865418E+02  0.7818608E-02  0.1450322E+00
          2   -1    0    0  502    0  0.00000000000E+00  0.00000000000E+00  0.24719411988E+03  0.24719411988E+03  0.00000000000E+00 0.  1.
          1   -1    0    0  501    0 -0.00000000000E+00 -0.00000000000E+00 -0.89410648105E+02  0.89410648105E+02  0.00000000000E+00 0. -1.
          2    1    1    2  501    0 -0.17236363312E+02  0.40785170847E+02  0.12406279128E+03  0.13172736451E+03  0.00000000000E+00 0.  1.
          1    1    1    2  502    0  0.48781688969E+02 -0.46721706843E+02 -0.16816339921E+02  0.69608622722E+02  0.00000000000E+00 0. -1.
         22    1    1    2    0    0 -0.14353317672E+02 -0.10768115961E+02 -0.38812523317E+02  0.42759583906E+02  0.00000000000E+00 0. -1.
         22    1    1    2    0    0 -0.17192007985E+02  0.16704651957E+02  0.89349543736E+02  0.92509196848E+02  0.00000000000E+00 0.  1.
</event>
<event>
 6    1  0.1726037E-005  0.2652658E+03  0.7818608E-02  0.1104251E+00
          2   -1    0    0  502    0  0.00000000000E+00  0.00000000000E+00  0.19954334844E+04  0.19954334844E+04  0.00000000000E+00 0. -1.
          1   -1    0    0  501    0 -0.00000000000E+00 -0.00000000000E+00 -0.35840479421E+02  0.35840479421E+02  0.00000000000E+00 0. -1.
          2    1    1    2  501    0 -0.88934219116E+01  0.24573263384E+03  0.10351036216E+04  0.10639093607E+04  0.00000000000E+00 0. -1.
          1    1    1    2  502    0  0.59354563402E+01 -0.45068811036E+02  0.22785824367E+03  0.23234845939E+03  0.00000000000E+00 0. -1.
         22    1    1    2    0    0  0.11370801141E+02  0.13155144818E+02  0.92186891601E+02  0.93812450863E+02  0.00000000000E+00 0.  1.
         22    1    1    2    0    0 -0.84128355696E+01 -0.21381896762E+03  0.60444424812E+03  0.64120369291E+03  0.00000000000E+00 0. -1.
</event>
<event>
 6    1  0.1726037E-005  0.7354827E+02  0.7818608E-02  0.1417919E+00
          2   -1    0    0  502    0  0.00000000000E+00  0.00000000000E+00  0.19938364851E+03  0.19938364851E+03  0.00000000000E+00 0.  1.
          1   -1    0    0  501    0 -0.00000000000E+00 -0.00000000000E+00 -0.86228787772E+02  0.86228787772E+02  0.00000000000E+00 0.  1.
          2    1    1    2  501    0  0.13913476518E+02  0.56833132169E+02  0.29143786944E+02  0.65367805978E+02  0.00000000000E+00 0.  1.
          1    1    1    2  502    0 -0.23862776528E+02  0.14741227068E+01 -0.31894871159E+02  0.39860857337E+02  0.00000000000E+00 0.  1.
         22    1    1    2    0    0  0.20543918879E+02 -0.37011492479E+02 -0.16815002123E+02  0.45548298265E+02  0.00000000000E+00 0.  1.
         22    1    1    2    0    0 -0.10594618869E+02 -0.21295762397E+02  0.13272094707E+03  0.13483547470E+03  0.00000000000E+00 0.  1.
</event>
<event>
 6    1  0.1726037E-005  0.4325925E+02  0.7818608E-02  0.1556238E+00
          2   -1    0    0  502    0  0.00000000000E+00  0.00000000000E+00  0.95445366863E+02  0.95445366863E+02  0.00000000000E+00 0. -1.
          1   -1    0    0  501    0 -0.00000000000E+00 -0.00000000000E+00 -0.16841285442E+03  0.16841285442E+03  0.00000000000E+00 0. -1.
          2    1    1    2  501    0 -0.62058096422E+02 -0.15274530433E+02 -0.44775063100E+02  0.78034126426E+02  0.00000000000E+00 0. -1.
          1    1    1    2  502    0  0.53569580526E+02 -0.60617447240E+01 -0.14718441723E+02  0.55884499045E+02  0.00000000000E+00 0. -1.
         22    1    1    2    0    0 -0.88121175992E+01 -0.10071251535E+02  0.52863663640E+02  0.54531187934E+02  0.00000000000E+00 0. -1.
         22    1    1    2    0    0  0.17300633495E+02  0.31407526692E+02 -0.66337646377E+02  0.75408407881E+02  0.00000000000E+00 0.  1.
</event>
<event>
 6    1  0.1726037E-005  0.9699144E+02  0.7818608E-02  0.1331751E+00
          2   -1    0    0  502    0  0.00000000000E+00  0.00000000000E+00  0.61455655536E+02  0.61455655536E+02  0.00000000000E+00 0. -1.
          1   -1    0    0  501    0 -0.00000000000E+00 -0.00000000000E+00 -0.37299887829E+03  0.37299887829E+03  0.00000000000E+00 0. -1.
          2    1    1    2  501    0 -0.86542588919E+02 -0.25238976280E+02 -0.20719284933E+03  0.22595464685E+03  0.00000000000E+00 0. -1.
          1    1    1    2  502    0  0.35193066149E+02  0.11592230949E+02 -0.43916870898E+02  0.57459753505E+02  0.00000000000E+00 0. -1.
         22    1    1    2    0    0  0.87963028792E+01 -0.41896479966E+02  0.17550114360E+02  0.46267661406E+02  0.00000000000E+00 0. -1.
         22    1    1    2    0    0  0.42553219891E+02  0.55543225298E+02 -0.77983616887E+02  0.10477247206E+03  0.00000000000E+00 0. -1.
</event>
<event>
 6    1  0.1726037E-005  0.1104835E+03  0.7818608E-02  0.1340814E+00
          2   -1    0    0  502    0  0.00000000000E+00  0.00000000000E+00  0.48675961022E+02  0.48675961022E+02  0.00000000000E+00 0. -1.
          1   -1    0    0  501    0 -0.00000000000E+00 -0.00000000000E+00 -0.60066922530E+03  0.60066922530E+03  0.00000000000E+00 0. -1.
          2    1    1    2  501    0  0.49188838975E+02  0.49907091902E+02 -0.22104936257E+03  0.23189023350E+03  0.00000000000E+00 0. -1.
          1    1    1    2  502    0 -0.25734438087E+02 -0.10552482617E+02 -0.26474757302E+03  0.26620460855E+03  0.00000000000E+00 0. -1.
         22    1    1    2    0    0  0.24620013216E+02 -0.23597190277E+01  0.29158790680E+02  0.38235433809E+02  0.00000000000E+00 0. -1.
         22    1    1    2    0    0 -0.48074414103E+02 -0.36994890258E+02 -0.95355119379E+02  0.11301491047E+03  0.00000000000E+00 0. -1.
</event>
<event>
 6    1  0.1726037E-005  0.1921242E+03  0.7818608E-02  0.1216218E+00
          2   -1    0    0  502    0  0.00000000000E+00  0.00000000000E+00  0.22285817052E+03  0.22285817052E+03  0.00000000000E+00 0.  1.
          1   -1    0    0  501    0 -0.00000000000E+00 -0.00000000000E+00 -0.25128818597E+03  0.25128818597E+03  0.00000000000E+00 0.  1.
          2    1    1    2  501    0  0.14688812420E+03  0.57846172850E+02  0.23480434192E+02  0.15960461001E+03  0.00000000000E+00 0.  1.
          1    1    1    2  502    0 -0.15150563685E+03 -0.96055068688E+02 -0.75570887368E+01  0.17954844418E+03  0.00000000000E+00 0.  1.
         22    1    1    2    0    0  0.32569159300E+02 -0.43952698221E+01  0.30238177721E+02  0.44658884067E+02  0.00000000000E+00 0.  1.
         22    1    1    2    0    0 -0.27951646658E+02  0.42604165660E+02 -0.74591538627E+02  0.90334418232E+02  0.00000000000E+00 0.  1.
</event>
<event>
 6    1  0.1726037E-005  0.6441072E+02  0.7818608E-02  0.1419912E+00
          2   -1    0    0  502    0  0.00000000000E+00  0.00000000000E+00  0.95423008874E+03  0.95423008874E+03  0.00000000000E+00 0. -1.
          1   -1    0    0  501    0 -0.00000000000E+00 -0.00000000000E+00 -0.49349088287E+02  0.49349088287E+02  0.00000000000E+00 0.  1.
          2    1    1    2  501    0 -0.93425376086E+02  0.50458923651E+02  0.60144888987E+03  0.61074967949E+03  0.00000000000E+00 0. -1.
          1    1    1    2  502    0  0.71380510846E+02 -0.74977377711E+02  0.71577731635E+02  0.12585768218E+03  0.00000000000E+00 0.  1.
         22    1    1    2    0    0 -0.23753912778E+02  0.82903012040E+01 -0.46005924616E+01  0.25576217807E+02  0.00000000000E+00 0.  1.
         22    1    1    2    0    0  0.45798778018E+02  0.16228152856E+02  0.23645497141E+03  0.24139559755E+03  0.00000000000E+00 0.  1.
</event>
<event>
 6    1  0.1726037E-005  0.4285737E+02  0.7818608E-02  0.1541319E+00
          2   -1    0    0  502    0  0.00000000000E+00  0.00000000000E+00  0.24599902456E+03  0.24599902456E+03  0.00000000000E+00 0.  1.
          1   -1    0    0  501    0 -0.00000000000E+00 -0.00000000000E+00 -0.17351455542E+03  0.17351455542E+03  0.00000000000E+00 0.  1.
          2    1    1    2  501    0 -0.13042125503E+02  0.26647460563E+02  0.11566062175E+03  0.11940504016E+03  0.00000000000E+00 0.  1.
          1    1    1    2  502    0  0.23496638592E+02 -0.21443846311E+02 -0.13927986939E+03  0.14286641519E+03  0.00000000000E+00 0.  1.
         22    1    1    2    0    0  0.10292534094E+02 -0.23266278434E+01 -0.28759520045E+02  0.30634285505E+02  0.00000000000E+00 0.  1.
         22    1    1    2    0    0 -0.20747047183E+02 -0.28769864090E+01  0.12486323683E+03  0.12660783913E+03  0.00000000000E+00 0.  1.
</event>
<event>
 6    1  0.1726037E-005  0.7064600E+02  0.7818608E-02  0.1475872E+00
          2   -1    0    0  502    0  0.00000000000E+00  0.00000000000E+00  0.30123654750E+02  0.30123654750E+02  0.00000000000E+00 0.  1.
          1   -1    0    0  501    0 -0.00000000000E+00 -0.00000000000E+00 -0.69096818094E+03  0.69096818094E+03  0.00000000000E+00 0.  1.
          2    1    1    2  501    0  0.35734753306E+02  0.37419730388E+02 -0.20191452664E+03  0.20843868375E+03  0.00000000000E+00 0.  1.
          1    1    1    2  502    0 -0.16400191317E+02 -0.40636020445E+02 -0.33503997465E+03  0.33789352916E+03  0.00000000000E+00 0.  1.
         22    1    1    2    0    0  0.10066248450E+02  0.53074223806E+01  0.22616211354E+02  0.25317802160E+02  0.00000000000E+00 0.  1.
         22    1    1    2    0    0 -0.29400810439E+02 -0.20911323227E+01 -0.14650623625E+03  0.14944182062E+03  0.00000000000E+00 0.  1.
</event>
<event>
 6    1  0.1726037E-005  0.1828488E+03  0.7818608E-02  0.1268448E+00
          2   -1    0    0  502    0  0.00000000000E+00  0.00000000000E+00  0.14775951192E+03  0.14775951192E+03  0.00000000000E+00 0. -1.
          1   -1    0    0  501    0 -0.00000000000E+00 -0.00000000000E+00 -0.36905255637E+03  0.36905255637E+03  0.00000000000E+00 0.  1.
          2    1    1    2  501    0 -0.18233922208E+03 -0.30387237167E+02 -0.84104362915E+02  0.20308746873E+03  0.00000000000E+00 0. -1.
          1    1    1    2  502    0  0.98443347115E+02  0.48706315124E+02 -0.11695164281E+03  0.16044028322E+03  0.00000000000E+00 0.  1.
         22    1    1    2    0    0  0.63360405291E+02 -0.18562306186E+02 -0.71944420376E+02  0.97647835577E+02  0.00000000000E+00 0. -1.
         22    1    1    2    0    0  0.20535469676E+02  0.24322822940E+00  0.51707381654E+02  0.55636480768E+02  0.00000000000E+00 0. -1.
</event>
<event>
 6    1  0.1726037E-005  0.8709962E+02  0.7818608E-02  0.1414231E+00
          2   -1    0    0  502    0  0.00000000000E+00  0.00000000000E+00  0.66094029704E+02  0.66094029704E+02  0.00000000000E+00 0.  1.
          1   -1    0    0  501    0 -0.00000000000E+00 -0.00000000000E+00 -0.19145460284E+03  0.19145460284E+03  0.00000000000E+00 0.  1.
          2    1    1    2  501    0  0.51091436727E+02  0.77302224010E+01  0.53606799379E+01  0.51950246723E+02  0.00000000000E+00 0.  1.
          1    1    1    2  502    0 -0.30472879751E+02  0.38242550415E+01 -0.14091909930E+02  0.33790579344E+02  0.00000000000E+00 0.  1.
         22    1    1    2    0    0  0.15141605207E+02 -0.78958648996E+00  0.22845859565E+02  0.27419426587E+02  0.00000000000E+00 0.  1.
         22    1    1    2    0    0 -0.35760162183E+02 -0.10764890953E+02 -0.13947520271E+03  0.14438837989E+03  0.00000000000E+00 0.  1.
</event>
<event>
 6    1  0.1726037E-005  0.3997198E+02  0.7818608E-02  0.1577920E+00
          2   -1    0    0  502    0  0.00000000000E+00  0.00000000000E+00  0.12334512095E+03  0.12334512095E+03  0.00000000000E+00 0.  1.
          1   -1    0    0  501    0 -0.00000000000E+00 -0.00000000000E+00 -0.19568799498E+03  0.19568799498E+03  0.00000000000E+00 0. -1.
          2    1    1    2  501    0  0.45861271782E+02  0.24768172389E+02  0.51623698918E+02  0.73360240614E+02  0.00000000000E+00 0.  1.
          1    1    1    2  502    0 -0.22715841398E+02 -0.12245254541E+02 -0.11001790938E+03  0.11300396494E+03  0.00000000000E+00 0. -1.
         22    1    1    2    0    0 -0.69414260213E+01 -0.11639126659E+02 -0.71551625581E+02  0.72823676012E+02  0.00000000000E+00 0.  1.
         22    1    1    2    0    0 -0.16204004363E+02 -0.88379118958E+00  0.57602962005E+02  0.59845234363E+02  0.00000000000E+00 0.  1.
</event>
<event>
 6    1  0.1726037E-005  0.9520664E+02  0.7818608E-02  0.1344268E+00
          2   -1    0    0  502    0  0.00000000000E+00  0.00000000000E+00  0.15167597356E+02  0.15167597356E+02  0.00000000000E+00 0. -1.
          1   -1    0    0  501    0 -0.00000000000E+00 -0.00000000000E+00 -0.66101505029E+03  0.66101505029E+03  0.00000000000E+00 0.  1.
          2    1    1    2  501    0  0.23761120333E+02 -0.34484451354E+01 -0.35272339666E+02  0.42668730458E+02  0.00000000000E+00 0. -1.
          1    1    1    2  502    0  0.23823511616E+02 -0.14043747793E+02 -0.14662714743E+03  0.14921228810E+03  0.00000000000E+00 0.  1.
         22    1    1    2    0    0 -0.50830540016E+02  0.53761675498E+02 -0.42334501528E+03  0.42976163570E+03  0.00000000000E+00 0.  1.
         22    1    1    2    0    0  0.32459080664E+01 -0.36269482570E+02 -0.40602950554E+02  0.54539993388E+02  0.00000000000E+00 0. -1.
</event>
<event>
 6    1  0.1726037E-005  0.1158201E+03  0.7818608E-02  0.1277334E+00
          2   -1    0    0  502    0  0.00000000000E+00  0.00000000000E+00  0.13745891181E+03  0.13745891181E+03  0.00000000000E+00 0. -1.
          1   -1    0    0  501    0 -0.00000000000E+00 -0.00000000000E+00 -0.64600064279E+03  0.64600064279E+03  0.00000000000E+00 0. -1.
          2    1    1    2  501    0  0.33608577679E+02 -0.16915029313E+03 -0.12125543196E+03  0.21081802091E+03  0.00000000000E+00 0. -1.
          1    1    1    2  502    0  0.57977149133E+02  0.16845800001E+03 -0.37781723959E+03  0.41771439300E+03  0.00000000000E+00 0. -1.
         22    1    1    2    0    0 -0.25730249217E+02  0.35679611870E+02 -0.52765491920E+02  0.68696998228E+02  0.00000000000E+00 0.  1.
         22    1    1    2    0    0 -0.65855477594E+02 -0.34987318753E+02  0.43296432487E+02  0.86230142461E+02  0.00000000000E+00 0. -1.
</event>
<event>
 6    1  0.1726037E-005  0.1196190E+03  0.7818608E-02  0.1360602E+00
          2   -1    0    0  502    0  0.00000000000E+00  0.00000000000E+00  0.10722993148E+03  0.10722993148E+03  0.00000000000E+00 0.  1.
          1   -1    0    0  501    0 -0.00000000000E+00 -0.00000000000E+00 -0.33307784302E+03  0.33307784302E+03  0.00000000000E+00 0. -1.
          2    1    1    2  501    0 -0.13975527947E+02  0.10654938086E+03 -0.59972209970E+02  0.12306401551E+03  0.00000000000E+00 0.  1.
          1    1    1    2  502    0  0.19453655512E+02 -0.98085032573E+02 -0.16319342600E+03  0.19139282279E+03  0.00000000000E+00 0. -1.
         22    1    1    2    0    0 -0.35216341033E+01  0.13455213509E+02  0.58865950263E+02  0.60486732245E+02  0.00000000000E+00 0.  1.
         22    1    1    2    0    0 -0.19564934625E+01 -0.21919561799E+02 -0.61548225836E+02  0.65364203963E+02  0.00000000000E+00 0. -1.
</event>
<event>
 6    1  0.1726037E-005  0.1292070E+03  0.7818608E-02  0.1345223E+00
          2   -1    0    0  502    0  0.00000000000E+00  0.00000000000E+00  0.28901890023E+02  0.28901890023E+02  0.00000000000E+00 0.  1.
          1   -1    0    0  501    0 -0.00000000000E+00 -0.00000000000E+00 -0.11338118347E+04  0.11338118347E+04  0.00000000000E+00 0.  1.
          2    1    1    2  501    0  0.88545951860E+02 -0.78791985046E+02 -0.37946559309E+03  0.39754584495E+03  0.00000000000E+00 0.  1.
          1    1    1    2  502    0 -0.52015882018E+02  0.66191248492E+02 -0.47625640874E+03  0.48363943204E+03  0.00000000000E+00 0.  1.
         22    1    1    2    0    0 -0.45035825372E+02  0.10664866281E+01 -0.25981209656E+03  0.26368862031E+03  0.00000000000E+00 0.  1.
         22    1    1    2    0    0  0.85057555300E+01  0.11534249926E+02  0.10624153746E+02  0.17839827391E+02  0.00000000000E+00 0.  1.
</event>
<event>
 6    1  0.1726037E-005  0.5677035E+02  0.7818608E-02  0.1491991E+00
          2   -1    0    0  502    0  0.00000000000E+00  0.00000000000E+00  0.11544083569E+03  0.11544083569E+03  0.00000000000E+00 0. -1.
          1   -1    0    0  501    0 -0.00000000000E+00 -0.00000000000E+00 -0.28799871497E+03  0.28799871497E+03  0.00000000000E+00 0.  1.
          2    1    1    2  501    0 -0.29141709879E+02  0.33729052872E+02  0.38483936926E+02  0.58888892532E+02  0.00000000000E+00 0. -1.
          1    1    1    2  502    0  0.30934317584E+02 -0.20502183133E+02 -0.21491928934E+03  0.21809991391E+03  0.00000000000E+00 0.  1.
         22    1    1    2    0    0 -0.17171589944E+02 -0.32967414415E+01  0.62571242999E+02  0.64968395823E+02  0.00000000000E+00 0. -1.
         22    1    1    2    0    0  0.15378982240E+02 -0.99301282981E+01 -0.58693769865E+02  0.61482348391E+02  0.00000000000E+00 0.  1.
</event>
<event>
 6    1  0.1726037E-005  0.7363249E+02  0.7818608E-02  0.1352804E+00
          2   -1    0    0  502    0  0.00000000000E+00  0.00000000000E+00  0.44023467014E+03  0.44023467014E+03  0.00000000000E+00 0. -1.
          1   -1    0    0  501    0 -0.00000000000E+00 -0.00000000000E+00 -0.10173387036E+03  0.10173387036E+03  0.00000000000E+00 0.  1.
          2    1    1    2  501    0  0.10406090090E+03  0.11861294800E+03  0.11294704969E+03  0.19404828926E+03  0.00000000000E+00 0. -1.
          1    1    1    2  502    0 -0.88263243360E+02 -0.10973873677E+03  0.10839552247E+03  0.17771488336E+03  0.00000000000E+00 0.  1.
         22    1    1    2    0    0 -0.17184692627E+02  0.29275696594E+02  0.12644028972E+03  0.13091801609E+03  0.00000000000E+00 0.  1.
         22    1    1    2    0    0  0.13870350869E+01 -0.38149907825E+02 -0.92820621078E+01  0.39287351786E+02  0.00000000000E+00 0.  1.
</event>
<event>
 6    1  0.1726037E-005  0.4604321E+02  0.7818608E-02  0.1556029E+00
          2   -1    0    0  502    0  0.00000000000E+00  0.00000000000E+00  0.76753951568E+02  0.76753951568E+02  0.00000000000E+00 0. -1.
          1   -1    0    0  501    0 -0.00000000000E+00 -0.00000000000E+00 -0.23787267823E+03  0.23787267823E+03  0.00000000000E+00 0.  1.
          2    1    1    2  501    0  0.24201409199E+02 -0.12359730224E+02  0.83681161993E+01  0.28434072997E+02  0.00000000000E+00 0. -1.
          1    1    1    2  502    0 -0.60007365527E+02 -0.33542466027E+01 -0.14566806248E+03  0.15757956502E+03  0.00000000000E+00 0.  1.
         22    1    1    2    0    0  0.28324067312E+02  0.27521592909E+02 -0.69994729235E+02  0.80367611549E+02  0.00000000000E+00 0.  1.
         22    1    1    2    0    0  0.74818890155E+01 -0.11807616082E+02  0.46175948852E+02  0.48245380226E+02  0.00000000000E+00 0. -1.
</event>
<event>
 6    1  0.1726037E-005  0.7005968E+02  0.7818608E-02  0.1459325E+00
          2   -1    0    0  502    0  0.00000000000E+00  0.00000000000E+00  0.13699697719E+03  0.13699697719E+03  0.00000000000E+00 0. -1.
          1   -1    0    0  501    0 -0.00000000000E+00 -0.00000000000E+00 -0.11231257489E+03  0.11231257489E+03  0.00000000000E+00 0. -1.
          2    1    1    2  501    0  0.36767189276E+02  0.58753611587E+02  0.28100165420E+01  0.69366485241E+02  0.00000000000E+00 0. -1.
          1    1    1    2  502    0 -0.29251752627E+02 -0.15104431103E+02 -0.24507247146E+02  0.41041613435E+02  0.00000000000E+00 0. -1.
         22    1    1    2    0    0 -0.16466819154E+02 -0.31861993728E+02 -0.38570843404E+02  0.52669276986E+02  0.00000000000E+00 0. -1.
         22    1    1    2    0    0  0.89513825051E+01 -0.11787186756E+02  0.84952476300E+02  0.86232176418E+02  0.00000000000E+00 0.  1.
</event>
<event>
 6    1  0.2251532E-005  0.3427297E+02  0.7818608E-02  0.1649612E+00
          2   -1    0    0  502    0  0.00000000000E+00  0.00000000000E+00  0.15321503658E+03  0.15321503658E+03  0.00000000000E+00 0.  1.
          1   -1    0    0  501    0 -0.00000000000E+00 -0.00000000000E+00 -0.10193697916E+03  0.10193697916E+03  0.00000000000E+00 0. -1.
          2    1    1    2  501    0  0.36543784985E+01 -0.23177796696E+02  0.87239737664E+02  0.90340116059E+02  0.00000000000E+00 0.  1.
          1    1    1    2  502    0 -0.14516587651E+01  0.22544611594E+02 -0.36805284548E+02  0.43185597087E+02  0.00000000000E+00 0. -1.
         22    1    1    2    0    0  0.45239933538E+00  0.11016209375E+02 -0.59411318881E+02  0.60425709307E+02  0.00000000000E+00 0. -1.
         22    1    1    2    0    0 -0.26551190688E+01 -0.10383024273E+02  0.60254923184E+02  0.61200593284E+02  0.00000000000E+00 0. -1.
</event>
<event>
 6    1  0.1726037E-005  0.7102244E+02  0.7818608E-02  0.1394533E+00
          2   -1    0    0  502    0  0.00000000000E+00  0.00000000000E+00  0.12400867957E+03  0.12400867957E+03  0.00000000000E+00 0.  1.
          1   -1    0    0  501    0 -0.00000000000E+00 -0.00000000000E+00 -0.87331306310E+02  0.87331306310E+02  0.00000000000E+00 0. -1.
          2    1    1    2  501    0  0.35251013053E+02 -0.10537157903E+02  0.58921652726E+01  0.37261014875E+02  0.00000000000E+00 0.  1.
          1    1    1    2  502    0 -0.42216224840E+02 -0.14127716976E+02  0.26906330408E+01  0.44598671873E+02  0.00000000000E+00 0. -1.
         22    1    1    2    0    0  0.25966393926E+02  0.27918298996E+02  0.72031746115E+02  0.81500045894E+02  0.00000000000E+00 0. -1.
         22    1    1    2    0    0 -0.19001182139E+02 -0.32534241165E+01 -0.43937171164E+02  0.47980253241E+02  0.00000000000E+00 0. -1.
</event>
<event>
 6    1  0.1726037E-005  0.9006485E+02  0.7818608E-02  0.1303321E+00
          2   -1    0    0  502    0  0.00000000000E+00  0.00000000000E+00  0.20802644653E+03  0.20802644653E+03  0.00000000000E+00 0. -1.
          1   -1    0    0  501    0 -0.00000000000E+00 -0.00000000000E+00 -0.53626497807E+03  0.53626497807E+03  0.00000000000E+00 0.  1.
          2    1    1    2  501    0  0.63390588650E+02 -0.84264712352E+01  0.16053447467E+03  0.17280245862E+03  0.00000000000E+00 0. -1.
          1    1    1    2  502    0 -0.73842080097E+02 -0.11825037152E+01 -0.43111086883E+03  0.43739070902E+03  0.00000000000E+00 0.  1.
         22    1    1    2    0    0 -0.13319895771E+02  0.72767277826E+01 -0.91460694012E+02  0.92711536174E+02  0.00000000000E+00 0. -1.
         22    1    1    2    0    0  0.23771387219E+02  0.23322471678E+01  0.33798556638E+02  0.41386720793E+02  0.00000000000E+00 0. -1.
</event>
<event>
 6    1  0.1726037E-005  0.7966897E+02  0.7818608E-02  0.1366734E+00
          2   -1    0    0  502    0  0.00000000000E+00  0.00000000000E+00  0.86591496444E+03  0.86591496444E+03  0.00000000000E+00 0. -1.
          1   -1    0    0  501    0 -0.00000000000E+00 -0.00000000000E+00 -0.43234910401E+02  0.43234910401E+02  0.00000000000E+00 0.  1.
          2    1    1    2  501    0  0.31579885127E+02  0.17893773610E+02  0.60698549027E+03  0.60806978356E+03  0.00000000000E+00 0. -1.
          1    1    1    2  502    0 -0.22301097718E+02 -0.39603103773E+02 -0.50167498021E+01  0.45726497421E+02  0.00000000000E+00 0.  1.
         22    1    1    2    0    0  0.24119168350E+02  0.34983027442E+02  0.21476226423E+03  0.21892550475E+03  0.00000000000E+00 0. -1.
         22    1    1    2    0    0 -0.33397955760E+02 -0.13273697279E+02  0.59490493393E+01  0.36428089113E+02  0.00000000000E+00 0.  1.
</event>
<event>
 6    1  0.1726037E-005  0.1444779E+03  0.7818608E-02  0.1279992E+00
          2   -1    0    0  502    0  0.00000000000E+00  0.00000000000E+00  0.27305183046E+03  0.27305183046E+03  0.00000000000E+00 0. -1.
          1   -1    0    0  501    0 -0.00000000000E+00 -0.00000000000E+00 -0.35913320250E+03  0.35913320250E+03  0.00000000000E+00 0.  1.
          2    1    1    2  501    0 -0.15441343043E+03 -0.62561487115E+02 -0.47083900744E+02  0.17313099340E+03  0.00000000000E+00 0. -1.
          1    1    1    2  502    0  0.10721104991E+03  0.59179739000E+02 -0.20828811272E+03  0.24162033985E+03  0.00000000000E+00 0.  1.
         22    1    1    2    0    0  0.14340802713E+02 -0.23101159283E+01 -0.20283513220E+02  0.24948269811E+02  0.00000000000E+00 0.  1.
         22    1    1    2    0    0  0.32861577805E+02  0.56918640425E+01  0.18957415464E+03  0.19248542989E+03  0.00000000000E+00 0.  1.
</event>
<event>
 6    1  0.2922088E-005  0.1429750E+03  0.7818608E-02  0.1285662E+00
          2   -1    0    0  502    0  0.00000000000E+00  0.00000000000E+00  0.34758447635E+03  0.34758447635E+03  0.00000000000E+00 0.  1.
          1   -1    0    0  501    0 -0.00000000000E+00 -0.00000000000E+00 -0.10803051090E+04  0.10803051090E+04  0.00000000000E+00 0.  1.
          2    1    1    2  501    0  0.42973048420E+03 -0.34265063157E+02  0.90115704334E+02  0.44041256087E+03  0.00000000000E+00 0.  1.
          1    1    1    2  502    0 -0.39207030795E+03 -0.89611954877E+01 -0.71615976061E+03  0.81650733746E+03  0.00000000000E+00 0.  1.
         22    1    1    2    0    0 -0.10240665171E+02  0.27249154527E+01  0.26797412126E+02  0.28816621663E+02  0.00000000000E+00 0. -1.
         22    1    1    2    0    0 -0.27419511075E+02  0.40501343192E+02 -0.13347398850E+03  0.14215306537E+03  0.00000000000E+00 0.  1.
</event>
<event>
 6    1  0.1726037E-005  0.1344640E+03  0.7818608E-02  0.1268223E+00
          2   -1    0    0  502    0  0.00000000000E+00  0.00000000000E+00  0.18489649003E+03  0.18489649003E+03  0.00000000000E+00 0. -1.
          1   -1    0    0  501    0 -0.00000000000E+00 -0.00000000000E+00 -0.15219734812E+03  0.15219734812E+03  0.00000000000E+00 0. -1.
          2    1    1    2  501    0 -0.53549295521E+02  0.90786504653E+02 -0.16036989735E+02  0.10661567201E+03  0.00000000000E+00 0. -1.
          1    1    1    2  502    0  0.44181494948E+02 -0.91251599771E+02  0.39283685399E+01  0.10146078571E+03  0.00000000000E+00 0. -1.
         22    1    1    2    0    0 -0.47431449799E+02  0.20985704142E+02  0.44935706795E+02  0.68624776529E+02  0.00000000000E+00 0. -1.
         22    1    1    2    0    0  0.56799250373E+02 -0.20520609025E+02 -0.12794369077E+00  0.60392603912E+02  0.00000000000E+00 0. -1.
</event>
<event>
 6    1  0.1726037E-005  0.1293966E+03  0.7818608E-02  0.1301048E+00
          2   -1    0    0  502    0  0.00000000000E+00  0.00000000000E+00  0.15167548634E+03  0.15167548634E+03  0.00000000000E+00 0. -1.
          1   -1    0    0  501    0 -0.00000000000E+00 -0.00000000000E+00 -0.22042765000E+03  0.22042765000E+03  0.00000000000E+00 0. -1.
          2    1    1    2  501    0  0.68992305073E+02  0.82008729034E+02 -0.51017344391E+01  0.10729118086E+03  0.00000000000E+00 0. -1.
          1    1    1    2  502    0 -0.79896543227E+02 -0.57960620215E+02 -0.89792984085E+02  0.13343789232E+03  0.00000000000E+00 0. -1.
         22    1    1    2    0    0  0.28252574529E+02  0.13480672645E+02  0.66561250709E+02  0.73554990302E+02  0.00000000000E+00 0.  1.
         22    1    1    2    0    0 -0.17348336375E+02 -0.37528781464E+02 -0.40418695845E+02  0.57819072865E+02  0.00000000000E+00 0.  1.
</event>
<event>
 6    1  0.1726037E-005  0.2244816E+02  0.7818608E-02  0.1725431E+00
          2   -1    0    0  502    0  0.00000000000E+00  0.00000000000E+00  0.26053454466E+03  0.26053454466E+03  0.00000000000E+00 0. -1.
          1   -1    0    0  501    0 -0.00000000000E+00 -0.00000000000E+00 -0.11559356872E+03  0.11559356872E+03  0.00000000000E+00 0. -1.
          2    1    1    2  501    0  0.25174010228E+01  0.24657778827E+02  0.20244383956E+03  0.20395551363E+03  0.00000000000E+00 0. -1.
          1    1    1    2  502    0  0.55885843002E+01 -0.20994249808E+02 -0.43420381833E+02  0.48552243593E+02  0.00000000000E+00 0. -1.
         22    1    1    2    0    0 -0.14289024149E+02  0.65629087587E+01  0.53102099441E+02  0.55381232810E+02  0.00000000000E+00 0. -1.
         22    1    1    2    0    0  0.61830388263E+01 -0.10226437778E+02 -0.67184581232E+02  0.68239123339E+02  0.00000000000E+00 0. -1.
</event>
<event>
 6    1  0.1726037E-005  0.4853263E+02  0.7818608E-02  0.1508778E+00
          2   -1    0    0  502    0  0.00000000000E+00  0.00000000000E+00  0.39315531434E+03  0.39315531434E+03  0.00000000000E+00 0. -1.
          1   -1    0    0  501    0 -0.00000000000E+00 -0.00000000000E+00 -0.15481544761E+03  0.15481544761E+03  0.00000000000E+00 0. -1.
          2    1    1    2  501    0  0.70356285741E+02 -0.11363870054E+02  0.33920984185E+03  0.34661572569E+03  0.00000000000E+00 0. -1.
          1    1    1    2  502    0 -0.39675016352E+02 -0.68504530551E+01 -0.31172699586E+02  0.50919277578E+02  0.00000000000E+00 0. -1.
         22    1    1    2    0    0  0.31149207300E+01  0.15214390880E+02  0.36117299472E+02  0.39314625042E+02  0.00000000000E+00 0. -1.
         22    1    1    2    0    0 -0.33796190119E+02  0.29999322295E+01 -0.10581457500E+03  0.11112113365E+03  0.00000000000E+00 0. -1.
</event>
<event>
 6    1  0.1726037E-005  0.2241774E+03  0.7818608E-02  0.1201931E+00
          2   -1    0    0  502    0  0.00000000000E+00  0.00000000000E+00  0.18743210121E+03  0.18743210121E+03  0.00000000000E+00 0.  1.
          1   -1    0    0  501    0 -0.00000000000E+00 -0.00000000000E+00 -0.89313190668E+03  0.89313190668E+03  0.00000000000E+00 0. -1.
          2    1    1    2  501    0  0.23846263229E+03 -0.95928219217E+02 -0.17829926965E+02  0.25765200666E+03  0.00000000000E+00 0.  1.
          1    1    1    2  502    0 -0.17394063388E+03  0.95513991536E+02 -0.65134386449E+03  0.68090167903E+03  0.00000000000E+00 0. -1.
         22    1    1    2    0    0 -0.20991919114E+02  0.12446714197E+01 -0.78660334777E+02  0.81422712693E+02  0.00000000000E+00 0.  1.
         22    1    1    2    0    0 -0.43530079299E+02 -0.83044373902E+00  0.42134320758E+02  0.60587609511E+02  0.00000000000E+00 0.  1.
</event>
<event>
 6    1  0.1726037E-005  0.5975769E+02  0.7818608E-02  0.1436041E+00
          2   -1    0    0  502    0  0.00000000000E+00  0.00000000000E+00  0.65747873684E+02  0.65747873684E+02  0.00000000000E+00 0. -1.
          1   -1    0    0  501    0 -0.00000000000E+00 -0.00000000000E+00 -0.88303537438E+03  0.88303537438E+03  0.00000000000E+00 0.  1.
          2    1    1    2  501    0  0.86497700022E+01 -0.11391479252E+03 -0.25499207126E+03  0.27941430687E+03  0.00000000000E+00 0. -1.
          1    1    1    2  502    0  0.22545569858E+02  0.56441407825E+02 -0.51695827979E+03  0.52051877803E+03  0.00000000000E+00 0.  1.
         22    1    1    2    0    0 -0.38505793122E+01  0.24120941796E+02 -0.86104962467E+02  0.89502577369E+02  0.00000000000E+00 0. -1.
         22    1    1    2    0    0 -0.27344760548E+02  0.33352442901E+02  0.40767812827E+02  0.59347585794E+02  0.00000000000E+00 0. -1.
</event>
<event>
 6    1  0.1726037E-005  0.8179758E+02  0.7818608E-02  0.1326882E+00
          2   -1    0    0  502    0  0.00000000000E+00  0.00000000000E+00  0.48075557339E+03  0.48075557339E+03  0.00000000000E+00 0.  1.
          1   -1    0    0  501    0 -0.00000000000E+00 -0.00000000000E+00 -0.22308257145E+02  0.22308257145E+02  0.00000000000E+00 0.  1.
          2    1    1    2  501    0  0.25212136543E+02 -0.18477207161E+02  0.16701865994E+03  0.16991848570E+03  0.00000000000E+00 0.  1.
          1    1    1    2  502    0 -0.85783803171E+01  0.31040148832E+02  0.36825965789E+02  0.48920662349E+02  0.00000000000E+00 0.  1.
         22    1    1    2    0    0  0.23702493685E+02 -0.39853029649E+02  0.21911044072E+03  0.22396307154E+03  0.00000000000E+00 0.  1.
         22    1    1    2    0    0 -0.40336249912E+02  0.27290087979E+02  0.35492249792E+02  0.60261610949E+02  0.00000000000E+00 0.  1.
</event>
<event>
 6    1  0.1726037E-005  0.7531925E+02  0.7818608E-02  0.1353762E+00
          2   -1    0    0  502    0  0.00000000000E+00  0.00000000000E+00  0.97976591890E+03  0.97976591890E+03  0.00000000000E+00 0. -1.
          1   -1    0    0  501    0 -0.00000000000E+00 -0.00000000000E+00 -0.32208697939E+02  0.32208697939E+02  0.00000000000E+00 0. -1.
          2    1    1    2  501    0 -0.45040930842E+02  0.66506203431E+02  0.63158672248E+03  0.63667381646E+03  0.00000000000E+00 0. -1.
          1    1    1    2  502    0  0.40449143313E+02  0.94660879587E+01  0.18497753776E+02  0.45474244477E+02  0.00000000000E+00 0. -1.
         22    1    1    2    0    0 -0.13922718432E+02 -0.79466895288E+02  0.30014305261E+03  0.31079684935E+03  0.00000000000E+00 0. -1.
         22    1    1    2    0    0  0.18514505961E+02  0.34946038980E+01 -0.26703079046E+01  0.19029706558E+02  0.00000000000E+00 0.  1.
</event>
<event>
 6    1  0.1726037E-005  0.5316082E+02  0.7818608E-02  0.1429318E+00
          2   -1    0    0  502    0  0.00000000000E+00  0.00000000000E+00  0.19216887071E+03  0.19216887071E+03  0.00000000000E+00 0. -1.
          1   -1    0    0  501    0 -0.00000000000E+00 -0.00000000000E+00 -0.96305046373E+02  0.96305046373E+02  0.00000000000E+00 0. -1.
          2    1    1    2  501    0  0.64426294850E+01 -0.23979258400E+02  0.67759767250E+02  0.72165770043E+02  0.00000000000E+00 0. -1.
          1    1    1    2  502    0 -0.38861386324E+01  0.28399439033E+02 -0.58364366271E+02  0.65023299371E+02  0.00000000000E+00 0. -1.
         22    1    1    2    0    0 -0.52925529506E+01  0.22427690157E+02 -0.26511502579E+02  0.35126516644E+02  0.00000000000E+00 0. -1.
         22    1    1    2    0    0  0.27360620980E+01 -0.26847870790E+02  0.11297992594E+03  0.11615833103E+03  0.00000000000E+00 0. -1.
</event>
<event>
 6    1  0.1726037E-005  0.1113964E+03  0.7818608E-02  0.1358413E+00
          2   -1    0    0  502    0  0.00000000000E+00  0.00000000000E+00  0.22601950851E+03  0.22601950851E+03  0.00000000000E+00 0.  1.
          1   -1    0    0  501    0 -0.00000000000E+00 -0.00000000000E+00 -0.29323409756E+03  0.29323409756E+03  0.00000000000E+00 0. -1.
          2    1    1    2  501    0 -0.24357875641E+02  0.11632507424E+03  0.16729110754E+03  0.20520999894E+03  0.00000000000E+00 0.  1.
          1    1    1    2  502    0  0.12229540981E+02 -0.44375206526E+02 -0.12528353197E+03  0.13347165995E+03  0.00000000000E+00 0. -1.
         22    1    1    2    0    0  0.15989032035E+02 -0.79738968939E+01  0.25642004546E+02  0.31252913052E+02  0.00000000000E+00 0.  1.
         22    1    1    2    0    0 -0.38606973757E+01 -0.63975970822E+02 -0.13486416917E+03  0.14931903413E+03  0.00000000000E+00 0. -1.
</event>
<event>
 6    1  0.1726037E-005  0.6641350E+02  0.7818608E-02  0.1482830E+00
          2   -1    0    0  502    0  0.00000000000E+00  0.00000000000E+00  0.18324945557E+03  0.18324945557E+03  0.00000000000E+00 0.  1.
          1   -1    0    0  501    0 -0.00000000000E+00 -0.00000000000E+00 -0.15769296244E+03  0.15769296244E+03  0.00000000000E+00 0. -1.
          2    1    1    2  501    0  0.30657855604E+02 -0.66241202632E+02  0.91825962072E+02  0.11730220947E+03  0.00000000000E+00 0.  1.
          1    1    1    2  502    0 -0.12812797147E+02  0.35970780890E+02 -0.81280083725E+02  0.89802655077E+02  0.00000000000E+00 0. -1.
         22    1    1    2    0    0  0.29489423018E+01  0.12058292651E+02  0.70638231307E+02  0.71720697183E+02  0.00000000000E+00 0.  1.
         22    1    1    2    0    0 -0.20794000758E+02  0.18212129091E+02 -0.55627616528E+02  0.62116856280E+02  0.00000000000E+00 0. -1.
</event>
<event>
 6    1  0.1726037E-005  0.7200297E+02  0.7818608E-02  0.1446997E+00
          2   -1    0    0  502    0  0.00000000000E+00  0.00000000000E+00  0.14842273280E+03  0.14842273280E+03  0.00000000000E+00 0.  1.
          1   -1    0    0  501    0 -0.00000000000E+00 -0.00000000000E+00 -0.13597130167E+03  0.13597130167E+03  0.00000000000E+00 0.  1.
          2    1    1    2  501    0  0.47470188131E+02  0.40747285747E+02  0.58670056418E+02  0.85766750999E+02  0.00000000000E+00 0.  1.
          1    1    1    2  502    0 -0.30229410627E+02 -0.26154874846E+02 -0.56604155814E+02  0.69295924847E+02  0.00000000000E+00 0.  1.
         22    1    1    2    0    0 -0.39663517098E+01  0.15848450176E+02  0.64116903616E+02  0.66165569960E+02  0.00000000000E+00 0.  1.
         22    1    1    2    0    0 -0.13274425794E+02 -0.30440861077E+02 -0.53731373094E+02  0.63165788666E+02  0.00000000000E+00 0.  1.
</event>
<event>
 6    1  0.1726037E-005  0.1021615E+03  0.7818608E-02  0.1377553E+00
          2   -1    0    0  502    0  0.00000000000E+00  0.00000000000E+00  0.17627699025E+03  0.17627699025E+03  0.00000000000E+00 0.  1.
          1   -1    0    0  501    0 -0.00000000000E+00 -0.00000000000E+00 -0.86152431795E+02  0.86152431795E+02  0.00000000000E+00 0.  1.
          2    1    1    2  501    0  0.21889328316E+02  0.58804854123E+02  0.70628064551E+02  0.94474743000E+02  0.00000000000E+00 0.  1.
          1    1    1    2  502    0 -0.20483506634E+02 -0.18800726060E+02  0.18627167206E+02  0.33466590841E+02  0.00000000000E+00 0.  1.
         22    1    1    2    0    0  0.66043095513E+00 -0.56733444208E+02 -0.53245458881E+02  0.77808731850E+02  0.00000000000E+00 0.  1.
         22    1    1    2    0    0 -0.20662526376E+01  0.16729316144E+02  0.54114785582E+02  0.56679356358E+02  0.00000000000E+00 0. -1.
</event>
<event>
 6    1  0.1726037E-005  0.1247064E+03  0.7818608E-02  0.1303977E+00
          2   -1    0    0  502    0  0.00000000000E+00  0.00000000000E+00  0.34117267217E+03  0.34117267217E+03  0.00000000000E+00 0. -1.
          1   -1    0    0  501    0 -0.00000000000E+00 -0.00000000000E+00 -0.12319667745E+03  0.12319667745E+03  0.00000000000E+00 0. -1.
          2    1    1    2  501    0 -0.86603561800E+02  0.66245295870E+02  0.17108969848E+03  0.20288001643E+03  0.00000000000E+00 0. -1.
          1    1    1    2  502    0  0.91785432532E+02 -0.40096264259E+02 -0.38364578307E+02  0.10725724638E+03  0.00000000000E+00 0. -1.
         22    1    1    2    0    0 -0.27621023472E+02 -0.18310512010E+02  0.11296262633E+03  0.11772319540E+03  0.00000000000E+00 0. -1.
         22    1    1    2    0    0  0.22439152739E+02 -0.78385196002E+01 -0.27711751780E+02  0.36508891409E+02  0.00000000000E+00 0. -1.
</event>
<event>
 6    1  0.1726037E-005  0.1031941E+03  0.7818608E-02  0.1311449E+00
          2   -1    0    0  502    0  0.00000000000E+00  0.00000000000E+00  0.73481681124E+02  0.73481681124E+02  0.00000000000E+00 0.  1.
          1   -1    0    0  501    0 -0.00000000000E+00 -0.00000000000E+00 -0.33771987999E+03  0.33771987999E+03  0.00000000000E+00 0.  1.
          2    1    1    2  501    0  0.73790148467E+02  0.97638106286E+02 -0.11709971104E+03  0.16938278583E+03  0.00000000000E+00 0.  1.
          1    1    1    2  502    0 -0.24478311046E+02 -0.12779285922E+00 -0.27283602441E+02  0.36655136131E+02  0.00000000000E+00 0.  1.
         22    1    1    2    0    0 -0.96669269348E+00 -0.51034694670E+02  0.16138518799E+02  0.53534347328E+02  0.00000000000E+00 0.  1.
         22    1    1    2    0    0 -0.48345144728E+02 -0.46475618757E+02 -0.13599340419E+03  0.15162929183E+03  0.00000000000E+00 0.  1.
</event>
<event>
 6    1  0.1726037E-005  0.5442834E+02  0.7818608E-02  0.1451773E+00
          2   -1    0    0  502    0  0.00000000000E+00  0.00000000000E+00  0.12210471349E+03  0.12210471349E+03  0.00000000000E+00 0.  1.
          1   -1    0    0  501    0 -0.00000000000E+00 -0.00000000000E+00 -0.16459596895E+03  0.16459596895E+03  0.00000000000E+00 0.  1.
          2    1    1    2  501    0  0.55186833078E+02 -0.47487823595E+02  0.25850464742E+02  0.77258827731E+02  0.00000000000E+00 0.  1.
          1    1    1    2  502    0 -0.50214882539E+02 -0.19650372177E+02 -0.24293223301E+02  0.59142474191E+02  0.00000000000E+00 0.  1.
         22    1    1    2    0    0  0.19926121132E+02  0.45237238608E+02  0.37644198332E+02  0.62133273922E+02  0.00000000000E+00 0.  1.
         22    1    1    2    0    0 -0.24898071671E+02  0.21900957165E+02 -0.81692695233E+02  0.88166106594E+02  0.00000000000E+00 0.  1.
</event>
<event>
 6    1  0.1726037E-005  0.1234291E+03  0.7818608E-02  0.1288457E+00
          2   -1    0    0  502    0  0.00000000000E+00  0.00000000000E+00  0.21161673200E+03  0.21161673200E+03  0.00000000000E+00 0.  1.
          1   -1    0    0  501    0 -0.00000000000E+00 -0.00000000000E+00 -0.27233870228E+03  0.27233870228E+03  0.00000000000E+00 0.  1.
          2    1    1    2  501    0 -0.11525060710E+03  0.49299173513E+02  0.73514612622E+02  0.14531864717E+03  0.00000000000E+00 0.  1.
          1    1    1    2  502    0  0.58956867998E+02 -0.65212319951E+02 -0.17503348605E+03  0.19587057001E+03  0.00000000000E+00 0.  1.
         22    1    1    2    0    0  0.28998521768E+02  0.35163951256E+02  0.79502779821E+02  0.91641201061E+02  0.00000000000E+00 0. -1.
         22    1    1    2    0    0  0.27295217330E+02 -0.19250804818E+02 -0.38705876674E+02  0.51125016033E+02  0.00000000000E+00 0.  1.
</event>
<event>
 6    1  0.1726037E-005  0.8410104E+02  0.7818608E-02  0.1415971E+00
          2   -1    0    0  502    0  0.00000000000E+00  0.00000000000E+00  0.31224529649E+03  0.31224529649E+03  0.00000000000E+00 0.  1.
          1   -1    0    0  501    0 -0.00000000000E+00 -0.00000000000E+00 -0.23071753408E+03  0.23071753408E+03  0.00000000000E+00 0. -1.
          2    1    1    2  501    0  0.65196825432E+02 -0.48127359175E+02  0.21017423706E+03  0.22525558522E+03  0.00000000000E+00 0.  1.
          1    1    1    2  502    0 -0.56154624884E+02  0.15424728841E+02 -0.17201213500E+03  0.18160241943E+03  0.00000000000E+00 0. -1.
         22    1    1    2    0    0  0.69713751834E+01  0.14838582284E+02  0.85803195190E+02  0.87355434296E+02  0.00000000000E+00 0.  1.
         22    1    1    2    0    0 -0.16013575731E+02  0.17864048051E+02 -0.42437534843E+02  0.48749391627E+02  0.00000000000E+00 0. -1.
</event>
<event>
 6    1  0.1726037E-005  0.5938587E+02  0.7818608E-02  0.1478058E+00
          2   -1    0    0  502    0  0.00000000000E+00  0.00000000000E+00  0.16242846352E+03  0.16242846352E+03  0.00000000000E+00 0.  1.
          1   -1    0    0  501    0 -0.00000000000E+00 -0.00000000000E+00 -0.12959671954E+03  0.12959671954E+03  0.00000000000E+00 0. -1.
          2    1    1    2  501    0  0.49511950837E+01  0.27885206806E+02  0.90318478623E+02  0.94654776277E+02  0.00000000000E+00 0.  1.
          1    1    1    2  502    0  0.10714158029E+02 -0.17875596109E+02 -0.62854572913E+02  0.66219539824E+02  0.00000000000E+00 0. -1.
         22    1    1    2    0    0  0.12840805982E+02  0.13418828468E+02  0.61351503753E+02  0.64101156530E+02  0.00000000000E+00 0.  1.
         22    1    1    2    0    0 -0.28506159095E+02 -0.23428439165E+02 -0.55983665477E+02  0.67049710427E+02  0.00000000000E+00 0. -1.
</event>
<event>
 6    1  0.1726037E-005  0.1019525E+03  0.7818608E-02  0.1344582E+00
          2   -1    0    0  502    0  0.00000000000E+00  0.00000000000E+00  0.20313575703E+03  0.20313575703E+03  0.00000000000E+00 0.  1.
          1   -1    0    0  501    0 -0.00000000000E+00 -0.00000000000E+00 -0.74053054871E+02  0.74053054871E+02  0.00000000000E+00 0. -1.
          2    1    1    2  501    0 -0.56792957777E+01  0.61711951479E+02  0.76341734423E+02  0.98329445084E+02  0.00000000000E+00 0.  1.
          1    1    1    2  502    0  0.24675467957E+02 -0.36823763386E+02  0.14537069423E+02  0.46649701566E+02  0.00000000000E+00 0. -1.
         22    1    1    2    0    0  0.78022773811E+01  0.28443678164E+02  0.61445755171E+02  0.68157898944E+02  0.00000000000E+00 0.  1.
         22    1    1    2    0    0 -0.26798449560E+02 -0.53331866257E+02 -0.23241856856E+02  0.64051766309E+02  0.00000000000E+00 0. -1.
</event>
<event>
 6    1  0.1726037E-005  0.9114608E+02  0.7818608E-02  0.1312656E+00
          2   -1    0    0  502    0  0.00000000000E+00  0.00000000000E+00  0.17622647880E+03  0.17622647880E+03  0.00000000000E+00 0. -1.
          1   -1    0    0  501    0 -0.00000000000E+00 -0.00000000000E+00 -0.11799181253E+04  0.11799181253E+04  0.00000000000E+00 0. -1.
          2    1    1    2  501    0  0.21295317174E+02 -0.24790208879E+03 -0.91194942068E+03  0.94528338716E+03  0.00000000000E+00 0. -1.
          1    1    1    2  502    0 -0.30680715387E+02  0.23462131110E+03 -0.13803571773E+03  0.27393854291E+03  0.00000000000E+00 0. -1.
         22    1    1    2    0    0 -0.25431142953E+02  0.10948359087E+02 -0.37233491551E+02  0.46399811332E+02  0.00000000000E+00 0.  1.
         22    1    1    2    0    0  0.34816541166E+02  0.23324186053E+01  0.83526983430E+02  0.90522862727E+02  0.00000000000E+00 0. -1.
</event>
<event>
 6    1  0.1726037E-005  0.4240922E+02  0.7818608E-02  0.1516557E+00
          2   -1    0    0  502    0  0.00000000000E+00  0.00000000000E+00  0.31487968393E+03  0.31487968393E+03  0.00000000000E+00 0.  1.
          1   -1    0    0  501    0 -0.00000000000E+00 -0.00000000000E+00 -0.87498939496E+02  0.87498939496E+02  0.00000000000E+00 0.  1.
          2    1    1    2  501    0  0.73880684027E+01  0.75639669888E+02  0.19462123094E+03  0.20893388129E+03  0.00000000000E+00 0.  1.
          1    1    1    2  502    0  0.32440189765E+02 -0.43556108268E+02  0.16976678361E+02  0.56900861923E+02  0.00000000000E+00 0.  1.
         22    1    1    2    0    0 -0.24328273507E+02 -0.30570480894E+01 -0.54047268895E+02  0.59349117178E+02  0.00000000000E+00 0.  1.
         22    1    1    2    0    0 -0.15499984661E+02 -0.29026513531E+02  0.69830104023E+02  0.77194763036E+02  0.00000000000E+00 0.  1.
</event>
<event>
 6    1  0.1726037E-005  0.2020220E+03  0.7818608E-02  0.1188505E+00
          2   -1    0    0  502    0  0.00000000000E+00  0.00000000000E+00  0.18548447210E+03  0.18548447210E+03  0.00000000000E+00 0.  1.
          1   -1    0    0  501    0 -0.00000000000E+00 -0.00000000000E+00 -0.91361761638E+03  0.91361761638E+03  0.00000000000E+00 0.  1.
          2    1    1    2  501    0 -0.95165853135E+02  0.20907053643E+03 -0.30632529134E+03  0.38288668418E+03  0.00000000000E+00 0.  1.
          1    1    1    2  502    0  0.12846060288E+03 -0.12569352615E+03 -0.50725078711E+03  0.53814900356E+03  0.00000000000E+00 0.  1.
         22    1    1    2    0    0 -0.37015029533E+02 -0.70721954893E+02  0.11827092202E+03  0.14268748478E+03  0.00000000000E+00 0.  1.
         22    1    1    2    0    0  0.37202797868E+01 -0.12655055381E+02 -0.32827987850E+02  0.35378915963E+02  0.00000000000E+00 0. -1.
</event>
<event>
 6    1  0.1726037E-005  0.9990679E+02  0.7818608E-02  0.1353691E+00
          2   -1    0    0  502    0  0.00000000000E+00  0.00000000000E+00  0.90881502361E+02  0.90881502361E+02  0.00000000000E+00 0. -1.
          1   -1    0    0  501    0 -0.00000000000E+00 -0.00000000000E+00 -0.19274933487E+03  0.19274933487E+03  0.00000000000E+00 0. -1.
          2    1    1    2  501    0  0.72034485164E+02  0.26796336828E+02 -0.72726720573E+02  0.10581203431E+03  0.00000000000E+00 0. -1.
          1    1    1    2  502    0 -0.40881940208E+02 -0.14032750074E+02  0.63496772307E+00  0.43227934184E+02  0.00000000000E+00 0. -1.
         22    1    1    2    0    0 -0.53159949714E+02 -0.28102975288E+02 -0.66149456836E+02  0.89395235406E+02  0.00000000000E+00 0. -1.
         22    1    1    2    0    0  0.22007404759E+02  0.15339388533E+02  0.36373377175E+02  0.45195633328E+02  0.00000000000E+00 0. -1.
</event>
<event>
 6    1  0.1726037E-005  0.1090268E+03  0.7818608E-02  0.1385868E+00
          2   -1    0    0  502    0  0.00000000000E+00  0.00000000000E+00  0.11801784644E+03  0.11801784644E+03  0.00000000000E+00 0. -1.
          1   -1    0    0  501    0 -0.00000000000E+00 -0.00000000000E+00 -0.30199035112E+03  0.30199035112E+03  0.00000000000E+00 0.  1.
          2    1    1    2  501    0 -0.58508960032E+02  0.64966392836E+00  0.53771509293E+02  0.79467576274E+02  0.00000000000E+00 0. -1.
          1    1    1    2  502    0  0.22923203802E+02  0.22509015267E+02 -0.20657414789E+03  0.20905742660E+03  0.00000000000E+00 0.  1.
         22    1    1    2    0    0 -0.91785703968E+01  0.79054036187E+01  0.40032395080E+02  0.41825042938E+02  0.00000000000E+00 0. -1.
         22    1    1    2    0    0  0.44764326627E+02 -0.31064082814E+02 -0.71202261170E+02  0.89658151750E+02  0.00000000000E+00 0. -1.
</event>
<event>
 6    1  0.1726037E-005  0.1753315E+03  0.7818608E-02  0.1228604E+00
          2   -1    0    0  502    0  0.00000000000E+00  0.00000000000E+00  0.54272100220E+03  0.54272100220E+03  0.00000000000E+00 0.  1.
          1   -1    0    0  501    0 -0.00000000000E+00 -0.00000000000E+00 -0.28490873864E+03  0.28490873864E+03  0.00000000000E+00 0. -1.
          2    1    1    2  501    0 -0.91997650291E+02 -0.18575465527E+03  0.40801362475E+03  0.45764995094E+03  0.00000000000E+00 0.  1.
          1    1    1    2  502    0  0.35207592755E+02  0.14148014561E+03 -0.17260393315E+03  0.22593876146E+03  0.00000000000E+00 0. -1.
         22    1    1    2    0    0  0.91717579444E+01  0.24025749180E+02 -0.49307547923E+02  0.55611078479E+02  0.00000000000E+00 0. -1.
         22    1    1    2    0    0  0.47618299591E+02  0.20248760484E+02  0.71710119877E+02  0.88429949960E+02  0.00000000000E+00 0.  1.
</event>
<event>
 6    1  0.1726037E-005  0.5613632E+02  0.7818608E-02  0.1508912E+00
          2   -1    0    0  502    0  0.00000000000E+00  0.00000000000E+00  0.18520675521E+02  0.18520675521E+02  0.00000000000E+00 0. -1.
          1   -1    0    0  501    0 -0.00000000000E+00 -0.00000000000E+00 -0.85033809837E+03  0.85033809837E+03  0.00000000000E+00 0.  1.
          2    1    1    2  501    0  0.12931397866E+02  0.17779585206E+02 -0.25013204932E+02  0.33301578368E+02  0.00000000000E+00 0. -1.
          1    1    1    2  502    0  0.30889049158E+02  0.36516763220E+02 -0.39959990298E+03  0.40245209630E+03  0.00000000000E+00 0.  1.
         22    1    1    2    0    0 -0.39444744374E+02 -0.67946476276E+02 -0.41086617285E+03  0.41831043913E+03  0.00000000000E+00 0. -1.
         22    1    1    2    0    0 -0.43757026501E+01  0.13650127850E+02  0.36618579068E+01  0.14794660095E+02  0.00000000000E+00 0. -1.
</event>
<event>
 6    1  0.1726037E-005  0.2298448E+03  0.7818608E-02  0.1248753E+00
          2   -1    0    0  502    0  0.00000000000E+00  0.00000000000E+00  0.47492977902E+03  0.47492977902E+03  0.00000000000E+00 0. -1.
          1   -1    0    0  501    0 -0.00000000000E+00 -0.00000000000E+00 -0.10854355967E+03  0.10854355967E+03  0.00000000000E+00 0.  1.
          2    1    1    2  501    0 -0.75888248362E+02  0.10298422387E+03  0.27902304833E+03  0.30695054667E+03  0.00000000000E+00 0. -1.
          1    1    1    2  502    0 -0.11757188986E+02  0.35163569911E+02  0.56322818424E+02  0.67431209517E+02  0.00000000000E+00 0.  1.
         22    1    1    2    0    0 -0.14811673652E+02 -0.35931507327E+01  0.36841446182E+02  0.39869644661E+02  0.00000000000E+00 0. -1.
         22    1    1    2    0    0  0.10245711100E+03 -0.13455464305E+03 -0.58010935821E+01  0.16922193784E+03  0.00000000000E+00 0.  1.
</event>
<event>
 6    1  0.1726037E-005  0.2192105E+03  0.7818608E-02  0.1134990E+00
          2   -1    0    0  502    0  0.00000000000E+00  0.00000000000E+00  0.56932682011E+03  0.56932682011E+03  0.00000000000E+00 0.  1.
          1   -1    0    0  501    0 -0.00000000000E+00 -0.00000000000E+00 -0.12009541547E+03  0.12009541547E+03  0.00000000000E+00 0.  1.
          2    1    1    2  501    0 -0.56613198149E+02 -0.16297177233E+03  0.27895470179E+03  0.32799478415E+03  0.00000000000E+00 0.  1.
          1    1    1    2  502    0  0.57402040309E+02  0.17288221761E+03  0.45602933922E+02  0.18778413931E+03  0.00000000000E+00 0.  1.
         22    1    1    2    0    0 -0.79835624915E+01  0.27367367807E+02 -0.12634904451E+02  0.31182541609E+02  0.00000000000E+00 0.  1.
         22    1    1    2    0    0  0.71947203311E+01 -0.37277813086E+02  0.13730867337E+03  0.14246077051E+03  0.00000000000E+00 0.  1.
</event>
<event>
 6    1  0.1726037E-005  0.4401032E+02  0.7818608E-02  0.1576866E+00
          2   -1    0    0  502    0  0.00000000000E+00  0.00000000000E+00  0.53289367620E+02  0.53289367620E+02  0.00000000000E+00 0.  1.
          1   -1    0    0  501    0 -0.00000000000E+00 -0.00000000000E+00 -0.54471692908E+03  0.54471692908E+03  0.00000000000E+00 0.  1.
          2    1    1    2  501    0  0.21165016687E+01  0.25215825351E+02 -0.30066055595E+03  0.30172352798E+03  0.00000000000E+00 0.  1.
          1    1    1    2  502    0  0.79172769979E+01 -0.20607721583E+02 -0.16325067488E+03  0.16473659070E+03  0.00000000000E+00 0.  1.
         22    1    1    2    0    0  0.70157746359E+01 -0.10124785148E+02  0.50252131058E+02  0.51739820679E+02  0.00000000000E+00 0.  1.
         22    1    1    2    0    0 -0.17049553303E+02  0.55166813804E+01 -0.77768461681E+02  0.79806357350E+02  0.00000000000E+00 0.  1.
</event>
<event>
 6    1  0.1726037E-005  0.8055868E+02  0.7818608E-02  0.1342092E+00
          2   -1    0    0  502    0  0.00000000000E+00  0.00000000000E+00  0.58137520022E+02  0.58137520022E+02  0.00000000000E+00 0.  1.
          1   -1    0    0  501    0 -0.00000000000E+00 -0.00000000000E+00 -0.52043764995E+03  0.52043764995E+03  0.00000000000E+00 0.  1.
          2    1    1    2  501    0  0.11688490479E+03  0.22371107293E+02 -0.23576191909E+03  0.26409511526E+03  0.00000000000E+00 0.  1.
          1    1    1    2  502    0 -0.38850416296E+02 -0.12226170216E+01 -0.13702325342E+03  0.14242970763E+03  0.00000000000E+00 0.  1.
         22    1    1    2    0    0 -0.64412042951E+02 -0.40223210041E+02  0.36055531311E+01  0.76025113722E+02  0.00000000000E+00 0.  1.
         22    1    1    2    0    0 -0.13622445544E+02  0.19074719770E+02 -0.93120510544E+02  0.96025233355E+02  0.00000000000E+00 0.  1.
</event>
<event>
 6    1  0.1726037E-005  0.5742582E+02  0.7818608E-02  0.1472789E+00
          2   -1    0    0  502    0  0.00000000000E+00  0.00000000000E+00  0.78529594160E+02  0.78529594160E+02  0.00000000000E+00 0.  1.
          1   -1    0    0  501    0 -0.00000000000E+00 -0.00000000000E+00 -0.80399329866E+03  0.80399329866E+03  0.00000000000E+00 0.  1.
          2    1    1    2  501    0 -0.16664513798E+02  0.31779819330E+02  0.80073697757E+01  0.36766573235E+02  0.00000000000E+00 0.  1.
          1    1    1    2  502    0 -0.54037526716E+02  0.13510540999E+02 -0.68970629891E+03  0.69195185365E+03  0.00000000000E+00 0.  1.
         22    1    1    2    0    0  0.86774855292E+02 -0.30066518911E+02 -0.72871483793E+02  0.11723533691E+03  0.00000000000E+00 0. -1.
         22    1    1    2    0    0 -0.16072814779E+02 -0.15223841417E+02  0.29106708426E+02  0.36569129027E+02  0.00000000000E+00 0.  1.
</event>
<event>
 6    1  0.1726037E-005  0.5997324E+02  0.7818608E-02  0.1495616E+00
          2   -1    0    0  502    0  0.00000000000E+00  0.00000000000E+00  0.12066488061E+03  0.12066488061E+03  0.00000000000E+00 0.  1.
          1   -1    0    0  501    0 -0.00000000000E+00 -0.00000000000E+00 -0.23056419258E+03  0.23056419258E+03  0.00000000000E+00 0. -1.
          2    1    1    2  501    0  0.16679832296E+02  0.50049194177E+02  0.55960106798E+02  0.76906906035E+02  0.00000000000E+00 0.  1.
          1    1    1    2  502    0 -0.18621146546E+02 -0.38559875661E+02 -0.13802062312E+03  0.14451056541E+03  0.00000000000E+00 0. -1.
         22    1    1    2    0    0  0.14101557020E+02  0.26193634845E+00  0.49074609974E+02  0.51061138502E+02  0.00000000000E+00 0.  1.
         22    1    1    2    0    0 -0.12160242769E+02 -0.11751254865E+02 -0.76913405620E+02  0.78750463232E+02  0.00000000000E+00 0.  1.
</event>
<event>
 6    1  0.1726037E-005  0.5570254E+02  0.7818608E-02  0.1497704E+00
          2   -1    0    0  502    0  0.00000000000E+00  0.00000000000E+00  0.49764796975E+03  0.49764796975E+03  0.00000000000E+00 0.  1.
          1   -1    0    0  501    0 -0.00000000000E+00 -0.00000000000E+00 -0.49317671015E+03  0.49317671015E+03  0.00000000000E+00 0.  1.
          2    1    1    2  501    0  0.74127549612E+02  0.45840244601E+02  0.42984790244E+03  0.43859484821E+03  0.00000000000E+00 0.  1.
          1    1    1    2  502    0 -0.31831998684E+02 -0.54729653264E+02 -0.41881180896E+03  0.42357046924E+03  0.00000000000E+00 0.  1.
         22    1    1    2    0    0 -0.65410890333E+01  0.88436758526E+01  0.55745033046E+02  0.56819936269E+02  0.00000000000E+00 0.  1.
         22    1    1    2    0    0 -0.35754461894E+02  0.45732810456E-01 -0.62309866934E+02  0.71839426182E+02  0.00000000000E+00 0. -1.
</event>
<event>
 6    1  0.1726037E-005  0.8567794E+02  0.7818608E-02  0.1324267E+00
          2   -1    0    0  502    0  0.00000000000E+00  0.00000000000E+00  0.85658254527E+03  0.85658254527E+03  0.00000000000E+00 0.  1.
          1   -1    0    0  501    0 -0.00000000000E+00 -0.00000000000E+00 -0.10142497907E+03  0.10142497907E+03  0.00000000000E+00 0.  1.
          2    1    1    2  501    0 -0.14299590776E+03 -0.91758170070E+02  0.47695952392E+03  0.50631786347E+03  0.00000000000E+00 0.  1.
          1    1    1    2  502    0  0.88449512684E+02  0.52266079255E+02 -0.35574389162E+02  0.10872256665E+03  0.00000000000E+00 0.  1.
         22    1    1    2    0    0  0.55653563837E+02 -0.67116464855E+01  0.28043091296E+03  0.28597877948E+03  0.00000000000E+00 0.  1.
         22    1    1    2    0    0 -0.11071687562E+01  0.46203737300E+02  0.33341518477E+02  0.56988314746E+02  0.00000000000E+00 0.  1.
</event>
<event>
 6    1  0.1726037E-005  0.2726894E+03  0.7818608E-02  0.1229121E+00
          2   -1    0    0  502    0  0.00000000000E+00  0.00000000000E+00  0.28356002451E+04  0.28356002451E+04  0.00000000000E+00 0.  1.
          1   -1    0    0  501    0 -0.00000000000E+00 -0.00000000000E+00 -0.81427319402E+02  0.81427319402E+02  0.00000000000E+00 0.  1.
          2    1    1    2  501    0 -0.52621839555E+02  0.25175245970E+03  0.25106463470E+04  0.25237855374E+04  0.00000000000E+00 0.  1.
          1    1    1    2  502    0  0.31434449775E+02 -0.32065554747E+02  0.77223780561E+01  0.45562699182E+02  0.00000000000E+00 0.  1.
         22    1    1    2    0    0 -0.13602877938E+02  0.37151766371E+00  0.66446496830E+02  0.67825609135E+02  0.00000000000E+00 0. -1.
         22    1    1    2    0    0  0.34790267717E+02 -0.22005842262E+03  0.16935770383E+03  0.27985371883E+03  0.00000000000E+00 0.  1.
</event>
<event>
 6    1  0.1726037E-005  0.7383099E+02  0.7818608E-02  0.1349783E+00
          2   -1    0    0  502    0  0.00000000000E+00  0.00000000000E+00  0.55513599578E+03  0.55513599578E+03  0.00000000000E+00 0. -1.
          1   -1    0    0  501    0 -0.00000000000E+00 -0.00000000000E+00 -0.58621720511E+02  0.58621720511E+02  0.00000000000E+00 0. -1.
          2    1    1    2  501    0 -0.61503024878E+01  0.63302802253E+02 -0.54372505324E-01  0.63600895828E+02  0.00000000000E+00 0. -1.
          1    1    1    2  502    0 -0.16947342638E+02 -0.87184195384E+02  0.29859431154E+03  0.31152344893E+03  0.00000000000E+00 0. -1.
         22    1    1    2    0    0  0.48199764664E+02  0.52187082562E+02  0.52538472799E+02  0.88357229608E+02  0.00000000000E+00 0. -1.
         22    1    1    2    0    0 -0.25102119539E+02 -0.28305689430E+02  0.14543586343E+03  0.15027614193E+03  0.00000000000E+00 0. -1.
</event>
<event>
 6    1  0.1726037E-005  0.5438702E+02  0.7818608E-02  0.1488698E+00
          2   -1    0    0  502    0  0.00000000000E+00  0.00000000000E+00  0.88163799946E+02  0.88163799946E+02  0.00000000000E+00 0.  1.
          1   -1    0    0  501    0 -0.00000000000E+00 -0.00000000000E+00 -0.35812188762E+03  0.35812188762E+03  0.00000000000E+00 0. -1.
          2    1    1    2  501    0 -0.70608971700E+01  0.34802577701E+02  0.19068569216E+02  0.40307394054E+02  0.00000000000E+00 0.  1.
          1    1    1    2  502    0  0.20985050088E+02 -0.35258989671E+02 -0.27960878625E+03  0.28260332983E+03  0.00000000000E+00 0. -1.
         22    1    1    2    0    0  0.12291301351E+01 -0.13820202519E+02 -0.63722872891E+02  0.65215897510E+02  0.00000000000E+00 0. -1.
         22    1    1    2    0    0 -0.15153283053E+02  0.14276614489E+02  0.54305002254E+02  0.58159066175E+02  0.00000000000E+00 0.  1.
</event>
<event>
 6    1  0.1726037E-005  0.3266526E+03  0.7818608E-02  0.1142705E+00
          2   -1    0    0  502    0  0.00000000000E+00  0.00000000000E+00  0.25541300105E+03  0.25541300105E+03  0.00000000000E+00 0. -1.
          1   -1    0    0  501    0 -0.00000000000E+00 -0.00000000000E+00 -0.57743810967E+03  0.57743810967E+03  0.00000000000E+00 0. -1.
          2    1    1    2  501    0  0.58873391956E+02  0.30003925338E+03  0.32457980768E+02  0.30747869904E+03  0.00000000000E+00 0. -1.
          1    1    1    2  502    0 -0.20205519766E+02 -0.22746381993E+03 -0.15087049019E+03  0.27369683451E+03  0.00000000000E+00 0. -1.
         22    1    1    2    0    0  0.11787858465E+02 -0.92621582398E+02 -0.13593454068E+03  0.16491182639E+03  0.00000000000E+00 0. -1.
         22    1    1    2    0    0 -0.50455730655E+02  0.20046148951E+02 -0.67678058525E+02  0.86763750780E+02  0.00000000000E+00 0. -1.
</event>
<event>
 6    1  0.1726037E-005  0.2447248E+02  0.7818608E-02  0.1716649E+00
          2   -1    0    0  502    0  0.00000000000E+00  0.00000000000E+00  0.21054039573E+03  0.21054039573E+03  0.00000000000E+00 0. -1.
          1   -1    0    0  501    0 -0.00000000000E+00 -0.00000000000E+00 -0.25711058636E+03  0.25711058636E+03  0.00000000000E+00 0. -1.
          2    1    1    2  501    0  0.32119879320E+02  0.39463101498E+02  0.10195338763E+03  0.11394523367E+03  0.00000000000E+00 0. -1.
          1    1    1    2  502    0 -0.27069211115E+02 -0.33923751567E+02 -0.20816638934E+03  0.21264244346E+03  0.00000000000E+00 0. -1.
         22    1    1    2    0    0 -0.69539176955E+01 -0.15503651186E+02  0.98985750749E+02  0.10043355526E+03  0.00000000000E+00 0. -1.
         22    1    1    2    0    0  0.19032494906E+01  0.99643012540E+01 -0.39342939666E+02  0.40629749688E+02  0.00000000000E+00 0. -1.
</event>
<event>
 6    1  0.1726037E-005  0.4698717E+02  0.7818608E-02  0.1469377E+00
          2   -1    0    0  502    0  0.00000000000E+00  0.00000000000E+00  0.31597661813E+03  0.31597661813E+03  0.00000000000E+00 0.  1.
          1   -1    0    0  501    0 -0.00000000000E+00 -0.00000000000E+00 -0.44281213325E+03  0.44281213325E+03  0.00000000000E+00 0.  1.
          2    1    1    2  501    0  0.11232896267E+03 -0.42413091482E+02  0.23927587509E+03  0.26771180509E+03  0.00000000000E+00 0.  1.
          1    1    1    2  502    0 -0.13365312154E+03  0.22393165436E+02 -0.33047682812E+03  0.35718278889E+03  0.00000000000E+00 0.  1.
         22    1    1    2    0    0  0.31684829900E+01  0.16432789720E+02  0.46646370752E+02  0.49557640851E+02  0.00000000000E+00 0.  1.
         22    1    1    2    0    0  0.18155675882E+02  0.35871363256E+01 -0.82280932837E+02  0.84336516541E+02  0.00000000000E+00 0.  1.
</event>
<event>
 6    1  0.1726037E-005  0.8208845E+02  0.7818608E-02  0.1385100E+00
          2   -1    0    0  502    0  0.00000000000E+00  0.00000000000E+00  0.23105371637E+03  0.23105371637E+03  0.00000000000E+00 0. -1.
          1   -1    0    0  501    0 -0.00000000000E+00 -0.00000000000E+00 -0.10675261291E+03  0.10675261291E+03  0.00000000000E+00 0. -1.
          2    1    1    2  501    0  0.85480693164E+02  0.47893270421E+02  0.32779409086E+02  0.10332087841E+03  0.00000000000E+00 0. -1.
          1    1    1    2  502    0 -0.42930425762E+02 -0.16251757039E+02 -0.27472154830E+02  0.53496358324E+02  0.00000000000E+00 0. -1.
         22    1    1    2    0    0 -0.14209128035E+02 -0.26893090044E+02 -0.21717394412E+02  0.37373557921E+02  0.00000000000E+00 0.  1.
         22    1    1    2    0    0 -0.28341139367E+02 -0.47484233383E+01  0.14071124362E+03  0.14361553463E+03  0.00000000000E+00 0. -1.
</event>
<event>
 6    1  0.1726037E-005  0.4046854E+02  0.7818608E-02  0.1561055E+00
          2   -1    0    0  502    0  0.00000000000E+00  0.00000000000E+00  0.10072549611E+03  0.10072549611E+03  0.00000000000E+00 0. -1.
          1   -1    0    0  501    0 -0.00000000000E+00 -0.00000000000E+00 -0.71506881196E+03  0.71506881196E+03  0.00000000000E+00 0. -1.
          2    1    1    2  501    0 -0.58366301178E+02 -0.33262600215E+02 -0.46496452943E+02  0.81700341631E+02  0.00000000000E+00 0. -1.
          1    1    1    2  502    0  0.27739087222E+00  0.29557589815E+02 -0.59376933154E+03  0.59450462331E+03  0.00000000000E+00 0. -1.
         22    1    1    2    0    0  0.39060040199E+02  0.39592735687E+00  0.76255271924E+02  0.85677943457E+02  0.00000000000E+00 0. -1.
         22    1    1    2    0    0  0.19028870107E+02  0.33090830428E+01 -0.50332803288E+02  0.53911399675E+02  0.00000000000E+00 0. -1.
</event>
<event>
 6    1  0.1726037E-005  0.9226988E+02  0.7818608E-02  0.1329326E+00
          2   -1    0    0  502    0  0.00000000000E+00  0.00000000000E+00  0.32513305347E+03  0.32513305347E+03  0.00000000000E+00 0.  1.
          1   -1    0    0  501    0 -0.00000000000E+00 -0.00000000000E+00 -0.88663665700E+02  0.88663665700E+02  0.00000000000E+00 0. -1.
          2    1    1    2  501    0  0.67881766819E+02  0.39237337408E+02  0.20170997897E+03  0.21641261176E+03  0.00000000000E+00 0.  1.
          1    1    1    2  502    0 -0.22320289385E+02 -0.52260669154E+02  0.45945997765E+01  0.57013009093E+02  0.00000000000E+00 0. -1.
         22    1    1    2    0    0  0.50992016132E+01  0.24250852084E+02  0.70448440929E+02  0.74679907025E+02  0.00000000000E+00 0.  1.
         22    1    1    2    0    0 -0.50660679047E+02 -0.11227520337E+02 -0.40283631903E+02  0.65691191295E+02  0.00000000000E+00 0. -1.
</event>
<event>
 6    1  0.1726037E-005  0.8170576E+02  0.7818608E-02  0.1430704E+00
          2   -1    0    0  502    0  0.00000000000E+00  0.00000000000E+00  0.21299726082E+03  0.21299726082E+03  0.00000000000E+00 0.  1.
          1   -1    0    0  501    0 -0.00000000000E+00 -0.00000000000E+00 -0.10336253230E+03  0.10336253230E+03  0.00000000000E+00 0.  1.
          2    1    1    2  501    0  0.44963751872E+02  0.57434548406E+02  0.44889898647E+01  0.73079527660E+02  0.00000000000E+00 0.  1.
          1    1    1    2  502    0  0.22100537255E+02  0.11094043252E+02 -0.28221271705E+02  0.37522682730E+02  0.00000000000E+00 0.  1.
         22    1    1    2    0    0 -0.65122772371E+02 -0.54392052325E+02  0.15682101419E+03  0.17830395770E+03  0.00000000000E+00 0.  1.
         22    1    1    2    0    0 -0.19415167562E+01 -0.14136539333E+02 -0.23454003838E+02  0.27453625037E+02  0.00000000000E+00 0.  1.
</event>
<event>
 6    1  0.1726037E-005  0.2221777E+02  0.7818608E-02  0.1712578E+00
          2   -1    0    0  502    0  0.00000000000E+00  0.00000000000E+00  0.12875813308E+03  0.12875813308E+03  0.00000000000E+00 0.  1.
          1   -1    0    0  501    0 -0.00000000000E+00 -0.00000000000E+00 -0.25067870000E+03  0.25067870000E+03  0.00000000000E+00 0.  1.
          2    1    1    2  501    0  0.46667711880E+02 -0.92976554093E+01  0.64787772243E+02  0.80385179980E+02  0.00000000000E+00 0.  1.
          1    1    1    2  502    0 -0.28038147077E+02 -0.74280347545E+01 -0.17132087393E+03  0.17375889973E+03  0.00000000000E+00 0.  1.
         22    1    1    2    0    0 -0.12409646071E+02  0.40490033325E+01  0.53450565478E+02  0.55021420315E+02  0.00000000000E+00 0. -1.
         22    1    1    2    0    0 -0.62199187317E+01  0.12676686831E+02 -0.68838030706E+02  0.70271333056E+02  0.00000000000E+00 0. -1.
</event>
<event>
 6    1  0.1726037E-005  0.7059159E+02  0.7818608E-02  0.1401624E+00
          2   -1    0    0  502    0  0.00000000000E+00  0.00000000000E+00  0.17055530186E+03  0.17055530186E+03  0.00000000000E+00 0. -1.
          1   -1    0    0  501    0 -0.00000000000E+00 -0.00000000000E+00 -0.15173306997E+03  0.15173306997E+03  0.00000000000E+00 0. -1.
          2    1    1    2  501    0 -0.37254766984E+02  0.37771386201E+02 -0.43411869389E+02  0.68550606725E+02  0.00000000000E+00 0. -1.
          1    1    1    2  502    0  0.38935953442E+02 -0.41053289470E+02 -0.56229368600E+02  0.79769185403E+02  0.00000000000E+00 0. -1.
         22    1    1    2    0    0  0.52346819082E+01 -0.30716009590E+02 -0.16052295001E+02  0.35050696350E+02  0.00000000000E+00 0. -1.
         22    1    1    2    0    0 -0.69158683663E+01  0.33997912859E+02  0.13451576488E+03  0.13891788336E+03  0.00000000000E+00 0. -1.
</event>
<event>
 6    1  0.1726037E-005  0.8145666E+02  0.7818608E-02  0.1392731E+00
          2   -1    0    0  502    0  0.00000000000E+00  0.00000000000E+00  0.13930508643E+03  0.13930508643E+03  0.00000000000E+00 0.  1.
          1   -1    0    0  501    0 -0.00000000000E+00 -0.00000000000E+00 -0.25672638890E+03  0.25672638890E+03  0.00000000000E+00 0. -1.
          2    1    1    2  501    0  0.61760934619E+02  0.25437782265E+02  0.90634381172E+02  0.11258812043E+03  0.00000000000E+00 0.  1.
          1    1    1    2  502    0 -0.52669274587E+02 -0.27052472337E+02 -0.11377779979E+03  0.12826252949E+03  0.00000000000E+00 0. -1.
         22    1    1    2    0    0  0.16412865579E+02 -0.34898382363E+01  0.26647091844E+02  0.31490135458E+02  0.00000000000E+00 0.  1.
         22    1    1    2    0    0 -0.25504525612E+02  0.51045283087E+01 -0.12092497569E+03  0.12369068995E+03  0.00000000000E+00 0. -1.
</event>
<event>
 6    1  0.2833107E-005  0.1397245E+03  0.7818608E-02  0.1214094E+00
          2   -1    0    0  502    0  0.00000000000E+00  0.00000000000E+00  0.39647944119E+03  0.39647944119E+03  0.00000000000E+00 0.  1.
          1   -1    0    0  501    0 -0.00000000000E+00 -0.00000000000E+00 -0.33808031420E+03  0.33808031420E+03  0.00000000000E+00 0. -1.
          2    1    1    2  501    0 -0.27818055429E+01  0.12418845546E+03  0.30922295127E+03  0.33324067055E+03  0.00000000000E+00 0.  1.
          1    1    1    2  502    0  0.65685067880E+00 -0.11633543099E+03 -0.25104573854E+03  0.27669175412E+03  0.00000000000E+00 0. -1.
         22    1    1    2    0    0  0.76432840545E+01 -0.20406866117E+02 -0.59492869900E+02  0.63358200296E+02  0.00000000000E+00 0. -1.
         22    1    1    2    0    0 -0.55183291904E+01  0.12553841644E+02  0.59714784158E+02  0.61269130434E+02  0.00000000000E+00 0.  1.
</event>
<event>
 6    1  0.1726037E-005  0.2834388E+03  0.7818608E-02  0.1215306E+00
          2   -1    0    0  502    0  0.00000000000E+00  0.00000000000E+00  0.16885968385E+03  0.16885968385E+03  0.00000000000E+00 0. -1.
          1   -1    0    0  501    0 -0.00000000000E+00 -0.00000000000E+00 -0.56436219775E+03  0.56436219775E+03  0.00000000000E+00 0. -1.
          2    1    1    2  501    0  0.12578850030E+03  0.23193800840E+03 -0.17812469548E+03  0.31834948356E+03  0.00000000000E+00 0. -1.
          1    1    1    2  502    0 -0.51312434257E+02 -0.17520643352E+03 -0.17829488217E+03  0.25518488448E+03  0.00000000000E+00 0. -1.
         22    1    1    2    0    0 -0.87155932334E+02 -0.46683986220E+02 -0.72470501811E+02  0.12258680493E+03  0.00000000000E+00 0. -1.
         22    1    1    2    0    0  0.12679866290E+02 -0.10047588652E+02  0.33387565554E+02  0.37100708625E+02  0.00000000000E+00 0.  1.
</event>
<event>
 6    1  0.1726037E-005  0.2255859E+03  0.7818608E-02  0.1129800E+00
          2   -1    0    0  502    0  0.00000000000E+00  0.00000000000E+00  0.10504754786E+04  0.10504754786E+04  0.00000000000E+00 0. -1.
          1   -1    0    0  501    0 -0.00000000000E+00 -0.00000000000E+00 -0.57915233356E+02  0.57915233356E+02  0.00000000000E+00 0. -1.
          2    1    1    2  501    0 -0.35637310812E+02  0.20044463596E+03  0.61514386709E+03  0.64795836843E+03  0.00000000000E+00 0. -1.
          1    1    1    2  502    0  0.27593932370E+02 -0.10441308990E+03  0.16419249554E+03  0.19652657336E+03  0.00000000000E+00 0. -1.
         22    1    1    2    0    0  0.61677094563E+01  0.17793338653E+02  0.10553003634E+03  0.10719716466E+03  0.00000000000E+00 0.  1.
         22    1    1    2    0    0  0.18756689862E+01 -0.11382488471E+03  0.10769384629E+03  0.15670860551E+03  0.00000000000E+00 0. -1.
</event>
<event>
 6    1  0.1726037E-005  0.3674530E+03  0.7818608E-02  0.1156963E+00
          2   -1    0    0  502    0  0.00000000000E+00  0.00000000000E+00  0.44674804318E+03  0.44674804318E+03  0.00000000000E+00 0. -1.
          1   -1    0    0  501    0 -0.00000000000E+00 -0.00000000000E+00 -0.64504299226E+03  0.64504299226E+03  0.00000000000E+00 0. -1.
          2    1    1    2  501    0  0.82609580758E+02 -0.13753829964E+03  0.35276427234E+03  0.38753549326E+03  0.00000000000E+00 0. -1.
          1    1    1    2  502    0 -0.12252588172E+03 -0.17599683848E+02 -0.47088156127E+03  0.48687964150E+03  0.00000000000E+00 0. -1.
         22    1    1    2    0    0  0.13508402489E+02  0.16166701191E+03 -0.93329276258E+02  0.18716050194E+03  0.00000000000E+00 0.  1.
         22    1    1    2    0    0  0.26407898471E+02 -0.65290284206E+01  0.13151616118E+02  0.30215398728E+02  0.00000000000E+00 0.  1.
</event>
<event>
 6    1  0.1726037E-005  0.2242050E+03  0.7818608E-02  0.1238507E+00
          2   -1    0    0  502    0  0.00000000000E+00  0.00000000000E+00  0.75388619292E+02  0.75388619292E+02  0.00000000000E+00 0. -1.
          1   -1    0    0  501    0 -0.00000000000E+00 -0.00000000000E+00 -0.49532346228E+03  0.49532346228E+03  0.00000000000E+00 0. -1.
          2    1    1    2  501    0  0.11438963438E+03 -0.22235944751E+02 -0.84850768563E+02  0.14414950093E+03  0.00000000000E+00 0. -1.
          1    1    1    2  502    0 -0.60759592501E+02  0.38587534067E+01  0.23237015651E+01  0.60926329676E+02  0.00000000000E+00 0. -1.
         22    1    1    2    0    0 -0.73539513452E+02  0.15000087824E+02 -0.33718921589E+03  0.34544121061E+03  0.00000000000E+00 0. -1.
         22    1    1    2    0    0  0.19909471575E+02  0.33771035200E+01 -0.21856009709E+00  0.20195040359E+02  0.00000000000E+00 0. -1.
</event>
<event>
 6    1  0.1726037E-005  0.3567417E+03  0.7818608E-02  0.1161128E+00
          2   -1    0    0  502    0  0.00000000000E+00  0.00000000000E+00  0.55466690641E+03  0.55466690641E+03  0.00000000000E+00 0. -1.
          1   -1    0    0  501    0 -0.00000000000E+00 -0.00000000000E+00 -0.29877508502E+03  0.29877508502E+03  0.00000000000E+00 0. -1.
          2    1    1    2  501    0 -0.16387756874E+03  0.26574743611E+03 -0.68709878576E+02  0.31968516504E+03  0.00000000000E+00 0. -1.
          1    1    1    2  502    0  0.19639472633E+03 -0.20154145805E+03  0.21747461532E+03  0.35564737614E+03  0.00000000000E+00 0. -1.
         22    1    1    2    0    0 -0.17703917478E+02  0.20354653974E+02  0.85392810355E+02  0.89552625270E+02  0.00000000000E+00 0. -1.
         22    1    1    2    0    0 -0.14813240121E+02 -0.84560632027E+02  0.21734274301E+02  0.88556824983E+02  0.00000000000E+00 0.  1.
</event>
<event>
 6    1  0.1726037E-005  0.5873656E+02  0.7818608E-02  0.1454607E+00
          2   -1    0    0  502    0  0.00000000000E+00  0.00000000000E+00  0.15228530066E+03  0.15228530066E+03  0.00000000000E+00 0.  1.
          1   -1    0    0  501    0 -0.00000000000E+00 -0.00000000000E+00 -0.30688491457E+03  0.30688491457E+03  0.00000000000E+00 0. -1.
          2    1    1    2  501    0 -0.83718878085E+01 -0.31041837151E+02  0.17468059242E+02  0.36589851774E+02  0.00000000000E+00 0.  1.
          1    1    1    2  502    0  0.11792075982E+01  0.48669807891E+02 -0.26202253574E+03  0.26650694169E+03  0.00000000000E+00 0. -1.
         22    1    1    2    0    0  0.57914834807E+01  0.92421356382E+01 -0.30634798673E+02  0.32518444639E+02  0.00000000000E+00 0. -1.
         22    1    1    2    0    0  0.14011967296E+01 -0.26870106378E+02  0.12058966127E+03  0.12355497713E+03  0.00000000000E+00 0.  1.
</event>
<event>
 6    1  0.1726037E-005  0.1765707E+03  0.7818608E-02  0.1260075E+00
          2   -1    0    0  502    0  0.00000000000E+00  0.00000000000E+00  0.13143031421E+03  0.13143031421E+03  0.00000000000E+00 0. -1.
          1   -1    0    0  501    0 -0.00000000000E+00 -0.00000000000E+00 -0.31418613154E+03  0.31418613154E+03  0.00000000000E+00 0. -1.
          2    1    1    2  501    0  0.11994285618E+03 -0.10537545604E+03 -0.10104406316E+03  0.18894490780E+03  0.00000000000E+00 0. -1.
          1    1    1    2  502    0 -0.84053884967E+02  0.63729809329E+02 -0.40547765872E+02  0.11300736920E+03  0.00000000000E+00 0. -1.
         22    1    1    2    0    0 -0.46801043024E+02  0.66184680934E+02 -0.67920693393E+02  0.10575429168E+03  0.00000000000E+00 0. -1.
         22    1    1    2    0    0  0.10912071815E+02 -0.24539034225E+02  0.26756705092E+02  0.37909877069E+02  0.00000000000E+00 0.  1.
</event>
<event>
 6    1  0.1726037E-005  0.1670997E+03  0.7818608E-02  0.1201087E+00
          2   -1    0    0  502    0  0.00000000000E+00  0.00000000000E+00  0.91112349899E+03  0.91112349899E+03  0.00000000000E+00 0. -1.
          1   -1    0    0  501    0 -0.00000000000E+00 -0.00000000000E+00 -0.96444322966E+02  0.96444322966E+02  0.00000000000E+00 0. -1.
          2    1    1    2  501    0  0.12690976805E+03  0.72408031816E+02  0.24042991513E+02  0.14807794481E+03  0.00000000000E+00 0. -1.
          1    1    1    2  502    0 -0.18584843596E+03 -0.24883948229E+02  0.45126574729E+03  0.48867128696E+03  0.00000000000E+00 0. -1.
         22    1    1    2    0    0  0.90535501609E+02 -0.57153334519E+02  0.30455723255E+03  0.32282857463E+03  0.00000000000E+00 0. -1.
         22    1    1    2    0    0 -0.31596833696E+02  0.96292509315E+01  0.34813204671E+02  0.47990015551E+02  0.00000000000E+00 0. -1.
</event>
<event>
 6    1  0.1726037E-005  0.8772220E+02  0.7818608E-02  0.1325578E+00
          2   -1    0    0  502    0  0.00000000000E+00  0.00000000000E+00  0.81564909777E+03  0.81564909777E+03  0.00000000000E+00 0.  1.
          1   -1    0    0  501    0 -0.00000000000E+00 -0.00000000000E+00 -0.44201298862E+02  0.44201298862E+02  0.00000000000E+00 0.  1.
          2    1    1    2  501    0  0.13069645735E+03 -0.41409348978E+02  0.35161117916E+03  0.37739464684E+03  0.00000000000E+00 0.  1.
          1    1    1    2  502    0 -0.42978535925E+02  0.18349918068E+02  0.13697831040E+02  0.48698096662E+02  0.00000000000E+00 0.  1.
         22    1    1    2    0    0 -0.15466736388E+02  0.36925324196E+01 -0.43687721601E+01  0.16490630684E+02  0.00000000000E+00 0. -1.
         22    1    1    2    0    0 -0.72251185040E+02  0.19366898490E+02  0.41050756086E+03  0.41726702245E+03  0.00000000000E+00 0.  1.
</event>
<event>
 6    1  0.1726037E-005  0.7371960E+02  0.7818608E-02  0.1380086E+00
          2   -1    0    0  502    0  0.00000000000E+00  0.00000000000E+00  0.19814492275E+03  0.19814492275E+03  0.00000000000E+00 0.  1.
          1   -1    0    0  501    0 -0.00000000000E+00 -0.00000000000E+00 -0.26287220637E+03  0.26287220637E+03  0.00000000000E+00 0. -1.
          2    1    1    2  501    0  0.10040909939E+03 -0.64451156197E+02  0.84517361452E+02  0.14621601541E+03  0.00000000000E+00 0.  1.
          1    1    1    2  502    0 -0.55716843648E+02  0.51699341182E+02 -0.16627883002E+03  0.18282734439E+03  0.00000000000E+00 0. -1.
         22    1    1    2    0    0  0.12467793792E+02  0.32124298061E+02 -0.37289046968E+02  0.50772920260E+02  0.00000000000E+00 0. -1.
         22    1    1    2    0    0 -0.57160049532E+02 -0.19372483047E+02  0.54323231912E+02  0.81200849055E+02  0.00000000000E+00 0.  1.
</event>
<event>
 6    1  0.1726037E-005  0.2453256E+03  0.7818608E-02  0.1119697E+00
          2   -1    0    0  502    0  0.00000000000E+00  0.00000000000E+00  0.55449368462E+03  0.55449368462E+03  0.00000000000E+00 0.  1.
          1   -1    0    0  501    0 -0.00000000000E+00 -0.00000000000E+00 -0.30798840366E+03  0.30798840366E+03  0.00000000000E+00 0. -1.
          2    1    1    2  501    0  0.95146705850E+02  0.11795913646E+03  0.35012665779E+03  0.38151792881E+03  0.00000000000E+00 0.  1.
          1    1    1    2  502    0 -0.15888145542E+03 -0.11590116808E+03 -0.22136290688E+03  0.29610460007E+03  0.00000000000E+00 0. -1.
         22    1    1    2    0    0  0.89097289495E+02 -0.82089042647E+00  0.12924577572E+03  0.15698239200E+03  0.00000000000E+00 0. -1.
         22    1    1    2    0    0 -0.25362539921E+02 -0.12370779515E+01 -0.11504245675E+02  0.27877167389E+02  0.00000000000E+00 0. -1.
</event>
<event>
 6    1  0.1726037E-005  0.4984352E+02  0.7818608E-02  0.1493483E+00
          2   -1    0    0  502    0  0.00000000000E+00  0.00000000000E+00  0.10087605905E+03  0.10087605905E+03  0.00000000000E+00 0.  1.
          1   -1    0    0  501    0 -0.00000000000E+00 -0.00000000000E+00 -0.30668537701E+03  0.30668537701E+03  0.00000000000E+00 0.  1.
          2    1    1    2  501    0 -0.67546555954E+02 -0.10057642446E+03 -0.11662004944E+03  0.16816179801E+03  0.00000000000E+00 0.  1.
          1    1    1    2  502    0  0.50797016815E+02  0.83575255202E+02 -0.48999537919E+02  0.10938973862E+03  0.00000000000E+00 0.  1.
         22    1    1    2    0    0 -0.54260352729E+01  0.10386619879E+02  0.42529662560E+02  0.44114577281E+02  0.00000000000E+00 0. -1.
         22    1    1    2    0    0  0.22175574412E+02  0.66145493762E+01 -0.82719393157E+02  0.85895322156E+02  0.00000000000E+00 0. -1.
</event>
<event>
 6    1  0.1726037E-005  0.7058435E+02  0.7818608E-02  0.1455002E+00
          2   -1    0    0  502    0  0.00000000000E+00  0.00000000000E+00  0.83751992909E+02  0.83751992909E+02  0.00000000000E+00 0. -1.
          1   -1    0    0  501    0 -0.00000000000E+00 -0.00000000000E+00 -0.45434224566E+03  0.45434224566E+03  0.00000000000E+00 0.  1.
          2    1    1    2  501    0  0.13512585552E+02  0.54071999871E+02  0.23637945735E+02  0.60540264428E+02  0.00000000000E+00 0. -1.
          1    1    1    2  502    0 -0.11841322764E+02 -0.52013084558E+02 -0.33080770232E+03  0.33508105557E+03  0.00000000000E+00 0.  1.
         22    1    1    2    0    0  0.10824182857E+02  0.10975890708E+02  0.37188251097E+02  0.40256665672E+02  0.00000000000E+00 0. -1.
         22    1    1    2    0    0 -0.12495445645E+02 -0.13034806022E+02 -0.10060874727E+03  0.10221625290E+03  0.00000000000E+00 0.  1.
</event>
<event>
 6    1  0.1726037E-005  0.6009891E+02  0.7818608E-02  0.1430515E+00
          2   -1    0    0  502    0  0.00000000000E+00  0.00000000000E+00  0.15257320772E+03  0.15257320772E+03  0.00000000000E+00 0.  1.
          1   -1    0    0  501    0 -0.00000000000E+00 -0.00000000000E+00 -0.13892536964E+03  0.13892536964E+03  0.00000000000E+00 0.  1.
          2    1    1    2  501    0  0.10338160424E+02 -0.28707719745E+02 -0.44882943799E+01  0.30840809334E+02  0.00000000000E+00 0.  1.
          1    1    1    2  502    0 -0.36417931904E+00  0.37023842840E+02 -0.89958694196E+02  0.97280338336E+02  0.00000000000E+00 0.  1.
         22    1    1    2    0    0 -0.33665752822E+02 -0.12634290151E+02  0.12748513172E+03  0.13245930322E+03  0.00000000000E+00 0.  1.
         22    1    1    2    0    0  0.23691771717E+02  0.43181670559E+01 -0.19390305059E+02  0.30918126465E+02  0.00000000000E+00 0. -1.
</event>
<event>
 6    1  0.1726037E-005  0.7903548E+02  0.7818608E-02  0.1349050E+00
          2   -1    0    0  502    0  0.00000000000E+00  0.00000000000E+00  0.78733260954E+02  0.78733260954E+02  0.00000000000E+00 0.  1.
          1   -1    0    0  501    0 -0.00000000000E+00 -0.00000000000E+00 -0.21464043879E+03  0.21464043879E+03  0.00000000000E+00 0.  1.
          2    1    1    2  501    0 -0.50344344848E+02 -0.75809053116E+01  0.11834506290E+02  0.52269290435E+02  0.00000000000E+00 0.  1.
          1    1    1    2  502    0  0.47630760332E+02 -0.14789739212E+02 -0.87861751561E+02  0.10103025835E+03  0.00000000000E+00 0.  1.
         22    1    1    2    0    0 -0.23034901633E+01 -0.36054449012E+02 -0.71669632618E+02  0.80260610514E+02  0.00000000000E+00 0.  1.
         22    1    1    2    0    0  0.50170746785E+01  0.58425093536E+02  0.11789700050E+02  0.59813540442E+02  0.00000000000E+00 0.  1.
</event>
<event>
 6    1  0.1726037E-005  0.9879001E+02  0.7818608E-02  0.1318475E+00
          2   -1    0    0  502    0  0.00000000000E+00  0.00000000000E+00  0.11775376075E+03  0.11775376075E+03  0.00000000000E+00 0.  1.
          1   -1    0    0  501    0 -0.00000000000E+00 -0.00000000000E+00 -0.68347621236E+03  0.68347621236E+03  0.00000000000E+00 0.  1.
          2    1    1    2  501    0 -0.56529620347E+02 -0.43803240209E+02  0.38913318489E+02  0.81416019218E+02  0.00000000000E+00 0.  1.
          1    1    1    2  502    0  0.25811620878E+02  0.81620292881E+02 -0.57375522232E+03  0.58010616884E+03  0.00000000000E+00 0.  1.
         22    1    1    2    0    0  0.11201572391E+02  0.95865968414E+01 -0.72308729882E+02  0.73796547888E+02  0.00000000000E+00 0. -1.
         22    1    1    2    0    0  0.19516427078E+02 -0.47403649513E+02  0.41428182107E+02  0.65911237173E+02  0.00000000000E+00 0.  1.
</event>
<event>
 6    1  0.1726037E-005  0.6323197E+02  0.7818608E-02  0.1494789E+00
          2   -1    0    0  502    0  0.00000000000E+00  0.00000000000E+00  0.96637340732E+02  0.96637340732E+02  0.00000000000E+00 0.  1.
          1   -1    0    0  501    0 -0.00000000000E+00 -0.00000000000E+00 -0.31125905380E+03  0.31125905380E+03  0.00000000000E+00 0. -1.
          2    1    1    2  501    0  0.36258900641E+02 -0.38587568035E+02  0.44217375503E+02  0.68984669158E+02  0.00000000000E+00 0.  1.
          1    1    1    2  502    0 -0.28783556980E+02  0.31080611050E+02 -0.19686661478E+03  0.20137269316E+03  0.00000000000E+00 0. -1.
         22    1    1    2    0    0 -0.19590141444E+02  0.86903114503E+01 -0.97581396499E+02  0.99907077315E+02  0.00000000000E+00 0. -1.
         22    1    1    2    0    0  0.12114797783E+02 -0.11833544661E+01  0.35608922708E+02  0.37631954899E+02  0.00000000000E+00 0.  1.
</event>
<event>
 6    1  0.1726037E-005  0.2381094E+03  0.7818608E-02  0.1170678E+00
          2   -1    0    0  502    0  0.00000000000E+00  0.00000000000E+00  0.13485173957E+04  0.13485173957E+04  0.00000000000E+00 0.  1.
          1   -1    0    0  501    0 -0.00000000000E+00 -0.00000000000E+00 -0.57220981724E+02  0.57220981724E+02  0.00000000000E+00 0.  1.
          2    1    1    2  501    0  0.10477314017E+03  0.18531514981E+03  0.47592007116E+03  0.52136266628E+03  0.00000000000E+00 0.  1.
          1    1    1    2  502    0 -0.59042019816E+02 -0.20218195689E+03  0.49077153236E+03  0.53406010969E+03  0.00000000000E+00 0.  1.
         22    1    1    2    0    0 -0.20098980847E+01 -0.41349147773E+02  0.43974657404E+02  0.60395051169E+02  0.00000000000E+00 0.  1.
         22    1    1    2    0    0 -0.43721222272E+02  0.58215954849E+02  0.28063015307E+03  0.28992055031E+03  0.00000000000E+00 0. -1.
</event>
<event>
 6    1  0.1726037E-005  0.6078385E+02  0.7818608E-02  0.1470360E+00
          2   -1    0    0  502    0  0.00000000000E+00  0.00000000000E+00  0.72748243340E+02  0.72748243340E+02  0.00000000000E+00 0.  1.
          1   -1    0    0  501    0 -0.00000000000E+00 -0.00000000000E+00 -0.23402956319E+03  0.23402956319E+03  0.00000000000E+00 0.  1.
          2    1    1    2  501    0  0.48113672461E+02 -0.39495620211E+02 -0.85956347876E+02  0.10612880492E+03  0.00000000000E+00 0.  1.
          1    1    1    2  502    0 -0.21326179926E+02  0.23812726765E+02 -0.58093467798E+02  0.66307638376E+02  0.00000000000E+00 0.  1.
         22    1    1    2    0    0 -0.16831357984E+02 -0.95002717972E+01  0.54416353375E+02  0.57746768658E+02  0.00000000000E+00 0.  1.
         22    1    1    2    0    0 -0.99561345513E+01  0.25183165243E+02 -0.71647857549E+02  0.76594594576E+02  0.00000000000E+00 0. -1.
</event>
<event>
 6    1  0.1726037E-005  0.7867595E+02  0.7818608E-02  0.1332907E+00
          2   -1    0    0  502    0  0.00000000000E+00  0.00000000000E+00  0.18786750265E+03  0.18786750265E+03  0.00000000000E+00 0.  1.
          1   -1    0    0  501    0 -0.00000000000E+00 -0.00000000000E+00 -0.32279315570E+03  0.32279315570E+03  0.00000000000E+00 0. -1.
          2    1    1    2  501    0 -0.62110880239E+02 -0.12711638361E+02  0.13168723480E+03  0.14615360072E+03  0.00000000000E+00 0.  1.
          1    1    1    2  502    0  0.54667700988E+02  0.13735235387E+02 -0.22889754791E+03  0.23573566057E+03  0.00000000000E+00 0. -1.
         22    1    1    2    0    0 -0.14065501132E+02  0.42359831869E+01  0.42808487319E+02  0.45258683832E+02  0.00000000000E+00 0.  1.
         22    1    1    2    0    0  0.21508680383E+02 -0.52595802129E+01 -0.80523827248E+02  0.83512713227E+02  0.00000000000E+00 0. -1.
</event>
<event>
 6    1  0.1726037E-005  0.4404621E+02  0.7818608E-02  0.1565101E+00
          2   -1    0    0  502    0  0.00000000000E+00  0.00000000000E+00  0.35193854843E+02  0.35193854843E+02  0.00000000000E+00 0.  1.
          1   -1    0    0  501    0 -0.00000000000E+00 -0.00000000000E+00 -0.52254794044E+03  0.52254794044E+03  0.00000000000E+00 0.  1.
          2    1    1    2  501    0  0.49424117859E+02  0.16481775333E+02 -0.50991272478E+02  0.72900632461E+02  0.00000000000E+00 0.  1.
          1    1    1    2  502    0 -0.47833722709E+02  0.15357553942E+02 -0.27258236642E+03  0.27717335004E+03  0.00000000000E+00 0.  1.
         22    1    1    2    0    0  0.11212580055E+02  0.12688866835E+01  0.18659714785E+02  0.21806351844E+02  0.00000000000E+00 0.  1.
         22    1    1    2    0    0 -0.12802975205E+02 -0.33108215958E+02 -0.18244016149E+03  0.18586146094E+03  0.00000000000E+00 0.  1.
</event>
<event>
 6    1  0.1726037E-005  0.3510543E+02  0.7818608E-02  0.1583117E+00
          2   -1    0    0  502    0  0.00000000000E+00  0.00000000000E+00  0.10181331841E+03  0.10181331841E+03  0.00000000000E+00 0. -1.
          1   -1    0    0  501    0 -0.00000000000E+00 -0.00000000000E+00 -0.25246650768E+03  0.25246650768E+03  0.00000000000E+00 0.  1.
          2    1    1    2  501    0 -0.54285421502E+01  0.60141275231E+02  0.26879824847E+02  0.66098162153E+02  0.00000000000E+00 0. -1.
          1    1    1    2  502    0 -0.26219481907E+02 -0.62987625406E+02 -0.13746327253E+03  0.15346352492E+03  0.00000000000E+00 0.  1.
         22    1    1    2    0    0  0.12274646617E+02  0.26312702507E+01  0.45387800036E+02  0.47091856248E+02  0.00000000000E+00 0. -1.
         22    1    1    2    0    0  0.19373377440E+02  0.21507992484E+00 -0.85457541624E+02  0.87626282776E+02  0.00000000000E+00 0.  1.
</event>
<event>
 6    1  0.1726037E-005  0.5209197E+02  0.7818608E-02  0.1515699E+00
          2   -1    0    0  502    0  0.00000000000E+00  0.00000000000E+00  0.12522777521E+03  0.12522777521E+03  0.00000000000E+00 0.  1.
          1   -1    0    0  501    0 -0.00000000000E+00 -0.00000000000E+00 -0.90668109294E+02  0.90668109294E+02  0.00000000000E+00 0. -1.
          2    1    1    2  501    0 -0.20492110520E+02 -0.34544823051E+02  0.53019873617E+02  0.66516001019E+02  0.00000000000E+00 0.  1.
          1    1    1    2  502    0  0.62218367735E+01  0.19351813956E+02 -0.12130550408E+02  0.23671801989E+02  0.00000000000E+00 0. -1.
         22    1    1    2    0    0  0.24266679078E+01  0.26489172742E+02 -0.62115197031E+02  0.67571167608E+02  0.00000000000E+00 0.  1.
         22    1    1    2    0    0  0.11843605838E+02 -0.11296163647E+02  0.55785539738E+02  0.58136913887E+02  0.00000000000E+00 0. -1.
</event>
<event>
 6    1  0.1726037E-005  0.5665154E+02  0.7818608E-02  0.1496596E+00
          2   -1    0    0  502    0  0.00000000000E+00  0.00000000000E+00  0.68945507644E+02  0.68945507644E+02  0.00000000000E+00 0.  1.
          1   -1    0    0  501    0 -0.00000000000E+00 -0.00000000000E+00 -0.22629767180E+03  0.22629767180E+03  0.00000000000E+00 0.  1.
          2    1    1    2  501    0 -0.44439291257E+02 -0.69286761717E+01 -0.28006494307E+02  0.52983213231E+02  0.00000000000E+00 0.  1.
          1    1    1    2  502    0  0.38374696750E+01  0.52832740633E+02 -0.78174344592E+02  0.94431206753E+02  0.00000000000E+00 0.  1.
         22    1    1    2    0    0  0.52102061393E+02 -0.57747684272E+02 -0.81899618824E+02  0.11294674587E+03  0.00000000000E+00 0.  1.
         22    1    1    2    0    0 -0.11500239811E+02  0.11843619810E+02  0.30728293570E+02  0.34882013583E+02  0.00000000000E+00 0.  1.
</event>
<event>
 6    1  0.1726037E-005  0.4646392E+02  0.7818608E-02  0.1475438E+00
          2   -1    0    0  502    0  0.00000000000E+00  0.00000000000E+00  0.26529838260E+03  0.26529838260E+03  0.00000000000E+00 0.  1.
          1   -1    0    0  501    0 -0.00000000000E+00 -0.00000000000E+00 -0.19359299897E+03  0.19359299897E+03  0.00000000000E+00 0.  1.
          2    1    1    2  501    0 -0.60867746767E+02  0.71269355866E+02  0.15501643097E+03  0.18114717097E+03  0.00000000000E+00 0.  1.
          1    1    1    2  502    0  0.30522779511E+02 -0.97379022969E+02 -0.98136452000E+02  0.14158063919E+03  0.00000000000E+00 0.  1.
         22    1    1    2    0    0  0.11663724463E+02  0.14987362855E+02  0.72279814745E+02  0.74733092625E+02  0.00000000000E+00 0.  1.
         22    1    1    2    0    0  0.18681242793E+02  0.11122304247E+02 -0.57454410083E+02  0.61430478771E+02  0.00000000000E+00 0.  1.
</event>
<event>
 6    1  0.1726037E-005  0.1881879E+03  0.7818608E-02  0.1195513E+00
          2   -1    0    0  502    0  0.00000000000E+00  0.00000000000E+00  0.12211977430E+04  0.12211977430E+04  0.00000000000E+00 0. -1.
          1   -1    0    0  501    0 -0.00000000000E+00 -0.00000000000E+00 -0.58027702823E+02  0.58027702823E+02  0.00000000000E+00 0. -1.
          2    1    1    2  501    0 -0.12730234725E+03  0.65314460425E+02  0.13484186418E+03  0.19660670052E+03  0.00000000000E+00 0. -1.
          1    1    1    2  502    0  0.18588531442E+03 -0.57005397144E+02  0.51684023981E+03  0.55220177373E+03  0.00000000000E+00 0. -1.
         22    1    1    2    0    0  0.13746177268E+02 -0.52254778714E+02  0.15975073137E+03  0.16864108474E+03  0.00000000000E+00 0. -1.
         22    1    1    2    0    0 -0.72329144436E+02  0.43945715433E+02  0.35173720478E+03  0.36177588679E+03  0.00000000000E+00 0. -1.
</event>
<event>
 6    1  0.1726037E-005  0.3858346E+02  0.7818608E-02  0.1622173E+00
          2   -1    0    0  502    0  0.00000000000E+00  0.00000000000E+00  0.90187832822E+02  0.90187832822E+02  0.00000000000E+00 0.  1.
          1   -1    0    0  501    0 -0.00000000000E+00 -0.00000000000E+00 -0.13610604088E+03  0.13610604088E+03  0.00000000000E+00 0.  1.
          2    1    1    2  501    0  0.28554764737E+02 -0.10816956338E+02 -0.24711396172E+01  0.30634746035E+02  0.00000000000E+00 0.  1.
          1    1    1    2  502    0  0.31031442866E+02  0.84001197277E+01 -0.47012071189E+02  0.56953027095E+02  0.00000000000E+00 0.  1.
         22    1    1    2    0    0 -0.51873489800E+02 -0.48451633499E+01 -0.56999409903E+02  0.77222194227E+02  0.00000000000E+00 0.  1.
         22    1    1    2    0    0 -0.77127178032E+01  0.72619999602E+01  0.60564412652E+02  0.61483906343E+02  0.00000000000E+00 0.  1.
</event>
<event>
 6    1  0.1726037E-005  0.4413182E+02  0.7818608E-02  0.1584445E+00
          2   -1    0    0  502    0  0.00000000000E+00  0.00000000000E+00  0.56484171587E+02  0.56484171587E+02  0.00000000000E+00 0. -1.
          1   -1    0    0  501    0 -0.00000000000E+00 -0.00000000000E+00 -0.41290067784E+03  0.41290067784E+03  0.00000000000E+00 0. -1.
          2    1    1    2  501    0 -0.25632613792E+02 -0.17395303600E+02  0.26145492110E+00  0.30978957953E+02  0.00000000000E+00 0. -1.
          1    1    1    2  502    0 -0.17161613992E+02  0.42420778104E+02 -0.28605291513E+03  0.28969003032E+03  0.00000000000E+00 0. -1.
         22    1    1    2    0    0  0.10400763972E+02  0.39509348923E+01  0.33812374401E+02  0.35595820546E+02  0.00000000000E+00 0. -1.
         22    1    1    2    0    0  0.32393463812E+02 -0.28976409396E+02 -0.10443742044E+03  0.11312004061E+03  0.00000000000E+00 0. -1.
</event>
<event>
 6    1  0.1726037E-005  0.4694288E+02  0.7818608E-02  0.1463505E+00
          2   -1    0    0  502    0  0.00000000000E+00  0.00000000000E+00  0.14656999168E+03  0.14656999168E+03  0.00000000000E+00 0. -1.
          1   -1    0    0  501    0 -0.00000000000E+00 -0.00000000000E+00 -0.11603106341E+03  0.11603106341E+03  0.00000000000E+00 0. -1.
          2    1    1    2  501    0 -0.29404441058E+02 -0.11510378881E+02  0.84199008969E+02  0.89925430704E+02  0.00000000000E+00 0. -1.
          1    1    1    2  502    0  0.22053477995E+02  0.12780491621E+02 -0.41867890940E+02  0.49016498748E+02  0.00000000000E+00 0. -1.
         22    1    1    2    0    0  0.12654898726E+02  0.12716828556E+02 -0.65497142398E+02  0.67909792023E+02  0.00000000000E+00 0. -1.
         22    1    1    2    0    0 -0.53039356632E+01 -0.13986941296E+02  0.53704952645E+02  0.55749333619E+02  0.00000000000E+00 0. -1.
</event>
<event>
 6    1  0.1726037E-005  0.1685860E+03  0.7818608E-02  0.1235067E+00
          2   -1    0    0  502    0  0.00000000000E+00  0.00000000000E+00  0.22349004474E+03  0.22349004474E+03  0.00000000000E+00 0. -1.
          1   -1    0    0  501    0 -0.00000000000E+00 -0.00000000000E+00 -0.57344217041E+03  0.57344217041E+03  0.00000000000E+00 0. -1.
          2    1    1    2  501    0 -0.57296479269E+02  0.39882103715E+02 -0.72921958241E+02  0.10095088275E+03  0.00000000000E+00 0. -1.
          1    1    1    2  502    0  0.12496303640E+03 -0.71650309047E+02 -0.44753678248E+03  0.47014752890E+03  0.00000000000E+00 0. -1.
         22    1    1    2    0    0 -0.24878462089E+02  0.40972688668E+01 -0.17729259667E+02  0.30822915767E+02  0.00000000000E+00 0. -1.
         22    1    1    2    0    0 -0.42788095046E+02  0.27670936465E+02  0.18823587472E+03  0.19501088773E+03  0.00000000000E+00 0. -1.
</event>
<event>
 6    1  0.1726037E-005  0.7547271E+02  0.7818608E-02  0.1343075E+00
          2   -1    0    0  502    0  0.00000000000E+00  0.00000000000E+00  0.54970209083E+03  0.54970209083E+03  0.00000000000E+00 0. -1.
          1   -1    0    0  501    0 -0.00000000000E+00 -0.00000000000E+00 -0.24854069260E+02  0.24854069260E+02  0.00000000000E+00 0. -1.
          2    1    1    2  501    0  0.29946956648E+02 -0.36309879748E+02  0.88889743930E+02  0.10058138076E+03  0.00000000000E+00 0. -1.
          1    1    1    2  502    0 -0.49923119639E+02  0.22801262629E+02  0.12189721542E+03  0.13368300782E+03  0.00000000000E+00 0. -1.
         22    1    1    2    0    0  0.63104861269E+02  0.39815979228E+02  0.23414700643E+03  0.24574856325E+03  0.00000000000E+00 0. -1.
         22    1    1    2    0    0 -0.43128698278E+02 -0.26307362109E+02  0.79914055787E+02  0.94543208263E+02  0.00000000000E+00 0.  1.
</event>
<event>
 6    1  0.1726037E-005  0.4188523E+02  0.7818608E-02  0.1542934E+00
          2   -1    0    0  502    0  0.00000000000E+00  0.00000000000E+00  0.79766369390E+02  0.79766369390E+02  0.00000000000E+00 0.  1.
          1   -1    0    0  501    0 -0.00000000000E+00 -0.00000000000E+00 -0.79996823841E+03  0.79996823841E+03  0.00000000000E+00 0. -1.
          2    1    1    2  501    0 -0.34823660546E+02  0.21448486411E+02  0.71403491378E+01  0.41517580480E+02  0.00000000000E+00 0.  1.
          1    1    1    2  502    0  0.40801722274E+02 -0.33424093765E+02 -0.70508894129E+03  0.70705895491E+03  0.00000000000E+00 0. -1.
         22    1    1    2    0    0  0.10051362872E+02 -0.10193762044E+02 -0.72525106376E+02  0.73924513762E+02  0.00000000000E+00 0. -1.
         22    1    1    2    0    0 -0.16029424600E+02  0.22169369399E+02  0.50271829513E+02  0.57233558645E+02  0.00000000000E+00 0.  1.
</event>
<event>
 6    1  0.1726037E-005  0.8769484E+02  0.7818608E-02  0.1363982E+00
          2   -1    0    0  502    0  0.00000000000E+00  0.00000000000E+00  0.21961708080E+03  0.21961708080E+03  0.00000000000E+00 0.  1.
          1   -1    0    0  501    0 -0.00000000000E+00 -0.00000000000E+00 -0.18636816270E+03  0.18636816270E+03  0.00000000000E+00 0.  1.
          2    1    1    2  501    0 -0.70326045253E+02 -0.99110195414E+02  0.87638658860E+02  0.14983029735E+03  0.00000000000E+00 0.  1.
          1    1    1    2  502    0  0.73074307382E+02  0.49465875329E+02  0.36807062863E+02  0.95611124343E+02  0.00000000000E+00 0.  1.
         22    1    1    2    0    0  0.12879120431E+02 -0.25420835775E+02  0.12880113335E+02  0.31272798949E+02  0.00000000000E+00 0.  1.
         22    1    1    2    0    0 -0.15627382560E+02  0.75065155860E+02 -0.10407691695E+03  0.12927102286E+03  0.00000000000E+00 0.  1.
</event>
<event>
 6    1  0.1726037E-005  0.2558595E+03  0.7818608E-02  0.1132083E+00
          2   -1    0    0  502    0  0.00000000000E+00  0.00000000000E+00  0.53806460836E+03  0.53806460836E+03  0.00000000000E+00 0. -1.
          1   -1    0    0  501    0 -0.00000000000E+00 -0.00000000000E+00 -0.25073315966E+03  0.25073315966E+03  0.00000000000E+00 0.  1.
          2    1    1    2  501    0 -0.28574001084E+02  0.19242714019E+03  0.86253501510E+02  0.21280118501E+03  0.00000000000E+00 0. -1.
          1    1    1    2  502    0 -0.54866552518E+02 -0.29147619409E+03 -0.10711638892E+02  0.29678856028E+03  0.00000000000E+00 0.  1.
         22    1    1    2    0    0 -0.16438566053E+02 -0.76392072969E+01 -0.40229187274E+01  0.18567924416E+02  0.00000000000E+00 0. -1.
         22    1    1    2    0    0  0.99879119655E+02  0.10668826119E+03  0.21581250480E+03  0.26064009831E+03  0.00000000000E+00 0. -1.
</event>
<event>
 6    1  0.1726037E-005  0.8538291E+02  0.7818608E-02  0.1354803E+00
          2   -1    0    0  502    0  0.00000000000E+00  0.00000000000E+00  0.58166250225E+03  0.58166250225E+03  0.00000000000E+00 0. -1.
          1   -1    0    0  501    0 -0.00000000000E+00 -0.00000000000E+00 -0.43043618985E+02  0.43043618985E+02  0.00000000000E+00 0. -1.
          2    1    1    2  501    0 -0.23718810901E+02 -0.74337493618E+02  0.19245065347E+02  0.80368012842E+02  0.00000000000E+00 0. -1.
          1    1    1    2  502    0  0.67532985262E+01  0.21549886133E+02  0.11146279606E+03  0.11372756719E+03  0.00000000000E+00 0. -1.
         22    1    1    2    0    0 -0.27970118810E+02 -0.31564088282E+02  0.11402982063E+03  0.12157886004E+03  0.00000000000E+00 0.  1.
         22    1    1    2    0    0  0.44935631184E+02  0.84351695767E+02  0.29388120123E+03  0.30903168116E+03  0.00000000000E+00 0. -1.
</event>
<event>
 6    1  0.1726037E-005  0.5259081E+02  0.7818608E-02  0.1519953E+00
          2   -1    0    0  502    0  0.00000000000E+00  0.00000000000E+00  0.13555237510E+03  0.13555237510E+03  0.00000000000E+00 0.  1.
          1   -1    0    0  501    0 -0.00000000000E+00 -0.00000000000E+00 -0.22466493689E+03  0.22466493689E+03  0.00000000000E+00 0.  1.
          2    1    1    2  501    0 -0.49639343615E+02  0.41317139736E+02  0.83143533808E+02  0.10528066149E+03  0.00000000000E+00 0.  1.
          1    1    1    2  502    0  0.15410668941E+02 -0.42514388595E+02 -0.99052052996E+02  0.10888650586E+03  0.00000000000E+00 0.  1.
         22    1    1    2    0    0 -0.88809511962E+01 -0.88109571921E+01  0.30679717293E+02  0.33132300161E+02  0.00000000000E+00 0.  1.
         22    1    1    2    0    0  0.43109625870E+02  0.10008206051E+02 -0.10388375990E+03  0.11291784448E+03  0.00000000000E+00 0.  1.
</event>
<event>
 6    1  0.1726037E-005  0.9445635E+02  0.7818608E-02  0.1359908E+00
          2   -1    0    0  502    0  0.00000000000E+00  0.00000000000E+00  0.99242176021E+03  0.99242176021E+03  0.00000000000E+00 0. -1.
          1   -1    0    0  501    0 -0.00000000000E+00 -0.00000000000E+00 -0.19258818741E+03  0.19258818741E+03  0.00000000000E+00 0.  1.
          2    1    1    2  501    0 -0.39658947320E+02  0.11097838300E+03  0.83383411593E+03  0.84212134903E+03  0.00000000000E+00 0. -1.
          1    1    1    2  502    0 -0.40915158826E+02 -0.16095553897E+03 -0.75083272100E+02  0.18225869937E+03  0.00000000000E+00 0.  1.
         22    1    1    2    0    0  0.20995646329E+02  0.75139085820E+01  0.76257533433E+02  0.79451163567E+02  0.00000000000E+00 0.  1.
         22    1    1    2    0    0  0.59578459817E+02  0.42463247388E+02 -0.35174804466E+02  0.81178735652E+02  0.00000000000E+00 0. -1.
</event>
<event>
 6    1  0.1726037E-005  0.5985789E+02  0.7818608E-02  0.1407907E+00
          2   -1    0    0  502    0  0.00000000000E+00  0.00000000000E+00  0.22592920348E+02  0.22592920348E+02  0.00000000000E+00 0.  1.
          1   -1    0    0  501    0 -0.00000000000E+00 -0.00000000000E+00 -0.46711506895E+03  0.46711506895E+03  0.00000000000E+00 0.  1.
          2    1    1    2  501    0  0.25486488441E+02  0.64960834859E+01 -0.18308359551E+03  0.18496313994E+03  0.00000000000E+00 0.  1.
          1    1    1    2  502    0 -0.33490587315E+01  0.28164978651E+02 -0.62593519153E+02  0.68719945116E+02  0.00000000000E+00 0.  1.
         22    1    1    2    0    0 -0.56469302205E+02  0.37946632024E+01 -0.16479697148E+03  0.17424472265E+03  0.00000000000E+00 0. -1.
         22    1    1    2    0    0  0.34331872495E+02 -0.38455725339E+02 -0.34048062460E+02  0.61780181593E+02  0.00000000000E+00 0.  1.
</event>
<event>
 6    1  0.1726037E-005  0.3140823E+02  0.7818608E-02  0.1636363E+00
          2   -1    0    0  502    0  0.00000000000E+00  0.00000000000E+00  0.10586561736E+03  0.10586561736E+03  0.00000000000E+00 0.  1.
          1   -1    0    0  501    0 -0.00000000000E+00 -0.00000000000E+00 -0.21780976108E+03  0.21780976108E+03  0.00000000000E+00 0.  1.
          2    1    1    2  501    0  0.42297594113E+01  0.23668357130E+02  0.58983155340E+02  0.63695326421E+02  0.00000000000E+00 0.  1.
          1    1    1    2  502    0  0.35596164976E+02 -0.56938098388E+01 -0.11242289059E+03  0.11806105522E+03  0.00000000000E+00 0.  1.
         22    1    1    2    0    0 -0.15458171224E+02  0.62133221741E+01  0.36920428795E+02  0.40505289685E+02  0.00000000000E+00 0. -1.
         22    1    1    2    0    0 -0.24367753163E+02 -0.24187869466E+02 -0.95424837271E+02  0.10141370712E+03  0.00000000000E+00 0.  1.
</event>
<event>
 6    1  0.1726037E-005  0.6892837E+02  0.7818608E-02  0.1366804E+00
          2   -1    0    0  502    0  0.00000000000E+00  0.00000000000E+00  0.64149450438E+02  0.64149450438E+02  0.00000000000E+00 0. -1.
          1   -1    0    0  501    0 -0.00000000000E+00 -0.00000000000E+00 -0.29780913465E+03  0.29780913465E+03  0.00000000000E+00 0.  1.
          2    1    1    2  501    0 -0.37354591104E+02  0.24273736266E+02  0.16069496538E+02  0.47358298827E+02  0.00000000000E+00 0. -1.
          1    1    1    2  502    0  0.38692667909E+02 -0.15107252317E+02 -0.14886994963E+03  0.15455618243E+03  0.00000000000E+00 0.  1.
         22    1    1    2    0    0  0.20161341327E+02 -0.10391684723E+02 -0.12537696968E+03  0.12741213176E+03  0.00000000000E+00 0.  1.
         22    1    1    2    0    0 -0.21499418133E+02  0.12252007738E+01  0.24517738560E+02  0.32631972069E+02  0.00000000000E+00 0. -1.
</event>
<event>
 6    1  0.1726037E-005  0.1945860E+03  0.7818608E-02  0.1222398E+00
          2   -1    0    0  502    0  0.00000000000E+00  0.00000000000E+00  0.59920963946E+02  0.59920963946E+02  0.00000000000E+00 0. -1.
          1   -1    0    0  501    0 -0.00000000000E+00 -0.00000000000E+00 -0.69404401589E+03  0.69404401589E+03  0.00000000000E+00 0. -1.
          2    1    1    2  501    0 -0.11974773474E+03 -0.93828210713E+02 -0.16299044683E+03  0.22295546385E+03  0.00000000000E+00 0. -1.
          1    1    1    2  502    0  0.56138040714E+02  0.18555915021E+02 -0.39706426468E+02  0.71220796825E+02  0.00000000000E+00 0. -1.
         22    1    1    2    0    0 -0.26877389656E+02  0.33655304345E+02 -0.52065246074E+02  0.67571173100E+02  0.00000000000E+00 0. -1.
         22    1    1    2    0    0  0.90487083679E+02  0.41616991347E+02 -0.37936093256E+03  0.39221754606E+03  0.00000000000E+00 0. -1.
</event>
<event>
 6    1  0.1726037E-005  0.3082155E+03  0.7818608E-02  0.1216224E+00
          2   -1    0    0  502    0  0.00000000000E+00  0.00000000000E+00  0.92987479292E+02  0.92987479292E+02  0.00000000000E+00 0.  1.
          1   -1    0    0  501    0 -0.00000000000E+00 -0.00000000000E+00 -0.23916654269E+04  0.23916654269E+04  0.00000000000E+00 0.  1.
          2    1    1    2  501    0 -0.91454262485E+02 -0.19384387473E+03 -0.27750886762E+03  0.35064298297E+03  0.00000000000E+00 0.  1.
          1    1    1    2  502    0  0.25606962818E+03 -0.12447449833E+03 -0.62542361147E+03  0.68718283520E+03  0.00000000000E+00 0.  1.
         22    1    1    2    0    0  0.21330037996E+01  0.12154339540E+02 -0.54547619566E+01  0.13491927322E+02  0.00000000000E+00 0. -1.
         22    1    1    2    0    0 -0.16674836949E+03  0.30616403352E+03 -0.13902907066E+04  0.14333351607E+04  0.00000000000E+00 0.  1.
</event>
<event>
 6    1  0.1726037E-005  0.7004819E+02  0.7818608E-02  0.1448902E+00
          2   -1    0    0  502    0  0.00000000000E+00  0.00000000000E+00  0.15592647077E+03  0.15592647077E+03  0.00000000000E+00 0. -1.
          1   -1    0    0  501    0 -0.00000000000E+00 -0.00000000000E+00 -0.26985464775E+03  0.26985464775E+03  0.00000000000E+00 0.  1.
          2    1    1    2  501    0 -0.11616227463E+03  0.26073453486E+02  0.20349442541E+02  0.12077913245E+03  0.00000000000E+00 0. -1.
          1    1    1    2  502    0  0.11858995470E+03 -0.57381539202E+02 -0.10771908750E+03  0.17017526321E+03  0.00000000000E+00 0.  1.
         22    1    1    2    0    0  0.17646119135E+01 -0.99282629615E+01  0.48255619099E+02  0.49297961776E+02  0.00000000000E+00 0. -1.
         22    1    1    2    0    0 -0.41922919748E+01  0.41236348677E+02 -0.74814151125E+02  0.85528761085E+02  0.00000000000E+00 0.  1.
</event>
<event>
 6    1  0.1726037E-005  0.3267308E+02  0.7818608E-02  0.1606734E+00
          2   -1    0    0  502    0  0.00000000000E+00  0.00000000000E+00  0.65726123294E+02  0.65726123294E+02  0.00000000000E+00 0. -1.
          1   -1    0    0  501    0 -0.00000000000E+00 -0.00000000000E+00 -0.23355514985E+03  0.23355514985E+03  0.00000000000E+00 0.  1.
          2    1    1    2  501    0 -0.10930484768E+02 -0.32092257194E+02 -0.26401155585E+02  0.42969867178E+02  0.00000000000E+00 0. -1.
          1    1    1    2  502    0 -0.13657554317E+02  0.32764146174E+02 -0.11799359937E+03  0.12321731841E+03  0.00000000000E+00 0.  1.
         22    1    1    2    0    0 -0.27597704232E+00 -0.18096585226E+02  0.50244440500E+02  0.53404741000E+02  0.00000000000E+00 0. -1.
         22    1    1    2    0    0  0.24864016127E+02  0.17424696245E+02 -0.73678712103E+02  0.79689346555E+02  0.00000000000E+00 0. -1.
</event>
<event>
 6    1  0.1726037E-005  0.4489698E+02  0.7818608E-02  0.1586361E+00
          2   -1    0    0  502    0  0.00000000000E+00  0.00000000000E+00  0.45538946791E+03  0.45538946791E+03  0.00000000000E+00 0.  1.
          1   -1    0    0  501    0 -0.00000000000E+00 -0.00000000000E+00 -0.11686601822E+03  0.11686601822E+03  0.00000000000E+00 0.  1.
          2    1    1    2  501    0  0.12055129363E+02  0.33679236309E+02  0.39607196791E+03  0.39768407168E+03  0.00000000000E+00 0.  1.
          1    1    1    2  502    0 -0.17053467870E+02 -0.17379790166E+02 -0.42990106165E+02  0.49406751570E+02  0.00000000000E+00 0.  1.
         22    1    1    2    0    0 -0.52854553248E+01 -0.17180370961E+02 -0.68205176025E+02  0.70534014638E+02  0.00000000000E+00 0. -1.
         22    1    1    2    0    0  0.10283793832E+02  0.88092481865E+00  0.53646763965E+02  0.54630648248E+02  0.00000000000E+00 0.  1.
</event>
<event>
 6    1  0.1726037E-005  0.8465092E+02  0.7818608E-02  0.1368347E+00
          2   -1    0    0  502    0  0.00000000000E+00  0.00000000000E+00  0.49152658047E+03  0.49152658047E+03  0.00000000000E+00 0. -1.
          1   -1    0    0  501    0 -0.00000000000E+00 -0.00000000000E+00 -0.22525452230E+03  0.22525452230E+03  0.00000000000E+00 0.  1.
          2    1    1    2  501    0  0.85185652189E+02 -0.55266617285E+01  0.27378817879E+03  0.28678756279E+03  0.00000000000E+00 0. -1.
          1    1    1    2  502    0 -0.71090551090E+02 -0.17933853570E+02 -0.19130245165E+03  0.20487097785E+03  0.00000000000E+00 0.  1.
         22    1    1    2    0    0 -0.44585431463E+01 -0.96507757616E+01 -0.17732136034E+02  0.20674736470E+02  0.00000000000E+00 0. -1.
         22    1    1    2    0    0 -0.96365579530E+01  0.33111291060E+02  0.20151846707E+03  0.20444782566E+03  0.00000000000E+00 0. -1.
</event>
<event>
 6    1  0.1726037E-005  0.1336388E+03  0.7818608E-02  0.1349592E+00
          2   -1    0    0  502    0  0.00000000000E+00  0.00000000000E+00  0.74960255090E+02  0.74960255090E+02  0.00000000000E+00 0.  1.
          1   -1    0    0  501    0 -0.00000000000E+00 -0.00000000000E+00 -0.41986057220E+03  0.41986057220E+03  0.00000000000E+00 0. -1.
          2    1    1    2  501    0 -0.11989703267E+02 -0.13007769904E+03 -0.78792002691E+02  0.15255209097E+03  0.00000000000E+00 0.  1.
          1    1    1    2  502    0  0.61038117366E+01  0.81540726281E+02 -0.13207760386E+03  0.15534040041E+03  0.00000000000E+00 0. -1.
         22    1    1    2    0    0 -0.70702598135E+01  0.97184819875E+01  0.22298723370E+02  0.25331216510E+02  0.00000000000E+00 0.  1.
         22    1    1    2    0    0  0.12956151344E+02  0.38818490770E+02 -0.15632943393E+03  0.16159711940E+03  0.00000000000E+00 0. -1.
</event>
<event>
 6    1  0.1726037E-005  0.1182207E+03  0.7818608E-02  0.1315333E+00
          2   -1    0    0  502    0  0.00000000000E+00  0.00000000000E+00  0.41733163386E+02  0.41733163386E+02  0.00000000000E+00 0. -1.
          1   -1    0    0  501    0 -0.00000000000E+00 -0.00000000000E+00 -0.65445234857E+03  0.65445234857E+03  0.00000000000E+00 0. -1.
          2    1    1    2  501    0  0.20471995496E+02 -0.10834467661E+03 -0.19652466440E+03  0.22534332754E+03  0.00000000000E+00 0. -1.
          1    1    1    2  502    0  0.14233129919E+02  0.71558203145E+02 -0.20655570993E+03  0.21906259318E+03  0.00000000000E+00 0. -1.
         22    1    1    2    0    0 -0.30620292878E+02 -0.80081883604E+01  0.53818930871E+01  0.32104488626E+02  0.00000000000E+00 0. -1.
         22    1    1    2    0    0 -0.40848325367E+01  0.44794661826E+02 -0.21502070394E+03  0.21967510261E+03  0.00000000000E+00 0.  1.
</event>
<event>
 6    1  0.1726037E-005  0.2043187E+03  0.7818608E-02  0.1251231E+00
          2   -1    0    0  502    0  0.00000000000E+00  0.00000000000E+00  0.37055941966E+03  0.37055941966E+03  0.00000000000E+00 0.  1.
          1   -1    0    0  501    0 -0.00000000000E+00 -0.00000000000E+00 -0.11400149278E+03  0.11400149278E+03  0.00000000000E+00 0.  1.
          2    1    1    2  501    0 -0.11215290600E+03 -0.51792137419E+02  0.17833812219E+03  0.21694512129E+03  0.00000000000E+00 0.  1.
          1    1    1    2  502    0  0.12241490073E+00  0.84794998406E+02  0.38997296965E+02  0.93332716186E+02  0.00000000000E+00 0.  1.
         22    1    1    2    0    0 -0.10997207949E+01 -0.20619834222E+02  0.55594620392E+02  0.59305554256E+02  0.00000000000E+00 0.  1.
         22    1    1    2    0    0  0.11313021189E+03 -0.12383026766E+02 -0.16372112668E+02  0.11497752071E+03  0.00000000000E+00 0.  1.
</event>
<event>
 6    1  0.1726037E-005  0.1428004E+03  0.7818608E-02  0.1283044E+00
          2   -1    0    0  502    0  0.00000000000E+00  0.00000000000E+00  0.66982692584E+02  0.66982692584E+02  0.00000000000E+00 0.  1.
          1   -1    0    0  501    0 -0.00000000000E+00 -0.00000000000E+00 -0.37996023850E+03  0.37996023850E+03  0.00000000000E+00 0.  1.
          2    1    1    2  501    0  0.39543659761E+02  0.52066893610E+02  0.69002017044E+01  0.65744012815E+02  0.00000000000E+00 0.  1.
          1    1    1    2  502    0  0.47900514702E+02  0.41877785691E+01 -0.72413705574E+02  0.86923768631E+02  0.00000000000E+00 0.  1.
         22    1    1    2    0    0 -0.29216399018E+02  0.14452982126E+02 -0.24366071047E+01  0.32686751415E+02  0.00000000000E+00 0.  1.
         22    1    1    2    0    0 -0.58227775445E+02 -0.70707654305E+02 -0.24502743494E+03  0.26158839822E+03  0.00000000000E+00 0.  1.
</event>
<event>
 6    1  0.1726037E-005  0.8337168E+02  0.7818608E-02  0.1440066E+00
          2   -1    0    0  502    0  0.00000000000E+00  0.00000000000E+00  0.44021572425E+03  0.44021572425E+03  0.00000000000E+00 0. -1.
          1   -1    0    0  501    0 -0.00000000000E+00 -0.00000000000E+00 -0.19020705218E+03  0.19020705218E+03  0.00000000000E+00 0. -1.
          2    1    1    2  501    0 -0.68656686395E+02  0.58026055615E+02  0.37134485218E+03  0.38207036388E+03  0.00000000000E+00 0. -1.
          1    1    1    2  502    0  0.42551531231E+02 -0.33969051036E+02 -0.98857652441E+02  0.11285993392E+03  0.00000000000E+00 0. -1.
         22    1    1    2    0    0  0.17803700171E+01 -0.11529699465E+02  0.53489719617E+02  0.54747180675E+02  0.00000000000E+00 0.  1.
         22    1    1    2    0    0  0.24324785147E+02 -0.12527305114E+02 -0.75968247282E+02  0.80745297949E+02  0.00000000000E+00 0. -1.
</event>
<event>
 6    1  0.1726037E-005  0.9391504E+02  0.7818608E-02  0.1336561E+00
          2   -1    0    0  502    0  0.00000000000E+00  0.00000000000E+00  0.15650310770E+03  0.15650310770E+03  0.00000000000E+00 0. -1.
          1   -1    0    0  501    0 -0.00000000000E+00 -0.00000000000E+00 -0.18532770997E+03  0.18532770997E+03  0.00000000000E+00 0. -1.
          2    1    1    2  501    0  0.69559763704E+02 -0.21717646650E+02 -0.10219899838E+03  0.12551833401E+03  0.00000000000E+00 0. -1.
          1    1    1    2  502    0 -0.15468364985E+02 -0.16760406556E+02 -0.30401540847E+02  0.38005726267E+02  0.00000000000E+00 0. -1.
         22    1    1    2    0    0  0.15428885483E+02  0.40515272127E+02  0.99605791273E+02  0.10863172390E+03  0.00000000000E+00 0. -1.
         22    1    1    2    0    0 -0.69520284203E+02 -0.20372189208E+01  0.41701456783E+01  0.69675033488E+02  0.00000000000E+00 0.  1.
</event>
<event>
 6    1  0.1726037E-005  0.5103301E+02  0.7818608E-02  0.1480942E+00
          2   -1    0    0  502    0  0.00000000000E+00  0.00000000000E+00  0.82153078785E+02  0.82153078785E+02  0.00000000000E+00 0. -1.
          1   -1    0    0  501    0 -0.00000000000E+00 -0.00000000000E+00 -0.25719817850E+03  0.25719817850E+03  0.00000000000E+00 0. -1.
          2    1    1    2  501    0  0.17455049492E+02  0.63579651765E+02 -0.74449180901E+02  0.99447128707E+02  0.00000000000E+00 0. -1.
          1    1    1    2  502    0 -0.52581206530E+02 -0.68145459208E+02 -0.66524909557E+02  0.10878488168E+03  0.00000000000E+00 0. -1.
         22    1    1    2    0    0  0.54108953482E+01 -0.20479661140E+02 -0.73060768726E+02  0.76069509238E+02  0.00000000000E+00 0. -1.
         22    1    1    2    0    0  0.29715261690E+02  0.25045468583E+02  0.38989759464E+02  0.55049737664E+02  0.00000000000E+00 0. -1.
</event>
<event>
 6    1  0.1726037E-005  0.3928338E+02  0.7818608E-02  0.1543173E+00
          2   -1    0    0  502    0  0.00000000000E+00  0.00000000000E+00  0.20473902909E+03  0.20473902909E+03  0.00000000000E+00 0.  1.
          1   -1    0    0  501    0 -0.00000000000E+00 -0.00000000000E+00 -0.15493318346E+03  0.15493318346E+03  0.00000000000E+00 0. -1.
          2    1    1    2  501    0  0.14366850013E+02  0.78012964528E+02  0.10180128443E+03  0.12905785728E+03  0.00000000000E+00 0.  1.
          1    1    1    2  502    0 -0.27664646665E+01 -0.77132056945E+02 -0.75070534433E+02  0.10766890301E+03  0.00000000000E+00 0. -1.
         22    1    1    2    0    0  0.76593600675E+00  0.11942158099E+02  0.70903945551E+02  0.71906684618E+02  0.00000000000E+00 0.  1.
         22    1    1    2    0    0 -0.12366321354E+02 -0.12823065682E+02 -0.47828849920E+02  0.51038767638E+02  0.00000000000E+00 0. -1.
</event>
<event>
 6    1  0.1726037E-005  0.5700996E+02  0.7818608E-02  0.1421575E+00
          2   -1    0    0  502    0  0.00000000000E+00  0.00000000000E+00  0.22721726277E+02  0.22721726277E+02  0.00000000000E+00 0. -1.
          1   -1    0    0  501    0 -0.00000000000E+00 -0.00000000000E+00 -0.58586705270E+03  0.58586705270E+03  0.00000000000E+00 0. -1.
          2    1    1    2  501    0  0.43992969933E+02  0.19466339498E+01 -0.32282704211E+03  0.32581662006E+03  0.00000000000E+00 0. -1.
          1    1    1    2  502    0 -0.22662616933E+02  0.86444940386E+00 -0.41940817061E+02  0.47679907873E+02  0.00000000000E+00 0. -1.
         22    1    1    2    0    0  0.16940141302E+02 -0.45208492540E+02 -0.28940914547E+02  0.56288122370E+02  0.00000000000E+00 0. -1.
         22    1    1    2    0    0 -0.38270494302E+02  0.42397409187E+02 -0.16943655270E+03  0.17880412867E+03  0.00000000000E+00 0. -1.
</event>
<event>
 6    1  0.1726037E-005  0.2835868E+02  0.7818608E-02  0.1617545E+00
          2   -1    0    0  502    0  0.00000000000E+00  0.00000000000E+00  0.55536258896E+02  0.55536258896E+02  0.00000000000E+00 0.  1.
          1   -1    0    0  501    0 -0.00000000000E+00 -0.00000000000E+00 -0.27486773281E+03  0.27486773281E+03  0.00000000000E+00 0. -1.
          2    1    1    2  501    0  0.79506633964E+01  0.25083675223E+02 -0.36185235276E+01  0.26561203355E+02  0.00000000000E+00 0.  1.
          1    1    1    2  502    0  0.19086220501E+02 -0.24090301667E+02 -0.16946259648E+03  0.17222716991E+03  0.00000000000E+00 0. -1.
         22    1    1    2    0    0 -0.13856004342E+02  0.17519722991E+02  0.38150601359E+02  0.44208573083E+02  0.00000000000E+00 0.  1.
         22    1    1    2    0    0 -0.13180879555E+02 -0.18513096548E+02 -0.84400955264E+02  0.87407045363E+02  0.00000000000E+00 0. -1.
</event>
<event>
 6    1  0.2924576E-005  0.7129345E+02  0.7818608E-02  0.1381606E+00
          2   -1    0    0  502    0  0.00000000000E+00  0.00000000000E+00  0.21145204124E+03  0.21145204124E+03  0.00000000000E+00 0.  1.
          1   -1    0    0  501    0 -0.00000000000E+00 -0.00000000000E+00 -0.52066114947E+03  0.52066114947E+03  0.00000000000E+00 0.  1.
          2    1    1    2  501    0  0.17773717677E+03 -0.71313965707E+02  0.82094144733E+02  0.20836418673E+03  0.00000000000E+00 0.  1.
          1    1    1    2  502    0 -0.18046884557E+03  0.59346641708E+02 -0.32728911447E+03  0.37842990441E+03  0.00000000000E+00 0.  1.
         22    1    1    2    0    0  0.18169791876E+02  0.18205863355E+02  0.35824184614E+02  0.44101780016E+02  0.00000000000E+00 0.  1.
         22    1    1    2    0    0 -0.15438123077E+02 -0.62385393558E+01 -0.99838323101E+02  0.10121731955E+03  0.00000000000E+00 0. -1.
</event>
<event>
 6    1  0.1726037E-005  0.7498149E+02  0.7818608E-02  0.1373901E+00
          2   -1    0    0  502    0  0.00000000000E+00  0.00000000000E+00  0.19905687327E+03  0.19905687327E+03  0.00000000000E+00 0. -1.
          1   -1    0    0  501    0 -0.00000000000E+00 -0.00000000000E+00 -0.39027580377E+03  0.39027580377E+03  0.00000000000E+00 0.  1.
          2    1    1    2  501    0  0.11933477858E+03  0.17611743403E+02  0.85760375362E+02  0.14800609739E+03  0.00000000000E+00 0. -1.
          1    1    1    2  502    0 -0.13621797151E+03  0.23740673780E+01 -0.27971943028E+03  0.31113330204E+03  0.00000000000E+00 0.  1.
         22    1    1    2    0    0  0.59063506493E+01 -0.43006364395E+02 -0.53229831468E+02  0.68686587589E+02  0.00000000000E+00 0. -1.
         22    1    1    2    0    0  0.10976842286E+02  0.23020553615E+02  0.55969955885E+02  0.61506690019E+02  0.00000000000E+00 0. -1.
</event>
<event>
 6    1  0.1726037E-005  0.4619543E+02  0.7818608E-02  0.1484318E+00
          2   -1    0    0  502    0  0.00000000000E+00  0.00000000000E+00  0.11197334360E+03  0.11197334360E+03  0.00000000000E+00 0.  1.
          1   -1    0    0  501    0 -0.00000000000E+00 -0.00000000000E+00 -0.52185170915E+03  0.52185170915E+03  0.00000000000E+00 0.  1.
          2    1    1    2  501    0 -0.57618727429E+02  0.18151517661E+02  0.68782333426E+02  0.91544550550E+02  0.00000000000E+00 0.  1.
          1    1    1    2  502    0  0.64686361562E+02 -0.14558549036E+02 -0.37684751856E+03  0.38263602675E+03  0.00000000000E+00 0.  1.
         22    1    1    2    0    0  0.10227782849E+02  0.20267844512E+02 -0.12188970710E+03  0.12398586113E+03  0.00000000000E+00 0.  1.
         22    1    1    2    0    0 -0.17295416982E+02 -0.23860813137E+02  0.20076526681E+02  0.35658614327E+02  0.00000000000E+00 0.  1.
</event>
<event>
 6    1  0.1726037E-005  0.5645569E+02  0.7818608E-02  0.1495749E+00
          2   -1    0    0  502    0  0.00000000000E+00  0.00000000000E+00  0.51608775951E+03  0.51608775951E+03  0.00000000000E+00 0. -1.
          1   -1    0    0  501    0 -0.00000000000E+00 -0.00000000000E+00 -0.52359610509E+02  0.52359610509E+02  0.00000000000E+00 0. -1.
          2    1    1    2  501    0 -0.32399962915E+02 -0.90578162230E+02  0.18289059707E+03  0.20664736041E+03  0.00000000000E+00 0. -1.
          1    1    1    2  502    0  0.25078544776E+00  0.52370370033E+02  0.44456403809E+01  0.52559321430E+02  0.00000000000E+00 0. -1.
         22    1    1    2    0    0  0.17306475869E+02  0.46240590835E+02  0.28572196474E+03  0.28995645791E+03  0.00000000000E+00 0. -1.
         22    1    1    2    0    0  0.14842701598E+02 -0.80327986381E+01 -0.93300531849E+01  0.19284230271E+02  0.00000000000E+00 0. -1.
</event>
<event>
 6    1  0.1726037E-005  0.5687487E+02  0.7818608E-02  0.1420949E+00
          2   -1    0    0  502    0  0.00000000000E+00  0.00000000000E+00  0.17719139904E+03  0.17719139904E+03  0.00000000000E+00 0.  1.
          1   -1    0    0  501    0 -0.00000000000E+00 -0.00000000000E+00 -0.71670321569E+02  0.71670321569E+02  0.00000000000E+00 0.  1.
          2    1    1    2  501    0  0.93742729469E+01 -0.44336093069E+02 -0.24153174106E+02  0.51351163193E+02  0.00000000000E+00 0.  1.
          1    1    1    2  502    0 -0.35300016313E+01  0.22499443528E+02  0.84118229549E+01  0.24278480925E+02  0.00000000000E+00 0.  1.
         22    1    1    2    0    0  0.41959745666E+02 -0.25484827161E+02  0.81355657496E+02  0.95020206684E+02  0.00000000000E+00 0.  1.
         22    1    1    2    0    0 -0.47804016982E+02  0.47321476701E+02  0.39906771125E+02  0.78211869805E+02  0.00000000000E+00 0.  1.
</event>
<event>
 6    1  0.1726037E-005  0.1515919E+03  0.7818608E-02  0.1315214E+00
          2   -1    0    0  502    0  0.00000000000E+00  0.00000000000E+00  0.19997183182E+03  0.19997183182E+03  0.00000000000E+00 0. -1.
          1   -1    0    0  501    0 -0.00000000000E+00 -0.00000000000E+00 -0.44322104308E+03  0.44322104308E+03  0.00000000000E+00 0. -1.
          2    1    1    2  501    0 -0.95622512131E+02  0.46466382833E+02  0.15882079347E+03  0.19111994662E+03  0.00000000000E+00 0. -1.
          1    1    1    2  502    0  0.28719457882E+02 -0.54672747016E+02 -0.10189749828E+03  0.11915123450E+03  0.00000000000E+00 0. -1.
         22    1    1    2    0    0 -0.98964736091E+01 -0.11330239994E+02  0.63442097479E+01  0.16326773274E+02  0.00000000000E+00 0. -1.
         22    1    1    2    0    0  0.76799527859E+02  0.19536604177E+02 -0.30651671619E+03  0.31659492050E+03  0.00000000000E+00 0. -1.
</event>
<event>
 6    1  0.1726037E-005  0.3079023E+02  0.7818608E-02  0.1591188E+00
          2   -1    0    0  502    0  0.00000000000E+00  0.00000000000E+00  0.78910488402E+02  0.78910488402E+02  0.00000000000E+00 0.  1.
          1   -1    0    0  501    0 -0.00000000000E+00 -0.00000000000E+00 -0.15821127788E+03  0.15821127788E+03  0.00000000000E+00 0.  1.
          2    1    1    2  501    0  0.27892745107E+02 -0.24055304264E+02  0.62214140377E+01  0.37354636733E+02  0.00000000000E+00 0.  1.
          1    1    1    2  502    0 -0.35355905410E+02  0.31993548624E+02 -0.57614687683E+02  0.74786893489E+02  0.00000000000E+00 0.  1.
         22    1    1    2    0    0 -0.98824460797E+01 -0.21186965929E+02 -0.72043733452E+02  0.75741994927E+02  0.00000000000E+00 0.  1.
         22    1    1    2    0    0  0.17345606383E+02  0.13248721569E+02  0.44136217621E+02  0.49238241133E+02  0.00000000000E+00 0.  1.
</event>
<event>
 6    1  0.1726037E-005  0.1080567E+03  0.7818608E-02  0.1313108E+00
          2   -1    0    0  502    0  0.00000000000E+00  0.00000000000E+00  0.22415372806E+03  0.22415372806E+03  0.00000000000E+00 0. -1.
          1   -1    0    0  501    0 -0.00000000000E+00 -0.00000000000E+00 -0.91121312020E+02  0.91121312020E+02  0.00000000000E+00 0. -1.
          2    1    1    2  501    0  0.61876924083E+02 -0.58649879312E+02  0.22114002845E+02  0.88077188870E+02  0.00000000000E+00 0. -1.
          1    1    1    2  502    0 -0.48316352379E+02  0.49183483070E+02  0.33941211011E+02  0.76847190704E+02  0.00000000000E+00 0. -1.
         22    1    1    2    0    0 -0.46914063755E+02  0.36833554391E+02 -0.27381358174E+01  0.59708772344E+02  0.00000000000E+00 0. -1.
         22    1    1    2    0    0  0.33353492051E+02 -0.27367158149E+02  0.79715337999E+02  0.90641888161E+02  0.00000000000E+00 0. -1.
</event>
<event>
 6    1  0.1726037E-005  0.4947856E+02  0.7818608E-02  0.1452765E+00
          2   -1    0    0  502    0  0.00000000000E+00  0.00000000000E+00  0.25877323860E+03  0.25877323860E+03  0.00000000000E+00 0.  1.
          1   -1    0    0  501    0 -0.00000000000E+00 -0.00000000000E+00 -0.15819890154E+03  0.15819890154E+03  0.00000000000E+00 0.  1.
          2    1    1    2  501    0  0.58806703307E+02 -0.26743984889E+02  0.14572440330E+03  0.15940222959E+03  0.00000000000E+00 0.  1.
          1    1    1    2  502    0 -0.62428660250E+01  0.44256473289E+02 -0.10016947155E+03  0.10968833955E+03  0.00000000000E+00 0.  1.
         22    1    1    2    0    0 -0.34755228065E+02  0.12416796581E+02 -0.35305997203E+02  0.51074613593E+02  0.00000000000E+00 0.  1.
         22    1    1    2    0    0 -0.17808609217E+02 -0.29929284981E+02  0.90325402512E+02  0.96806957398E+02  0.00000000000E+00 0.  1.
</event>
<event>
 6    1  0.1726037E-005  0.4288545E+02  0.7818608E-02  0.1559392E+00
          2   -1    0    0  502    0  0.00000000000E+00  0.00000000000E+00  0.10218630103E+03  0.10218630103E+03  0.00000000000E+00 0. -1.
          1   -1    0    0  501    0 -0.00000000000E+00 -0.00000000000E+00 -0.82620446971E+02  0.82620446971E+02  0.00000000000E+00 0. -1.
          2    1    1    2  501    0 -0.30559156350E+02 -0.86415564762E+01  0.22532640835E+01  0.31837332398E+02  0.00000000000E+00 0. -1.
          1    1    1    2  502    0  0.89267493327E+01 -0.21178368524E+02  0.34123329171E+01  0.23234761951E+02  0.00000000000E+00 0. -1.
         22    1    1    2    0    0  0.34189700891E+02  0.40638813531E+02  0.60365392158E+02  0.80401675248E+02  0.00000000000E+00 0. -1.
         22    1    1    2    0    0 -0.12557293874E+02 -0.10818888531E+02 -0.46465135100E+02  0.49332978405E+02  0.00000000000E+00 0. -1.
</event>
<event>
 6    1  0.1726037E-005  0.1673818E+03  0.7818608E-02  0.1286163E+00
          2   -1    0    0  502    0  0.00000000000E+00  0.00000000000E+00  0.49265134305E+03  0.49265134305E+03  0.00000000000E+00 0. -1.
          1   -1    0    0  501    0 -0.00000000000E+00 -0.00000000000E+00 -0.13044266006E+03  0.13044266006E+03  0.00000000000E+00 0. -1.
          2    1    1    2  501    0  0.55315773137E+02 -0.15083989374E+03  0.32533747526E+03  0.36284567120E+03  0.00000000000E+00 0. -1.
          1    1    1    2  502    0 -0.36752745010E+02  0.11603177150E+03 -0.15648357725E+02  0.12271514724E+03  0.00000000000E+00 0. -1.
         22    1    1    2    0    0 -0.36567123531E+00  0.40552113941E+02 -0.31514819975E+02  0.51359434758E+02  0.00000000000E+00 0. -1.
         22    1    1    2    0    0 -0.18197356892E+02 -0.57439917053E+01  0.84034385432E+02  0.86173749909E+02  0.00000000000E+00 0. -1.
</event>
<event>
 6    1  0.1726037E-005  0.8080189E+02  0.7818608E-02  0.1441322E+00
          2   -1    0    0  502    0  0.00000000000E+00  0.00000000000E+00  0.94933853552E+02  0.94933853552E+02  0.00000000000E+00 0.  1.
          1   -1    0    0  501    0 -0.00000000000E+00 -0.00000000000E+00 -0.32764005884E+03  0.32764005884E+03  0.00000000000E+00 0.  1.
          2    1    1    2  501    0  0.47244916448E+02 -0.73006511295E+02 -0.19366612127E+02  0.89090395032E+02  0.00000000000E+00 0.  1.
          1    1    1    2  502    0 -0.25147869137E+02  0.57857252461E+02 -0.19496775472E+03  0.20492023415E+03  0.00000000000E+00 0.  1.
         22    1    1    2    0    0 -0.12196490967E+02  0.30708380102E+01  0.53528555093E+02  0.54986276909E+02  0.00000000000E+00 0.  1.
         22    1    1    2    0    0 -0.99005563437E+01  0.12078420823E+02 -0.71900393531E+02  0.73577006295E+02  0.00000000000E+00 0.  1.
</event>
<event>
 6    1  0.1726037E-005  0.8306415E+02  0.7818608E-02  0.1358940E+00
          2   -1    0    0  502    0  0.00000000000E+00  0.00000000000E+00  0.19688015701E+03  0.19688015701E+03  0.00000000000E+00 0.  1.
          1   -1    0    0  501    0 -0.00000000000E+00 -0.00000000000E+00 -0.33290993636E+03  0.33290993636E+03  0.00000000000E+00 0. -1.
          2    1    1    2  501    0  0.57324767693E+02  0.47261387368E+02  0.15664634238E+03  0.17337198248E+03  0.00000000000E+00 0.  1.
          1    1    1    2  502    0 -0.61368132610E+02 -0.20153762620E+01 -0.14697652504E+03  0.15928656049E+03  0.00000000000E+00 0. -1.
         22    1    1    2    0    0  0.98891160028E+01 -0.29332991242E+01  0.21882289308E+02  0.24191598633E+02  0.00000000000E+00 0.  1.
         22    1    1    2    0    0 -0.58457510860E+01 -0.42312711982E+02 -0.16758188600E+03  0.17293995177E+03  0.00000000000E+00 0. -1.
</event>
<event>
 6    1  0.1726037E-005  0.1088737E+03  0.7818608E-02  0.1362219E+00
          2   -1    0    0  502    0  0.00000000000E+00  0.00000000000E+00  0.17008999424E+03  0.17008999424E+03  0.00000000000E+00 0. -1.
          1   -1    0    0  501    0 -0.00000000000E+00 -0.00000000000E+00 -0.22725733371E+03  0.22725733371E+03  0.00000000000E+00 0. -1.
          2    1    1    2  501    0 -0.21632164498E+02 -0.11041598165E+03  0.36806383176E+02  0.11838221736E+03  0.00000000000E+00 0. -1.
          1    1    1    2  502    0  0.33463602895E+02  0.76709381219E+02 -0.11939315957E+03  0.14580421269E+03  0.00000000000E+00 0. -1.
         22    1    1    2    0    0  0.24949175992E+01  0.22887110484E+02 -0.50312637176E+02  0.55329972887E+02  0.00000000000E+00 0. -1.
         22    1    1    2    0    0 -0.14326355996E+02  0.10819489949E+02  0.75732074107E+02  0.77830925007E+02  0.00000000000E+00 0. -1.
</event>
<event>
 6    1  0.1726037E-005  0.9368317E+02  0.7818608E-02  0.1340489E+00
          2   -1    0    0  502    0  0.00000000000E+00  0.00000000000E+00  0.44023136818E+03  0.44023136818E+03  0.00000000000E+00 0.  1.
          1   -1    0    0  501    0 -0.00000000000E+00 -0.00000000000E+00 -0.69574323941E+02  0.69574323941E+02  0.00000000000E+00 0.  1.
          2    1    1    2  501    0 -0.39610117887E+02  0.56205915668E+02  0.31161191791E+03  0.31910821641E+03  0.00000000000E+00 0.  1.
          1    1    1    2  502    0  0.30763036285E+02 -0.27773652340E+02 -0.16420610539E+02  0.44580002425E+02  0.00000000000E+00 0.  1.
         22    1    1    2    0    0 -0.40495877528E+02 -0.49411938076E+01  0.81495496676E+02  0.91136422310E+02  0.00000000000E+00 0.  1.
         22    1    1    2    0    0  0.49342959130E+02 -0.23491069521E+02 -0.60297598121E+01  0.54981050975E+02  0.00000000000E+00 0.  1.
</event>
<event>
 6    1  0.1726037E-005  0.3095111E+02  0.7818608E-02  0.1607570E+00
          2   -1    0    0  502    0  0.00000000000E+00  0.00000000000E+00  0.17233095570E+03  0.17233095570E+03  0.00000000000E+00 0. -1.
          1   -1    0    0  501    0 -0.00000000000E+00 -0.00000000000E+00 -0.25226121114E+03  0.25226121114E+03  0.00000000000E+00 0.  1.
          2    1    1    2  501    0  0.55656901131E+02 -0.47288260200E+01  0.64165863534E+02  0.85072383781E+02  0.00000000000E+00 0. -1.
          1    1    1    2  502    0 -0.49866387347E+02  0.13090367470E+02 -0.19660881641E+03  0.20325609707E+03  0.00000000000E+00 0.  1.
         22    1    1    2    0    0  0.49989984900E+01 -0.20613178233E+02 -0.38415190187E+02  0.43881886239E+02  0.00000000000E+00 0. -1.
         22    1    1    2    0    0 -0.10789512275E+02  0.12251636784E+02  0.90927887617E+02  0.92381799752E+02  0.00000000000E+00 0.  1.
</event>
<event>
 6    1  0.1726037E-005  0.7502822E+02  0.7818608E-02  0.1376203E+00
          2   -1    0    0  502    0  0.00000000000E+00  0.00000000000E+00  0.46424593731E+03  0.46424593731E+03  0.00000000000E+00 0. -1.
          1   -1    0    0  501    0 -0.00000000000E+00 -0.00000000000E+00 -0.36014417640E+02  0.36014417640E+02  0.00000000000E+00 0.  1.
          2    1    1    2  501    0  0.55963316616E+02 -0.65527127886E+01  0.18252471830E+03  0.19102383004E+03  0.00000000000E+00 0. -1.
          1    1    1    2  502    0 -0.42350868540E+02 -0.34442779713E+02  0.10884149723E+03  0.12176359332E+03  0.00000000000E+00 0.  1.
         22    1    1    2    0    0 -0.37882499515E+02  0.21396671560E+02 -0.35330064680E+01  0.43650698254E+02  0.00000000000E+00 0.  1.
         22    1    1    2    0    0  0.24270051439E+02  0.19598820942E+02  0.14039831061E+03  0.14382223334E+03  0.00000000000E+00 0. -1.
</event>
<event>
 6    1  0.1726037E-005  0.1020291E+03  0.7818608E-02  0.1350078E+00
          2   -1    0    0  502    0  0.00000000000E+00  0.00000000000E+00  0.10571202237E+03  0.10571202237E+03  0.00000000000E+00 0. -1.
          1   -1    0    0  501    0 -0.00000000000E+00 -0.00000000000E+00 -0.11214505682E+03  0.11214505682E+03  0.00000000000E+00 0. -1.
          2    1    1    2  501    0  0.16540210784E+02 -0.42359889069E+02  0.25315710444E+02  0.52046363658E+02  0.00000000000E+00 0. -1.
          1    1    1    2  502    0  0.25831565273E+02  0.16117178204E+02 -0.10075375132E+02  0.32070958541E+02  0.00000000000E+00 0. -1.
         22    1    1    2    0    0  0.26240323364E+02 -0.53648298645E+01  0.31509434623E+02  0.41354327947E+02  0.00000000000E+00 0. -1.
         22    1    1    2    0    0 -0.68612099421E+02  0.31607540730E+02 -0.53182804388E+02  0.92385429049E+02  0.00000000000E+00 0. -1.
</event>
<event>
 6    1  0.1726037E-005  0.4331072E+02  0.7818608E-02  0.1488076E+00
          2   -1    0    0  502    0  0.00000000000E+00  0.00000000000E+00  0.13065090977E+03  0.13065090977E+03  0.00000000000E+00 0. -1.
          1   -1    0    0  501    0 -0.00000000000E+00 -0.00000000000E+00 -0.30133849590E+03  0.30133849590E+03  0.00000000000E+00 0. -1.
          2    1    1    2  501    0  0.29977692024E+02 -0.22868440833E+01  0.80581751427E+02  0.86007617906E+02  0.00000000000E+00 0. -1.
          1    1    1    2  502    0 -0.26027171941E+02  0.11025673056E+02 -0.21918985651E+03  0.22100491475E+03  0.00000000000E+00 0. -1.
         22    1    1    2    0    0 -0.13767417430E+02 -0.42455306726E+01 -0.77225480854E+02  0.78557884433E+02  0.00000000000E+00 0. -1.
         22    1    1    2    0    0  0.98168973480E+01 -0.44932983000E+01  0.45145999808E+02  0.46418988591E+02  0.00000000000E+00 0. -1.
</event>
<event>
 6    1  0.1726037E-005  0.8382153E+02  0.7818608E-02  0.1344107E+00
          2   -1    0    0  502    0  0.00000000000E+00  0.00000000000E+00  0.13320501055E+03  0.13320501055E+03  0.00000000000E+00 0. -1.
          1   -1    0    0  501    0 -0.00000000000E+00 -0.00000000000E+00 -0.68742004438E+03  0.68742004438E+03  0.00000000000E+00 0. -1.
          2    1    1    2  501    0  0.16683176892E+03 -0.27130478386E+02 -0.42186413569E+03  0.45446479618E+03  0.00000000000E+00 0. -1.
          1    1    1    2  502    0 -0.60536379050E+02  0.36202265878E+02 -0.18262513113E+03  0.19577332751E+03  0.00000000000E+00 0. -1.
         22    1    1    2    0    0 -0.41775628497E+02 -0.23544921836E+01 -0.40886786075E+02  0.58501931979E+02  0.00000000000E+00 0.  1.
         22    1    1    2    0    0 -0.64519761377E+02 -0.67172953080E+01  0.91161019065E+02  0.11188499927E+03  0.00000000000E+00 0. -1.
</event>
<event>
 6    1  0.1726037E-005  0.7591076E+02  0.7818608E-02  0.1448607E+00
          2   -1    0    0  502    0  0.00000000000E+00  0.00000000000E+00  0.65345723959E+02  0.65345723959E+02  0.00000000000E+00 0.  1.
          1   -1    0    0  501    0 -0.00000000000E+00 -0.00000000000E+00 -0.67998381745E+03  0.67998381745E+03  0.00000000000E+00 0.  1.
          2    1    1    2  501    0 -0.19193954191E+01  0.27546571363E+02 -0.51839015932E+02  0.58734838430E+02  0.00000000000E+00 0.  1.
          1    1    1    2  502    0 -0.22821991937E+02 -0.45740833574E+01 -0.55498507642E+03  0.55547295218E+03  0.00000000000E+00 0.  1.
         22    1    1    2    0    0  0.11250332232E+02 -0.21146973182E+02 -0.66601751123E+02  0.70778229016E+02  0.00000000000E+00 0. -1.
         22    1    1    2    0    0  0.13491055125E+02 -0.18255148237E+01  0.58787749985E+02  0.60343521782E+02  0.00000000000E+00 0.  1.
</event>
<event>
 6    1  0.1726037E-005  0.1772041E+03  0.7818608E-02  0.1235951E+00
          2   -1    0    0  502    0  0.00000000000E+00  0.00000000000E+00  0.87120135183E+02  0.87120135183E+02  0.00000000000E+00 0. -1.
          1   -1    0    0  501    0 -0.00000000000E+00 -0.00000000000E+00 -0.38495272995E+03  0.38495272995E+03  0.00000000000E+00 0. -1.
          2    1    1    2  501    0 -0.78507309495E+02 -0.24623774605E+02 -0.18376928455E+03  0.20134765423E+03  0.00000000000E+00 0. -1.
          1    1    1    2  502    0  0.86345502916E+02 -0.14523972645E+02 -0.10612488889E+03  0.13758264315E+03  0.00000000000E+00 0. -1.
         22    1    1    2    0    0  0.14743961954E+02 -0.40489872243E+02  0.17553356922E+02  0.46528856719E+02  0.00000000000E+00 0.  1.
         22    1    1    2    0    0 -0.22582155375E+02  0.79637619493E+02 -0.25491778247E+02  0.86613711029E+02  0.00000000000E+00 0. -1.
</event>
<event>
 6    1  0.1726037E-005  0.5307975E+02  0.7818608E-02  0.1509577E+00
          2   -1    0    0  502    0  0.00000000000E+00  0.00000000000E+00  0.91492561344E+03  0.91492561344E+03  0.00000000000E+00 0.  1.
          1   -1    0    0  501    0 -0.00000000000E+00 -0.00000000000E+00 -0.24911869702E+03  0.24911869702E+03  0.00000000000E+00 0. -1.
          2    1    1    2  501    0 -0.19120634074E+02 -0.94800198910E+02  0.75115919199E+03  0.75735910113E+03  0.00000000000E+00 0.  1.
          1    1    1    2  502    0  0.49511334837E+02  0.62728416676E+02 -0.20835434562E+03  0.22315411687E+03  0.00000000000E+00 0. -1.
         22    1    1    2    0    0 -0.61956594423E+01  0.86968495620E+01 -0.27402745942E+02  0.29409724130E+02  0.00000000000E+00 0.  1.
         22    1    1    2    0    0 -0.24195041320E+02  0.23374932672E+02  0.15040481600E+03  0.15412136834E+03  0.00000000000E+00 0. -1.
</event>
<event>
 6    1  0.1726037E-005  0.5566446E+02  0.7818608E-02  0.1464221E+00
          2   -1    0    0  502    0  0.00000000000E+00  0.00000000000E+00  0.13240243956E+03  0.13240243956E+03  0.00000000000E+00 0.  1.
          1   -1    0    0  501    0 -0.00000000000E+00 -0.00000000000E+00 -0.32899444917E+03  0.32899444917E+03  0.00000000000E+00 0.  1.
          2    1    1    2  501    0 -0.34088654654E+02  0.32773052924E+02 -0.20985444682E+03  0.21511624351E+03  0.00000000000E+00 0.  1.
          1    1    1    2  502    0  0.16068230491E+02 -0.12794615278E+02 -0.85349645815E+02  0.87786401293E+02  0.00000000000E+00 0.  1.
         22    1    1    2    0    0  0.22044667062E+02  0.72136410685E+01 -0.23682096548E+02  0.33148841009E+02  0.00000000000E+00 0.  1.
         22    1    1    2    0    0 -0.40242428991E+01 -0.27192078714E+02  0.12229417957E+03  0.12534540291E+03  0.00000000000E+00 0.  1.
</event>
<event>
 6    1  0.1726037E-005  0.3033324E+02  0.7818608E-02  0.1617914E+00
          2   -1    0    0  502    0  0.00000000000E+00  0.00000000000E+00  0.13973471520E+03  0.13973471520E+03  0.00000000000E+00 0. -1.
          1   -1    0    0  501    0 -0.00000000000E+00 -0.00000000000E+00 -0.24823509653E+03  0.24823509653E+03  0.00000000000E+00 0.  1.
          2    1    1    2  501    0 -0.34247552401E+02  0.91452085959E+01  0.91310391173E+02  0.97949564685E+02  0.00000000000E+00 0. -1.
          1    1    1    2  502    0  0.20083984840E+02  0.31750631593E+02 -0.13872230964E+03  0.14371968635E+03  0.00000000000E+00 0.  1.
         22    1    1    2    0    0  0.14390775164E+02 -0.21283885018E+02 -0.99719323726E+02  0.10297592775E+03  0.00000000000E+00 0.  1.
         22    1    1    2    0    0 -0.22720760352E+00 -0.19611955171E+02  0.38630860857E+02  0.43324632941E+02  0.00000000000E+00 0. -1.
</event>
<event>
 6    1  0.1726037E-005  0.1615992E+03  0.7818608E-02  0.1228776E+00
          2   -1    0    0  502    0  0.00000000000E+00  0.00000000000E+00  0.30023181506E+02  0.30023181506E+02  0.00000000000E+00 0.  1.
          1   -1    0    0  501    0 -0.00000000000E+00 -0.00000000000E+00 -0.14758333015E+04  0.14758333015E+04  0.00000000000E+00 0. -1.
          2    1    1    2  501    0 -0.75416272389E+01  0.16332303700E+03 -0.80514018585E+03  0.82157288747E+03  0.00000000000E+00 0.  1.
          1    1    1    2  502    0  0.34198173787E+02 -0.84067202604E+02 -0.24563398999E+03  0.26186421421E+03  0.00000000000E+00 0. -1.
         22    1    1    2    0    0 -0.58793896159E+02 -0.29663593146E+02 -0.88911087965E+02  0.11064281516E+03  0.00000000000E+00 0.  1.
         22    1    1    2    0    0  0.32137349612E+02 -0.49592241254E+02 -0.30612485616E+03  0.31177656613E+03  0.00000000000E+00 0. -1.
</event>
<event>
 6    1  0.1726037E-005  0.8762747E+02  0.7818608E-02  0.1430642E+00
          2   -1    0    0  502    0  0.00000000000E+00  0.00000000000E+00  0.12018277945E+03  0.12018277945E+03  0.00000000000E+00 0. -1.
          1   -1    0    0  501    0 -0.00000000000E+00 -0.00000000000E+00 -0.23470725430E+03  0.23470725430E+03  0.00000000000E+00 0. -1.
          2    1    1    2  501    0  0.41008768068E+02 -0.63299810969E+01  0.69925717511E+02  0.81310477115E+02  0.00000000000E+00 0. -1.
          1    1    1    2  502    0 -0.21013368641E+02  0.37320191149E+02 -0.12525737855E+03  0.13237737424E+03  0.00000000000E+00 0. -1.
         22    1    1    2    0    0  0.11571720915E+02  0.39161852542E+00  0.35084274217E+02  0.36945424444E+02  0.00000000000E+00 0. -1.
         22    1    1    2    0    0 -0.31567120343E+02 -0.31381828577E+02 -0.94277088030E+02  0.10425675795E+03  0.00000000000E+00 0. -1.
</event>
<event>
 6    1  0.1726037E-005  0.5926225E+02  0.7818608E-02  0.1421687E+00
          2   -1    0    0  502    0  0.00000000000E+00  0.00000000000E+00  0.40180481486E+02  0.40180481486E+02  0.00000000000E+00 0. -1.
          1   -1    0    0  501    0 -0.00000000000E+00 -0.00000000000E+00 -0.28387442740E+03  0.28387442740E+03  0.00000000000E+00 0. -1.
          2    1    1    2  501    0 -0.50044666065E+02  0.10704792010E+02 -0.70011809839E+02  0.86722054234E+02  0.00000000000E+00 0. -1.
          1    1    1    2  502    0  0.20083468276E+02 -0.23487678231E+01 -0.66622462541E+02  0.69623379143E+02  0.00000000000E+00 0. -1.
         22    1    1    2    0    0  0.15015837301E+01 -0.42880155125E+02  0.85445744362E+01  0.43748968096E+02  0.00000000000E+00 0. -1.
         22    1    1    2    0    0  0.28459614059E+02  0.34524130938E+02 -0.11560424797E+03  0.12396050742E+03  0.00000000000E+00 0. -1.
</event>
<event>
 6    1  0.1726037E-005  0.9830605E+02  0.7818608E-02  0.1284582E+00
          2   -1    0    0  502    0  0.00000000000E+00  0.00000000000E+00  0.17731440412E+03  0.17731440412E+03  0.00000000000E+00 0.  1.
          1   -1    0    0  501    0 -0.00000000000E+00 -0.00000000000E+00 -0.59995242529E+03  0.59995242529E+03  0.00000000000E+00 0. -1.
          2    1    1    2  501    0 -0.50732215388E+02 -0.66936184948E+02  0.12534071352E+03  0.15087910723E+03  0.00000000000E+00 0.  1.
          1    1    1    2  502    0  0.55027194669E+02  0.43694888250E+02 -0.46930377248E+03  0.47453478933E+03  0.00000000000E+00 0. -1.
         22    1    1    2    0    0  0.62244304893E+01  0.25497482598E+02 -0.11293428366E+03  0.11594402778E+03  0.00000000000E+00 0. -1.
         22    1    1    2    0    0 -0.10519409770E+02 -0.22561859001E+01  0.34259321458E+02  0.35908905073E+02  0.00000000000E+00 0.  1.
</event>
<event>
 6    1  0.1726037E-005  0.1194440E+03  0.7818608E-02  0.1349311E+00
          2   -1    0    0  502    0  0.00000000000E+00  0.00000000000E+00  0.75905228350E+02  0.75905228350E+02  0.00000000000E+00 0.  1.
          1   -1    0    0  501    0 -0.00000000000E+00 -0.00000000000E+00 -0.47780479004E+03  0.47780479004E+03  0.00000000000E+00 0.  1.
          2    1    1    2  501    0 -0.81621738312E+02  0.64637400012E+02 -0.20088078951E+02  0.10603599654E+03  0.00000000000E+00 0.  1.
          1    1    1    2  502    0  0.52561566093E+02  0.73487793550E+00 -0.24508645658E+03  0.25066038673E+03  0.00000000000E+00 0.  1.
         22    1    1    2    0    0  0.36370955864E+02 -0.50120481679E+02 -0.15807721746E+03  0.16977430840E+03  0.00000000000E+00 0.  1.
         22    1    1    2    0    0 -0.73107836446E+01 -0.15251796269E+02  0.21352191300E+02  0.27239326722E+02  0.00000000000E+00 0. -1.
</event>
<event>
 6    1  0.1726037E-005  0.5408693E+02  0.7818608E-02  0.1534272E+00
          2   -1    0    0  502    0  0.00000000000E+00  0.00000000000E+00  0.89963583455E+02  0.89963583455E+02  0.00000000000E+00 0.  1.
          1   -1    0    0  501    0 -0.00000000000E+00 -0.00000000000E+00 -0.16644473708E+03  0.16644473708E+03  0.00000000000E+00 0. -1.
          2    1    1    2  501    0 -0.39969770825E+02 -0.10828857443E+02 -0.89697475765E+01  0.42371017275E+02  0.00000000000E+00 0.  1.
          1    1    1    2  502    0  0.26985335243E+02  0.18701187500E+02 -0.82982972396E+02  0.89241898454E+02  0.00000000000E+00 0. -1.
         22    1    1    2    0    0 -0.10562571830E+02 -0.43544278029E+01  0.67034577958E+02  0.68001202983E+02  0.00000000000E+00 0.  1.
         22    1    1    2    0    0  0.23547007412E+02 -0.35179022540E+01 -0.51563011608E+02  0.56794201820E+02  0.00000000000E+00 0. -1.
</event>
<event>
 6    1  0.1726037E-005  0.1806970E+03  0.7818608E-02  0.1226232E+00
          2   -1    0    0  502    0  0.00000000000E+00  0.00000000000E+00  0.33504609108E+03  0.33504609108E+03  0.00000000000E+00 0. -1.
          1   -1    0    0  501    0 -0.00000000000E+00 -0.00000000000E+00 -0.28536225534E+03  0.28536225534E+03  0.00000000000E+00 0. -1.
          2    1    1    2  501    0 -0.13282181949E+03  0.10439948617E+03 -0.68897763186E+02  0.18244941824E+03  0.00000000000E+00 0. -1.
          1    1    1    2  502    0  0.11123827152E+03 -0.13792794684E+03 -0.82480046715E+02  0.19545083698E+03  0.00000000000E+00 0. -1.
         22    1    1    2    0    0  0.28874182621E+01 -0.12470842787E+02 -0.15628533957E+02  0.20201736997E+02  0.00000000000E+00 0.  1.
         22    1    1    2    0    0  0.18696129700E+02  0.45999303456E+02  0.21669017960E+03  0.22230635420E+03  0.00000000000E+00 0. -1.
</event>
<event>
 6    1  0.1726037E-005  0.4844413E+02  0.7818608E-02  0.1457916E+00
          2   -1    0    0  502    0  0.00000000000E+00  0.00000000000E+00  0.11139446537E+03  0.11139446537E+03  0.00000000000E+00 0. -1.
          1   -1    0    0  501    0 -0.00000000000E+00 -0.00000000000E+00 -0.34649362150E+03  0.34649362150E+03  0.00000000000E+00 0.  1.
          2    1    1    2  501    0 -0.69960016733E+02  0.19920808372E+02  0.12537462468E+02  0.73813484626E+02  0.00000000000E+00 0. -1.
          1    1    1    2  502    0  0.86200614530E+02 -0.68459164332E+01 -0.24086017494E+03  0.25591216538E+03  0.00000000000E+00 0.  1.
         22    1    1    2    0    0  0.76506872887E+01 -0.23020849918E+02 -0.62325943434E+02  0.66880608340E+02  0.00000000000E+00 0. -1.
         22    1    1    2    0    0 -0.23891285086E+02  0.99459579790E+01  0.55549499774E+02  0.61281828533E+02  0.00000000000E+00 0. -1.
</event>
<event>
 6    1  0.1726037E-005  0.6043172E+02  0.7818608E-02  0.1421016E+00
          2   -1    0    0  502    0  0.00000000000E+00  0.00000000000E+00  0.21497605275E+03  0.21497605275E+03  0.00000000000E+00 0.  1.
          1   -1    0    0  501    0 -0.00000000000E+00 -0.00000000000E+00 -0.23472866543E+03  0.23472866543E+03  0.00000000000E+00 0. -1.
          2    1    1    2  501    0 -0.74614249179E+02 -0.52838146135E+02  0.15006328184E+03  0.17572178130E+03  0.00000000000E+00 0.  1.
          1    1    1    2  502    0  0.22012237714E+02  0.20904122144E+02 -0.12584129378E+03  0.12945096427E+03  0.00000000000E+00 0. -1.
         22    1    1    2    0    0  0.40418904632E+02  0.61388030356E+01  0.39176673188E+02  0.56623179675E+02  0.00000000000E+00 0.  1.
         22    1    1    2    0    0  0.12183106833E+02  0.25795220955E+02 -0.83151273941E+02  0.87908792929E+02  0.00000000000E+00 0. -1.
</event>
<event>
 6    1  0.1726037E-005  0.1100164E+03  0.7818608E-02  0.1348108E+00
          2   -1    0    0  502    0  0.00000000000E+00  0.00000000000E+00  0.12871152349E+03  0.12871152349E+03  0.00000000000E+00 0. -1.
          1   -1    0    0  501    0 -0.00000000000E+00 -0.00000000000E+00 -0.18518422428E+03  0.18518422428E+03  0.00000000000E+00 0.  1.
          2    1    1    2  501    0 -0.57354182065E+02  0.74000314127E+02  0.24347772745E+02  0.96738631006E+02  0.00000000000E+00 0. -1.
          1    1    1    2  502    0  0.61049473744E+01 -0.59203928491E+02 -0.46946664183E+02  0.75804780912E+02  0.00000000000E+00 0.  1.
         22    1    1    2    0    0  0.14137735877E+02  0.16978910709E+02  0.44106732648E+02  0.49331154958E+02  0.00000000000E+00 0. -1.
         22    1    1    2    0    0  0.37111498813E+02 -0.31775296345E+02 -0.77980541999E+02  0.92021180890E+02  0.00000000000E+00 0.  1.
</event>
<event>
 6    1  0.1726037E-005  0.1058244E+03  0.7818608E-02  0.1362688E+00
          2   -1    0    0  502    0  0.00000000000E+00  0.00000000000E+00  0.34951923849E+03  0.34951923849E+03  0.00000000000E+00 0. -1.
          1   -1    0    0  501    0 -0.00000000000E+00 -0.00000000000E+00 -0.10502011694E+03  0.10502011694E+03  0.00000000000E+00 0. -1.
          2    1    1    2  501    0  0.25564868025E+02 -0.10214258087E+03  0.22095282499E+03  0.24475869785E+03  0.00000000000E+00 0. -1.
          1    1    1    2  502    0  0.23660733463E+02  0.21681170436E+02 -0.31073545468E+02  0.44670669207E+02  0.00000000000E+00 0. -1.
         22    1    1    2    0    0 -0.64873817837E+02  0.91923175657E+02  0.76359293701E+02  0.13597508668E+03  0.00000000000E+00 0. -1.
         22    1    1    2    0    0  0.15648216349E+02 -0.11461765224E+02 -0.21739451674E+02  0.29134901682E+02  0.00000000000E+00 0. -1.
</event>
<event>
 6    1  0.1726037E-005  0.8783784E+02  0.7818608E-02  0.1431860E+00
          2   -1    0    0  502    0  0.00000000000E+00  0.00000000000E+00  0.12269975789E+03  0.12269975789E+03  0.00000000000E+00 0.  1.
          1   -1    0    0  501    0 -0.00000000000E+00 -0.00000000000E+00 -0.59278182429E+03  0.59278182429E+03  0.00000000000E+00 0. -1.
          2    1    1    2  501    0 -0.69543776594E+02  0.59680755621E+02  0.26791591531E+02  0.95477321031E+02  0.00000000000E+00 0.  1.
          1    1    1    2  502    0  0.51898218272E+02 -0.48983962978E+02 -0.48238190558E+03  0.48763219389E+03  0.00000000000E+00 0. -1.
         22    1    1    2    0    0  0.67937018390E+01 -0.13794535158E+02 -0.72073143784E+02  0.73695194143E+02  0.00000000000E+00 0.  1.
         22    1    1    2    0    0  0.10851856484E+02  0.30977425161E+01  0.57581391441E+02  0.58676873111E+02  0.00000000000E+00 0.  1.
</event>
<event>
 6    1  0.1726037E-005  0.9545153E+02  0.7818608E-02  0.1348376E+00
          2   -1    0    0  502    0  0.00000000000E+00  0.00000000000E+00  0.34820130887E+03  0.34820130887E+03  0.00000000000E+00 0. -1.
          1   -1    0    0  501    0 -0.00000000000E+00 -0.00000000000E+00 -0.19898214562E+03  0.19898214562E+03  0.00000000000E+00 0. -1.
          2    1    1    2  501    0  0.14608579729E+03  0.54809396025E+02 -0.94509956923E+02  0.18242056359E+03  0.00000000000E+00 0. -1.
          1    1    1    2  502    0 -0.80666688775E+02 -0.50796429245E+02  0.15920436681E+02  0.96648084337E+02  0.00000000000E+00 0. -1.
         22    1    1    2    0    0 -0.68922338156E+02  0.21058254551E+02  0.23156732188E+03  0.24252250070E+03  0.00000000000E+00 0. -1.
         22    1    1    2    0    0  0.35032296386E+01 -0.25071221331E+02 -0.37586383914E+01  0.25592305865E+02  0.00000000000E+00 0. -1.
</event>
<event>
 6    1  0.1726037E-005  0.1391533E+03  0.7818608E-02  0.1214716E+00
          2   -1    0    0  502    0  0.00000000000E+00  0.00000000000E+00  0.89447160604E+02  0.89447160604E+02  0.00000000000E+00 0. -1.
          1   -1    0    0  501    0 -0.00000000000E+00 -0.00000000000E+00 -0.39569617258E+03  0.39569617258E+03  0.00000000000E+00 0. -1.
          2    1    1    2  501    0  0.77358697299E+02 -0.90926364902E+02  0.32836321536E+01  0.11942677305E+03  0.00000000000E+00 0. -1.
          1    1    1    2  502    0 -0.91660958638E+01  0.34200988894E+02 -0.81595735305E+02  0.88947113357E+02  0.00000000000E+00 0. -1.
         22    1    1    2    0    0 -0.86056581543E+02  0.57938276555E+02 -0.23549584055E+03  0.25733416025E+03  0.00000000000E+00 0. -1.
         22    1    1    2    0    0  0.17863980108E+02 -0.12129005478E+01  0.75589317289E+01  0.19435286515E+02  0.00000000000E+00 0. -1.
</event>
<event>
 6    1  0.1726037E-005  0.4504383E+02  0.7818608E-02  0.1543008E+00
          2   -1    0    0  502    0  0.00000000000E+00  0.00000000000E+00  0.14808468920E+03  0.14808468920E+03  0.00000000000E+00 0.  1.
          1   -1    0    0  501    0 -0.00000000000E+00 -0.00000000000E+00 -0.20060686833E+03  0.20060686833E+03  0.00000000000E+00 0.  1.
          2    1    1    2  501    0 -0.53600399665E+02  0.51963742636E+01  0.28237660413E+02  0.60806008053E+02  0.00000000000E+00 0.  1.
          1    1    1    2  502    0  0.29541198593E+02  0.88076987547E+01 -0.14320450296E+03  0.14648476931E+03  0.00000000000E+00 0.  1.
         22    1    1    2    0    0  0.12839181782E+02 -0.37947131743E+00 -0.37640224106E+02  0.39771535777E+02  0.00000000000E+00 0.  1.
         22    1    1    2    0    0  0.11220019291E+02 -0.13624601701E+02  0.10008488752E+03  0.10162924438E+03  0.00000000000E+00 0.  1.
</event>
<event>
 6    1  0.1726037E-005  0.8397167E+02  0.7818608E-02  0.1366419E+00
          2   -1    0    0  502    0  0.00000000000E+00  0.00000000000E+00  0.14901425779E+03  0.14901425779E+03  0.00000000000E+00 0. -1.
          1   -1    0    0  501    0 -0.00000000000E+00 -0.00000000000E+00 -0.14251969358E+03  0.14251969358E+03  0.00000000000E+00 0. -1.
          2    1    1    2  501    0  0.52932930020E+02  0.14069687804E+02  0.89135296936E+01  0.55491460668E+02  0.00000000000E+00 0. -1.
          1    1    1    2  502    0 -0.61017731851E+02 -0.40944912521E+02 -0.59411110170E+02  0.94495129363E+02  0.00000000000E+00 0. -1.
         22    1    1    2    0    0 -0.19148297671E+02  0.26038932812E+01 -0.36439634524E+02  0.41246630507E+02  0.00000000000E+00 0. -1.
         22    1    1    2    0    0  0.27233099502E+02  0.24271331436E+02  0.93431779210E+02  0.10030073083E+03  0.00000000000E+00 0. -1.
</event>
<event>
 6    1  0.1726037E-005  0.7199384E+02  0.7818608E-02  0.1380075E+00
          2   -1    0    0  502    0  0.00000000000E+00  0.00000000000E+00  0.32704723689E+03  0.32704723689E+03  0.00000000000E+00 0.  1.
          1   -1    0    0  501    0 -0.00000000000E+00 -0.00000000000E+00 -0.20617767260E+03  0.20617767260E+03  0.00000000000E+00 0. -1.
          2    1    1    2  501    0  0.71553098018E+02  0.11828678335E+03  0.12631699173E+03  0.18726342770E+03  0.00000000000E+00 0.  1.
          1    1    1    2  502    0 -0.23415694894E+02 -0.12425427684E+03 -0.11840361290E+03  0.17322481239E+03  0.00000000000E+00 0. -1.
         22    1    1    2    0    0 -0.15129278682E+02 -0.24040287129E+02  0.12364398948E+03  0.12686475717E+03  0.00000000000E+00 0.  1.
         22    1    1    2    0    0 -0.33008124442E+02  0.30007780615E+02 -0.10687804026E+02  0.45871912229E+02  0.00000000000E+00 0.  1.
</event>
<event>
 6    1  0.1726037E-005  0.6527694E+02  0.7818608E-02  0.1489266E+00
          2   -1    0    0  502    0  0.00000000000E+00  0.00000000000E+00  0.99627748072E+02  0.99627748072E+02  0.00000000000E+00 0. -1.
          1   -1    0    0  501    0 -0.00000000000E+00 -0.00000000000E+00 -0.19346687713E+03  0.19346687713E+03  0.00000000000E+00 0.  1.
          2    1    1    2  501    0  0.20829105894E+02 -0.86335345725E-01  0.68694053648E+02  0.71782533479E+02  0.00000000000E+00 0. -1.
          1    1    1    2  502    0 -0.39040561875E+01  0.21586565360E+02 -0.32637517252E+02  0.39324661360E+02  0.00000000000E+00 0.  1.
         22    1    1    2    0    0 -0.28277437422E+02 -0.25219993321E+02 -0.15211350375E+03  0.15676153723E+03  0.00000000000E+00 0.  1.
         22    1    1    2    0    0  0.11352387716E+02  0.37197633071E+01  0.22217838297E+02  0.25225893136E+02  0.00000000000E+00 0.  1.
</event>
<event>
 6    1  0.1726037E-005  0.9238581E+02  0.7818608E-02  0.1348525E+00
          2   -1    0    0  502    0  0.00000000000E+00  0.00000000000E+00  0.11302169705E+03  0.11302169705E+03  0.00000000000E+00 0. -1.
          1   -1    0    0  501    0 -0.00000000000E+00 -0.00000000000E+00 -0.40697667584E+03  0.40697667584E+03  0.00000000000E+00 0. -1.
          2    1    1    2  501    0 -0.14440700037E+03 -0.22764691858E+02 -0.63533983790E+02  0.15939943553E+03  0.00000000000E+00 0. -1.
          1    1    1    2  502    0  0.12541110483E+03  0.68610177987E+02 -0.96177520961E+02  0.17229456543E+03  0.00000000000E+00 0. -1.
         22    1    1    2    0    0 -0.23752000380E+02 -0.28828497293E+01  0.14299087359E+02  0.27873504335E+02  0.00000000000E+00 0. -1.
         22    1    1    2    0    0  0.42747895920E+02 -0.42962636400E+02 -0.14854256140E+03  0.16043086760E+03  0.00000000000E+00 0. -1.
</event>
<event>
 6    1  0.1726037E-005  0.8612632E+02  0.7818608E-02  0.1434489E+00
          2   -1    0    0  502    0  0.00000000000E+00  0.00000000000E+00  0.29728295927E+02  0.29728295927E+02  0.00000000000E+00 0. -1.
          1   -1    0    0  501    0 -0.00000000000E+00 -0.00000000000E+00 -0.12406811448E+04  0.12406811448E+04  0.00000000000E+00 0. -1.
          2    1    1    2  501    0  0.12670961018E+02  0.56537064416E+02 -0.87802731481E+03  0.87993690596E+03  0.00000000000E+00 0. -1.
          1    1    1    2  502    0 -0.32670757538E+02 -0.38963636186E+02 -0.20280813123E+03  0.20908534486E+03  0.00000000000E+00 0. -1.
         22    1    1    2    0    0  0.28470163112E+02 -0.97863956810E+01 -0.15291517256E+03  0.15585048517E+03  0.00000000000E+00 0. -1.
         22    1    1    2    0    0 -0.84703665911E+01 -0.77870325487E+01  0.22797769712E+02  0.25536704759E+02  0.00000000000E+00 0. -1.
</event>
<event>
 6    1  0.1726037E-005  0.1440077E+03  0.7818608E-02  0.1332811E+00
          2   -1    0    0  502    0  0.00000000000E+00  0.00000000000E+00  0.45783966035E+02  0.45783966035E+02  0.00000000000E+00 0. -1.
          1   -1    0    0  501    0 -0.00000000000E+00 -0.00000000000E+00 -0.33916495263E+03  0.33916495263E+03  0.00000000000E+00 0. -1.
          2    1    1    2  501    0  0.20109643168E+02 -0.46030754745E+02 -0.32751725925E+02  0.59965854299E+02  0.00000000000E+00 0. -1.
          1    1    1    2  502    0 -0.34356597929E+02 -0.34011168370E+02 -0.56294833904E+02  0.74204068079E+02  0.00000000000E+00 0. -1.
         22    1    1    2    0    0  0.11421785875E+02  0.92565929648E+02 -0.21482589469E+03  0.23419879068E+03  0.00000000000E+00 0. -1.
         22    1    1    2    0    0  0.28251688860E+01 -0.12524006532E+02  0.10491467925E+02  0.16580205610E+02  0.00000000000E+00 0. -1.
</event>
<event>
 6    1  0.1726037E-005  0.4313249E+02  0.7818608E-02  0.1512546E+00
          2   -1    0    0  502    0  0.00000000000E+00  0.00000000000E+00  0.65971131652E+02  0.65971131652E+02  0.00000000000E+00 0. -1.
          1   -1    0    0  501    0 -0.00000000000E+00 -0.00000000000E+00 -0.16099129211E+03  0.16099129211E+03  0.00000000000E+00 0.  1.
          2    1    1    2  501    0  0.50476404088E+00  0.20382955487E+02  0.92055264811E+01  0.22370994142E+02  0.00000000000E+00 0. -1.
          1    1    1    2  502    0  0.19230513630E+02 -0.15102241097E+02 -0.72502841819E+02  0.76515046967E+02  0.00000000000E+00 0.  1.
         22    1    1    2    0    0  0.43226695809E+01 -0.23341585943E+02 -0.73134918430E+02  0.76891035891E+02  0.00000000000E+00 0.  1.
         22    1    1    2    0    0 -0.24057947252E+02  0.18060871554E+02  0.41412073310E+02  0.51185346761E+02  0.00000000000E+00 0. -1.
</event>
<event>
 6    1  0.1726037E-005  0.4872424E+02  0.7818608E-02  0.1497420E+00
          2   -1    0    0  502    0  0.00000000000E+00  0.00000000000E+00  0.12966955501E+03  0.12966955501E+03  0.00000000000E+00 0.  1.
          1   -1    0    0  501    0 -0.00000000000E+00 -0.00000000000E+00 -0.61360736260E+02  0.61360736260E+02  0.00000000000E+00 0.  1.
          2    1    1    2  501    0 -0.16524911802E+02 -0.13744963091E+02  0.38421996185E+02  0.44025521136E+02  0.00000000000E+00 0.  1.
          1    1    1    2  502    0  0.20488645094E+02  0.44769950206E+01 -0.17007844715E+01  0.21040929876E+02  0.00000000000E+00 0.  1.
         22    1    1    2    0    0 -0.25560796177E+02  0.21905215541E+01  0.73739840671E+02  0.78075071489E+02  0.00000000000E+00 0.  1.
         22    1    1    2    0    0  0.21597062885E+02  0.70774465159E+01 -0.42152233631E+02  0.47888768772E+02  0.00000000000E+00 0.  1.
</event>
<event>
 6    1  0.1726037E-005  0.1410372E+03  0.7818608E-02  0.1263100E+00
          2   -1    0    0  502    0  0.00000000000E+00  0.00000000000E+00  0.17481813163E+03  0.17481813163E+03  0.00000000000E+00 0. -1.
          1   -1    0    0  501    0 -0.00000000000E+00 -0.00000000000E+00 -0.93148275792E+03  0.93148275792E+03  0.00000000000E+00 0. -1.
          2    1    1    2  501    0 -0.15634891332E+02  0.12214933132E+03  0.61249187462E+02  0.13753680210E+03  0.00000000000E+00 0. -1.
          1    1    1    2  502    0 -0.36060606676E+02 -0.11957536147E+03 -0.82638461978E+03  0.83576921111E+03  0.00000000000E+00 0. -1.
         22    1    1    2    0    0  0.34577283560E+01 -0.14388907833E+02 -0.52391329498E+02  0.54441234010E+02  0.00000000000E+00 0.  1.
         22    1    1    2    0    0  0.48237769652E+02  0.11814937987E+02  0.60862135528E+02  0.78553642319E+02  0.00000000000E+00 0. -1.
</event>
<event>
 6    1  0.1726037E-005  0.7693933E+02  0.7818608E-02  0.1382248E+00
          2   -1    0    0  502    0  0.00000000000E+00  0.00000000000E+00  0.72401850176E+02  0.72401850176E+02  0.00000000000E+00 0. -1.
          1   -1    0    0  501    0 -0.00000000000E+00 -0.00000000000E+00 -0.93553727630E+03  0.93553727630E+03  0.00000000000E+00 0. -1.
          2    1    1    2  501    0 -0.82260746995E+02 -0.10189529193E+03 -0.24269514761E+03  0.27577239834E+03  0.00000000000E+00 0. -1.
          1    1    1    2  502    0  0.46933077392E+02  0.65706891688E+02 -0.58908114175E+03  0.59458952306E+03  0.00000000000E+00 0. -1.
         22    1    1    2    0    0  0.60747702612E+02  0.19950805509E+02  0.28917147463E+02  0.70174920239E+02  0.00000000000E+00 0. -1.
         22    1    1    2    0    0 -0.25420033009E+02  0.16237594730E+02 -0.60276284218E+02  0.67402284827E+02  0.00000000000E+00 0.  1.
</event>
<event>
 6    1  0.1726037E-005  0.9175419E+02  0.7818608E-02  0.1353596E+00
          2   -1    0    0  502    0  0.00000000000E+00  0.00000000000E+00  0.13169615092E+04  0.13169615092E+04  0.00000000000E+00 0.  1.
          1   -1    0    0  501    0 -0.00000000000E+00 -0.00000000000E+00 -0.10899089285E+03  0.10899089285E+03  0.00000000000E+00 0.  1.
          2    1    1    2  501    0  0.12289002217E+03 -0.13346126519E+02  0.10892099465E+04  0.10962017990E+04  0.00000000000E+00 0.  1.
          1    1    1    2  502    0 -0.15442326152E+03  0.26753820574E+02  0.28524947298E+01  0.15674963266E+03  0.00000000000E+00 0.  1.
         22    1    1    2    0    0 -0.11543688653E+02  0.15334954781E+02 -0.19903704861E+02  0.27650950310E+02  0.00000000000E+00 0.  1.
         22    1    1    2    0    0  0.43076927999E+02 -0.28742648835E+02  0.13581188005E+03  0.14535002012E+03  0.00000000000E+00 0.  1.
</event>
<event>
 6    1  0.1726037E-005  0.3714632E+02  0.7818608E-02  0.1574244E+00
          2   -1    0    0  502    0  0.00000000000E+00  0.00000000000E+00  0.19387276877E+03  0.19387276877E+03  0.00000000000E+00 0. -1.
          1   -1    0    0  501    0 -0.00000000000E+00 -0.00000000000E+00 -0.20818057651E+03  0.20818057651E+03  0.00000000000E+00 0.  1.
          2    1    1    2  501    0  0.45216550290E+02 -0.46996797363E+02  0.13757817934E+03  0.15225304862E+03  0.00000000000E+00 0. -1.
          1    1    1    2  502    0 -0.46746867553E+02  0.37053204171E+02 -0.99829165299E+02  0.11629304283E+03  0.00000000000E+00 0.  1.
         22    1    1    2    0    0  0.96805385102E+01  0.18629508592E+02 -0.90685457182E+02  0.93083959738E+02  0.00000000000E+00 0. -1.
         22    1    1    2    0    0 -0.81502212470E+01 -0.86859154003E+01  0.38628635400E+02  0.40423294096E+02  0.00000000000E+00 0.  1.
</event>
<event>
 6    1  0.1726037E-005  0.1052651E+03  0.7818608E-02  0.1400968E+00
          2   -1    0    0  502    0  0.00000000000E+00  0.00000000000E+00  0.11233478635E+03  0.11233478635E+03  0.00000000000E+00 0.  1.
          1   -1    0    0  501    0 -0.00000000000E+00 -0.00000000000E+00 -0.25909819341E+03  0.25909819341E+03  0.00000000000E+00 0. -1.
          2    1    1    2  501    0  0.33117419860E+02  0.86935505328E+02  0.37774890098E+02  0.10040661286E+03  0.00000000000E+00 0.  1.
          1    1    1    2  502    0 -0.12821662726E+02 -0.59840749656E+02 -0.10530209036E+03  0.12179425516E+03  0.00000000000E+00 0. -1.
         22    1    1    2    0    0  0.48142542000E+01  0.94124337495E+01  0.29755602681E+02  0.31577948690E+02  0.00000000000E+00 0. -1.
         22    1    1    2    0    0 -0.25110011334E+02 -0.36507189421E+02 -0.10899180948E+03  0.11765416304E+03  0.00000000000E+00 0. -1.
</event>
<event>
 6    1  0.1726037E-005  0.5936249E+02  0.7818608E-02  0.1440361E+00
          2   -1    0    0  502    0  0.00000000000E+00  0.00000000000E+00  0.13068461758E+03  0.13068461758E+03  0.00000000000E+00 0.  1.
          1   -1    0    0  501    0 -0.00000000000E+00 -0.00000000000E+00 -0.23295206644E+03  0.23295206644E+03  0.00000000000E+00 0.  1.
          2    1    1    2  501    0 -0.70167043068E+02 -0.67918523165E+02 -0.37594602069E+02  0.10464078472E+03  0.00000000000E+00 0.  1.
          1    1    1    2  502    0  0.74412461141E+02  0.46128057844E+02 -0.90658880959E+02  0.12603191973E+03  0.00000000000E+00 0.  1.
         22    1    1    2    0    0  0.18360101885E+02 -0.92275384467E+01 -0.46558745789E+02  0.50891626192E+02  0.00000000000E+00 0.  1.
         22    1    1    2    0    0 -0.22605519957E+02  0.31018003768E+02  0.72544779962E+02  0.82072353384E+02  0.00000000000E+00 0.  1.
</event>
<event>
 6    1  0.1726037E-005  0.5811624E+02  0.7818608E-02  0.1527557E+00
          2   -1    0    0  502    0  0.00000000000E+00  0.00000000000E+00  0.71865838825E+02  0.71865838825E+02  0.00000000000E+00 0.  1.
          1   -1    0    0  501    0 -0.00000000000E+00 -0.00000000000E+00 -0.24266623235E+03  0.24266623235E+03  0.00000000000E+00 0.  1.
          2    1    1    2  501    0 -0.47195879546E+02 -0.21156306837E+02 -0.31322960265E+01  0.51815554069E+02  0.00000000000E+00 0.  1.
          1    1    1    2  502    0  0.40056274385E+02  0.10719913374E+02 -0.12868400554E+03  0.13519983336E+03  0.00000000000E+00 0.  1.
         22    1    1    2    0    0 -0.83822120377E+01  0.55654841475E+01  0.42883676922E+02  0.44048221743E+02  0.00000000000E+00 0.  1.
         22    1    1    2    0    0  0.15521817199E+02  0.48709093155E+01 -0.81867768883E+02  0.83468461999E+02  0.00000000000E+00 0.  1.
</event>
<event>
 6    1  0.1726037E-005  0.1378235E+03  0.7818608E-02  0.1324682E+00
          2   -1    0    0  502    0  0.00000000000E+00  0.00000000000E+00  0.38506136044E+03  0.38506136044E+03  0.00000000000E+00 0. -1.
          1   -1    0    0  501    0 -0.00000000000E+00 -0.00000000000E+00 -0.16959008273E+03  0.16959008273E+03  0.00000000000E+00 0. -1.
          2    1    1    2  501    0 -0.46721855955E+02 -0.12395382108E+03  0.29406306431E+03  0.32252219672E+03  0.00000000000E+00 0. -1.
          1    1    1    2  502    0  0.31568634662E+02  0.69694839220E+02 -0.50732771485E+02  0.91802850778E+02  0.00000000000E+00 0. -1.
         22    1    1    2    0    0  0.31434579826E+02  0.49720457452E+02 -0.72050077658E+02  0.93013280711E+02  0.00000000000E+00 0.  1.
         22    1    1    2    0    0 -0.16281358534E+02  0.45385244109E+01  0.44191062535E+02  0.47313114963E+02  0.00000000000E+00 0.  1.
</event>
<event>
 6    1  0.1726037E-005  0.1209843E+03  0.7818608E-02  0.1371245E+00
          2   -1    0    0  502    0  0.00000000000E+00  0.00000000000E+00  0.29717482379E+04  0.29717482379E+04  0.00000000000E+00 0. -1.
          1   -1    0    0  501    0 -0.00000000000E+00 -0.00000000000E+00 -0.11328085415E+03  0.11328085415E+03  0.00000000000E+00 0. -1.
          2    1    1    2  501    0 -0.11527322645E+03  0.26755410803E+02  0.28755483426E+04  0.28779822862E+04  0.00000000000E+00 0. -1.
          1    1    1    2  502    0  0.29807082930E+02 -0.22083390773E+01 -0.37851606170E+02  0.48229483140E+02  0.00000000000E+00 0. -1.
         22    1    1    2    0    0  0.85960668851E+02 -0.13299016597E+02 -0.40905750482E+02  0.96121698145E+02  0.00000000000E+00 0. -1.
         22    1    1    2    0    0 -0.49452533246E+00 -0.11248055129E+02  0.61676397814E+02  0.62695624622E+02  0.00000000000E+00 0. -1.
</event>
<event>
 6    1  0.1726037E-005  0.6361253E+02  0.7818608E-02  0.1498838E+00
          2   -1    0    0  502    0  0.00000000000E+00  0.00000000000E+00  0.14689025829E+03  0.14689025829E+03  0.00000000000E+00 0.  1.
          1   -1    0    0  501    0 -0.00000000000E+00 -0.00000000000E+00 -0.14123151988E+03  0.14123151988E+03  0.00000000000E+00 0.  1.
          2    1    1    2  501    0  0.17737758063E+02 -0.65849420127E+02  0.80870746630E+02  0.10578682268E+03  0.00000000000E+00 0.  1.
          1    1    1    2  502    0  0.26324035918E+00  0.25192660907E+02 -0.36228204360E+02  0.44127341300E+02  0.00000000000E+00 0.  1.
         22    1    1    2    0    0 -0.10258802222E+02  0.47506403040E+01  0.45076463438E+02  0.46472563544E+02  0.00000000000E+00 0.  1.
         22    1    1    2    0    0 -0.77421962001E+01  0.35906118916E+02 -0.84060267298E+02  0.91735050639E+02  0.00000000000E+00 0.  1.
</event>
<event>
 6    1  0.1726037E-005  0.6989688E+02  0.7818608E-02  0.1467433E+00
          2   -1    0    0  502    0  0.00000000000E+00  0.00000000000E+00  0.18698480556E+03  0.18698480556E+03  0.00000000000E+00 0. -1.
          1   -1    0    0  501    0 -0.00000000000E+00 -0.00000000000E+00 -0.90683351839E+03  0.90683351839E+03  0.00000000000E+00 0. -1.
          2    1    1    2  501    0 -0.48250660663E+00  0.10193633544E+03  0.94580990167E+02  0.13905686965E+03  0.00000000000E+00 0. -1.
          1    1    1    2  502    0 -0.38280596560E+02 -0.68597580292E+02 -0.81469991200E+03  0.81847845342E+03  0.00000000000E+00 0. -1.
         22    1    1    2    0    0  0.48195410949E+02 -0.40617783920E+02  0.52921815387E+02  0.82300185607E+02  0.00000000000E+00 0.  1.
         22    1    1    2    0    0 -0.94323077826E+01  0.72790287730E+01 -0.52651606378E+02  0.53982815267E+02  0.00000000000E+00 0.  1.
</event>
<event>
 6    1  0.1726037E-005  0.2930260E+03  0.7818608E-02  0.1187361E+00
          2   -1    0    0  502    0  0.00000000000E+00  0.00000000000E+00  0.86016671974E+03  0.86016671974E+03  0.00000000000E+00 0. -1.
          1   -1    0    0  501    0 -0.00000000000E+00 -0.00000000000E+00 -0.10879254392E+03  0.10879254392E+03  0.00000000000E+00 0. -1.
          2    1    1    2  501    0  0.18199573058E+03  0.21141301716E+03  0.30169598915E+03  0.41089947633E+03  0.00000000000E+00 0. -1.
          1    1    1    2  502    0 -0.84133071314E+02 -0.12872771027E+03  0.22379489394E+03  0.27153885842E+03  0.00000000000E+00 0. -1.
         22    1    1    2    0    0  0.25029341564E+02 -0.96636022173E+01  0.70256574822E+02  0.75205315322E+02  0.00000000000E+00 0.  1.
         22    1    1    2    0    0 -0.12289200083E+03 -0.73021704680E+02  0.15562671790E+03  0.21131561359E+03  0.00000000000E+00 0.  1.
</event>
<event>
 6    1  0.1726037E-005  0.7410657E+02  0.7818608E-02  0.1433664E+00
          2   -1    0    0  502    0  0.00000000000E+00  0.00000000000E+00  0.19539084919E+03  0.19539084919E+03  0.00000000000E+00 0. -1.
          1   -1    0    0  501    0 -0.00000000000E+00 -0.00000000000E+00 -0.22228098832E+03  0.22228098832E+03  0.00000000000E+00 0. -1.
          2    1    1    2  501    0  0.23241641202E+02  0.15334807527E+03 -0.26157937049E+02  0.15728968099E+03  0.00000000000E+00 0. -1.
          1    1    1    2  502    0 -0.22080099469E+01 -0.10933757031E+03 -0.39945555178E+02  0.11642691686E+03  0.00000000000E+00 0. -1.
         22    1    1    2    0    0 -0.25421295157E+02 -0.34375167604E+02  0.85970354547E+02  0.96014562730E+02  0.00000000000E+00 0. -1.
         22    1    1    2    0    0  0.43876639022E+01 -0.96353373553E+01 -0.46757001453E+02  0.47940676939E+02  0.00000000000E+00 0.  1.
</event>
<event>
 6    1  0.1726037E-005  0.1334468E+03  0.7818608E-02  0.1259854E+00
          2   -1    0    0  502    0  0.00000000000E+00  0.00000000000E+00  0.48669735778E+03  0.48669735778E+03  0.00000000000E+00 0. -1.
          1   -1    0    0  501    0 -0.00000000000E+00 -0.00000000000E+00 -0.23523706319E+03  0.23523706319E+03  0.00000000000E+00 0. -1.
          2    1    1    2  501    0  0.20401248203E+03  0.17138136604E+03  0.84537895291E+02  0.27953411454E+03  0.00000000000E+00 0. -1.
          1    1    1    2  502    0 -0.12914752170E+03 -0.18957042051E+03  0.18852837765E+03  0.29691577236E+03  0.00000000000E+00 0. -1.
         22    1    1    2    0    0 -0.19129177630E+00  0.35761675003E+02  0.35083439954E+02  0.50097722010E+02  0.00000000000E+00 0.  1.
         22    1    1    2    0    0 -0.74673668552E+02 -0.17572620531E+02 -0.56689418303E+02  0.95386812059E+02  0.00000000000E+00 0. -1.
</event>
<event>
 6    1  0.1726037E-005  0.6601595E+02  0.7818608E-02  0.1375780E+00
          2   -1    0    0  502    0  0.00000000000E+00  0.00000000000E+00  0.19010041384E+03  0.19010041384E+03  0.00000000000E+00 0. -1.
          1   -1    0    0  501    0 -0.00000000000E+00 -0.00000000000E+00 -0.12348258372E+03  0.12348258372E+03  0.00000000000E+00 0. -1.
          2    1    1    2  501    0  0.82066144966E+01  0.35005323072E+02  0.91228129527E+02  0.98057599307E+02  0.00000000000E+00 0. -1.
          1    1    1    2  502    0 -0.34145234599E+02 -0.33494810417E+02 -0.66999333593E+02  0.82320775461E+02  0.00000000000E+00 0. -1.
         22    1    1    2    0    0  0.27304236923E+02  0.12405981881E+02  0.84060180292E+02  0.89249894404E+02  0.00000000000E+00 0.  1.
         22    1    1    2    0    0 -0.13656168210E+01 -0.13916494536E+02 -0.41671146104E+02  0.43954728381E+02  0.00000000000E+00 0.  1.
</event>
<event>
 6    1  0.1726037E-005  0.9473330E+02  0.7818608E-02  0.1379501E+00
          2   -1    0    0  502    0  0.00000000000E+00  0.00000000000E+00  0.95217140257E+03  0.95217140257E+03  0.00000000000E+00 0.  1.
          1   -1    0    0  501    0 -0.00000000000E+00 -0.00000000000E+00 -0.46449377263E+02  0.46449377263E+02  0.00000000000E+00 0.  1.
          2    1    1    2  501    0  0.27881893431E+02  0.20536804924E+02  0.79771426326E+03  0.79846553222E+03  0.00000000000E+00 0.  1.
          1    1    1    2  502    0  0.19400565913E+02  0.57475059035E+01  0.40267031385E+02  0.45064948668E+02  0.00000000000E+00 0.  1.
         22    1    1    2    0    0 -0.27620576414E+02 -0.20559908222E+02 -0.35725073951E+02  0.49617405982E+02  0.00000000000E+00 0.  1.
         22    1    1    2    0    0 -0.19661882931E+02 -0.57244026053E+01  0.10346580461E+03  0.10547289296E+03  0.00000000000E+00 0.  1.
</event>
<event>
 6    1  0.1726037E-005  0.8682789E+02  0.7818608E-02  0.1419318E+00
          2   -1    0    0  502    0  0.00000000000E+00  0.00000000000E+00  0.28449490983E+02  0.28449490983E+02  0.00000000000E+00 0. -1.
          1   -1    0    0  501    0 -0.00000000000E+00 -0.00000000000E+00 -0.66375743785E+03  0.66375743785E+03  0.00000000000E+00 0. -1.
          2    1    1    2  501    0 -0.70689773352E+02  0.19988121777E+02 -0.93076747581E+02  0.11857423839E+03  0.00000000000E+00 0. -1.
          1    1    1    2  502    0  0.39277603769E+02 -0.19009044277E+01 -0.25520276204E+03  0.25821462652E+03  0.00000000000E+00 0. -1.
         22    1    1    2    0    0 -0.10672889253E+02  0.92871136050E+01  0.79291827273E+01  0.16218291613E+02  0.00000000000E+00 0.  1.
         22    1    1    2    0    0  0.42085058836E+02 -0.27374330955E+02 -0.29495761997E+03  0.29919977232E+03  0.00000000000E+00 0. -1.
</event>
<event>
 6    1  0.1726037E-005  0.1547444E+03  0.7818608E-02  0.1205697E+00
          2   -1    0    0  502    0  0.00000000000E+00  0.00000000000E+00  0.65256528792E+03  0.65256528792E+03  0.00000000000E+00 0.  1.
          1   -1    0    0  501    0 -0.00000000000E+00 -0.00000000000E+00 -0.53400162747E+03  0.53400162747E+03  0.00000000000E+00 0.  1.
          2    1    1    2  501    0  0.46690303797E+02 -0.47934279069E+02  0.54443967914E+03  0.54853645622E+03  0.00000000000E+00 0.  1.
          1    1    1    2  502    0 -0.85440452629E+02 -0.89287443796E+02 -0.42793542354E+03  0.44542232239E+03  0.00000000000E+00 0.  1.
         22    1    1    2    0    0  0.15368120098E+02  0.12106757228E+03  0.53959810293E+02  0.13343611693E+03  0.00000000000E+00 0. -1.
         22    1    1    2    0    0  0.23382028733E+02  0.16154150583E+02 -0.51900405439E+02  0.59172019852E+02  0.00000000000E+00 0. -1.
</event>
<event>
 6    1  0.1726037E-005  0.2880061E+03  0.7818608E-02  0.1194049E+00
          2   -1    0    0  502    0  0.00000000000E+00  0.00000000000E+00  0.22777303728E+03  0.22777303728E+03  0.00000000000E+00 0.  1.
          1   -1    0    0  501    0 -0.00000000000E+00 -0.00000000000E+00 -0.50832579837E+03  0.50832579837E+03  0.00000000000E+00 0.  1.
          2    1    1    2  501    0 -0.24387265470E+03 -0.48648948348E+02  0.65881326087E+02  0.25725656651E+03  0.00000000000E+00 0.  1.
          1    1    1    2  502    0 -0.72479967814E+01 -0.24788176831E+02  0.15383452855E+01  0.25871870326E+02  0.00000000000E+00 0.  1.
         22    1    1    2    0    0  0.22971105966E+03  0.61773827281E+02 -0.35524330184E+03  0.42752892320E+03  0.00000000000E+00 0.  1.
         22    1    1    2    0    0  0.21409591824E+02  0.11663297898E+02  0.72708693854E+01  0.25441475617E+02  0.00000000000E+00 0.  1.
</event>
<event>
 6    1  0.1726037E-005  0.5022727E+02  0.7818608E-02  0.1476537E+00
          2   -1    0    0  502    0  0.00000000000E+00  0.00000000000E+00  0.30565621039E+03  0.30565621039E+03  0.00000000000E+00 0. -1.
          1   -1    0    0  501    0 -0.00000000000E+00 -0.00000000000E+00 -0.86611064723E+02  0.86611064723E+02  0.00000000000E+00 0.  1.
          2    1    1    2  501    0  0.21959082091E+02  0.31640037019E+01  0.16514496389E+03  0.16662854288E+03  0.00000000000E+00 0. -1.
          1    1    1    2  502    0 -0.22239259746E+02 -0.14557763069E+02 -0.55377006941E+02  0.61425776653E+02  0.00000000000E+00 0.  1.
         22    1    1    2    0    0  0.16613338322E+02  0.26606361426E+02  0.13001526446E+03  0.13374554374E+03  0.00000000000E+00 0. -1.
         22    1    1    2    0    0 -0.16333160668E+02 -0.15212602059E+02 -0.20738075736E+02  0.30467411837E+02  0.00000000000E+00 0.  1.
</event>
<event>
 6    1  0.1726037E-005  0.9148135E+02  0.7818608E-02  0.1393152E+00
          2   -1    0    0  502    0  0.00000000000E+00  0.00000000000E+00  0.15729010375E+03  0.15729010375E+03  0.00000000000E+00 0. -1.
          1   -1    0    0  501    0 -0.00000000000E+00 -0.00000000000E+00 -0.47775233395E+03  0.47775233395E+03  0.00000000000E+00 0. -1.
          2    1    1    2  501    0  0.32515589635E+02 -0.98876975884E+02 -0.95571550707E+01  0.10452396444E+03  0.00000000000E+00 0. -1.
          1    1    1    2  502    0 -0.16578335575E+02  0.75986447251E+02 -0.37973444484E+03  0.38761711775E+03  0.00000000000E+00 0. -1.
         22    1    1    2    0    0 -0.63245012507E+01  0.17107549976E+02  0.10420521440E+03  0.10578938647E+03  0.00000000000E+00 0. -1.
         22    1    1    2    0    0 -0.96127528086E+01  0.57829786574E+01 -0.35375844687E+02  0.37111969040E+02  0.00000000000E+00 0. -1.
</event>
<event>
 6    1  0.1726037E-005  0.1204485E+03  0.7818608E-02  0.1337773E+00
          2   -1    0    0  502    0  0.00000000000E+00  0.00000000000E+00  0.49156668665E+02  0.49156668665E+02  0.00000000000E+00 0.  1.
          1   -1    0    0  501    0 -0.00000000000E+00 -0.00000000000E+00 -0.34199278564E+03  0.34199278564E+03  0.00000000000E+00 0. -1.
          2    1    1    2  501    0  0.46884363460E+02 -0.43960579871E+02 -0.36186331962E+02  0.73757214836E+02  0.00000000000E+00 0.  1.
          1    1    1    2  502    0  0.30021974176E+02  0.24411706084E+02 -0.67447180063E+02  0.77758423504E+02  0.00000000000E+00 0. -1.
         22    1    1    2    0    0 -0.21746627150E+01 -0.20003839833E+02  0.10552305216E+02  0.22720781486E+02  0.00000000000E+00 0.  1.
         22    1    1    2    0    0 -0.74731674921E+02  0.39552713620E+02 -0.19975491017E+03  0.21691303448E+03  0.00000000000E+00 0. -1.
</event>
<event>
 6    1  0.1726037E-005  0.5181032E+02  0.7818608E-02  0.1542684E+00
          2   -1    0    0  502    0  0.00000000000E+00  0.00000000000E+00  0.61076365826E+02  0.61076365826E+02  0.00000000000E+00 0.  1.
          1   -1    0    0  501    0 -0.00000000000E+00 -0.00000000000E+00 -0.28470762902E+03  0.28470762902E+03  0.00000000000E+00 0.  1.
          2    1    1    2  501    0  0.33363781488E+02 -0.12350875452E+02  0.92984709636E+01  0.36771559688E+02  0.00000000000E+00 0.  1.
          1    1    1    2  502    0 -0.20382342957E+02 -0.20698482525E+01 -0.16182972838E+03  0.16312138168E+03  0.00000000000E+00 0.  1.
         22    1    1    2    0    0 -0.24609181060E+02  0.15094439593E+02 -0.10560149603E+03  0.10947661788E+03  0.00000000000E+00 0.  1.
         22    1    1    2    0    0  0.11627742529E+02 -0.67371588809E+00  0.34501490254E+02  0.36414435587E+02  0.00000000000E+00 0.  1.
</event>
<event>
 6    1  0.1726037E-005  0.3484917E+02  0.7818608E-02  0.1649940E+00
          2   -1    0    0  502    0  0.00000000000E+00  0.00000000000E+00  0.67915712234E+02  0.67915712234E+02  0.00000000000E+00 0. -1.
          1   -1    0    0  501    0 -0.00000000000E+00 -0.00000000000E+00 -0.31019403379E+03  0.31019403379E+03  0.00000000000E+00 0. -1.
          2    1    1    2  501    0 -0.83797805741E+01  0.32673387330E+02 -0.46122351447E+02  0.57140548344E+02  0.00000000000E+00 0. -1.
          1    1    1    2  502    0 -0.31222866205E+02 -0.26852326295E+02 -0.18794092728E+03  0.19239986213E+03  0.00000000000E+00 0. -1.
         22    1    1    2    0    0  0.61113213750E+01  0.84752696790E+01  0.54801044026E+02  0.55788286149E+02  0.00000000000E+00 0. -1.
         22    1    1    2    0    0  0.33491325404E+02 -0.14296330714E+02 -0.63016086858E+02  0.72781049402E+02  0.00000000000E+00 0. -1.
</event>
<event>
 6    1  0.1726037E-005  0.2304822E+02  0.7818608E-02  0.1694988E+00
          2   -1    0    0  502    0  0.00000000000E+00  0.00000000000E+00  0.77778006600E+02  0.77778006600E+02  0.00000000000E+00 0.  1.
          1   -1    0    0  501    0 -0.00000000000E+00 -0.00000000000E+00 -0.17520286074E+03  0.17520286074E+03  0.00000000000E+00 0.  1.
          2    1    1    2  501    0  0.74936443524E+01  0.25018142529E+02  0.12727999365E+02  0.29052781780E+02  0.00000000000E+00 0.  1.
          1    1    1    2  502    0 -0.16230099361E+02 -0.41807084321E+02 -0.76862293477E+02  0.88989103733E+02  0.00000000000E+00 0.  1.
         22    1    1    2    0    0 -0.59781322115E+01  0.14491638503E+02 -0.82267519763E+02  0.83747778831E+02  0.00000000000E+00 0. -1.
         22    1    1    2    0    0  0.14714587220E+02  0.22973032893E+01  0.48976959733E+02  0.51191202996E+02  0.00000000000E+00 0.  1.
</event>
<event>
 6    1  0.1726037E-005  0.1204572E+03  0.7818608E-02  0.1332957E+00
          2   -1    0    0  502    0  0.00000000000E+00  0.00000000000E+00  0.21457638259E+03  0.21457638259E+03  0.00000000000E+00 0. -1.
          1   -1    0    0  501    0 -0.00000000000E+00 -0.00000000000E+00 -0.16286879867E+03  0.16286879867E+03  0.00000000000E+00 0. -1.
          2    1    1    2  501    0 -0.66391208323E+02  0.76397097286E+02  0.38346055537E+02  0.10823460164E+03  0.00000000000E+00 0. -1.
          1    1    1    2  502    0  0.69064245052E+02 -0.80182687386E+02 -0.66174353272E+02  0.12481257281E+03  0.00000000000E+00 0. -1.
         22    1    1    2    0    0  0.91881116973E+01 -0.14601772089E+02 -0.28964564630E+02  0.33713189539E+02  0.00000000000E+00 0.  1.
         22    1    1    2    0    0 -0.11861148427E+02  0.18387362189E+02  0.10850044628E+03  0.11068481727E+03  0.00000000000E+00 0. -1.
</event>
<event>
 6    1  0.1726037E-005  0.4027943E+02  0.7818608E-02  0.1516422E+00
          2   -1    0    0  502    0  0.00000000000E+00  0.00000000000E+00  0.13483376576E+03  0.13483376576E+03  0.00000000000E+00 0.  1.
          1   -1    0    0  501    0 -0.00000000000E+00 -0.00000000000E+00 -0.12612251827E+03  0.12612251827E+03  0.00000000000E+00 0.  1.
          2    1    1    2  501    0 -0.33943687528E+02 -0.46600108944E+02  0.58392680319E+02  0.82057596793E+02  0.00000000000E+00 0.  1.
          1    1    1    2  502    0  0.72084376824E+01  0.40493723195E+02 -0.25006235241E+02  0.48135381924E+02  0.00000000000E+00 0.  1.
         22    1    1    2    0    0  0.14548138712E+02 -0.20145620196E+02  0.47165703036E+02  0.53311329902E+02  0.00000000000E+00 0.  1.
         22    1    1    2    0    0  0.12187111134E+02  0.26252005945E+02 -0.71840900620E+02  0.77451975416E+02  0.00000000000E+00 0.  1.
</event>
<event>
 6    1  0.1726037E-005  0.1407797E+03  0.7818608E-02  0.1323282E+00
          2   -1    0    0  502    0  0.00000000000E+00  0.00000000000E+00  0.16361925133E+03  0.16361925133E+03  0.00000000000E+00 0.  1.
          1   -1    0    0  501    0 -0.00000000000E+00 -0.00000000000E+00 -0.59519399798E+03  0.59519399798E+03  0.00000000000E+00 0. -1.
          2    1    1    2  501    0  0.38899235774E+02 -0.12789184259E+03  0.77054639478E+02  0.15429481978E+03  0.00000000000E+00 0.  1.
          1    1    1    2  502    0 -0.59068382951E+02  0.95384592199E+02 -0.44411078761E+03  0.45806297162E+03  0.00000000000E+00 0. -1.
         22    1    1    2    0    0  0.15699066224E+02  0.42284531742E+01  0.37299375239E+02  0.40688866902E+02  0.00000000000E+00 0.  1.
         22    1    1    2    0    0  0.44700809526E+01  0.28278797219E+02 -0.10181797375E+03  0.10576659101E+03  0.00000000000E+00 0.  1.
</event>
<event>
 6    1  0.1726037E-005  0.8095292E+02  0.7818608E-02  0.1403575E+00
          2   -1    0    0  502    0  0.00000000000E+00  0.00000000000E+00  0.20292540504E+03  0.20292540504E+03  0.00000000000E+00 0. -1.
          1   -1    0    0  501    0 -0.00000000000E+00 -0.00000000000E+00 -0.98396212460E+02  0.98396212460E+02  0.00000000000E+00 0. -1.
          2    1    1    2  501    0  0.44848413860E+02  0.70994690312E+02  0.38259780535E+02  0.92279125943E+02  0.00000000000E+00 0. -1.
          1    1    1    2  502    0 -0.40277102870E+02 -0.33008284992E+02 -0.18752947665E+02  0.55348576675E+02  0.00000000000E+00 0. -1.
         22    1    1    2    0    0  0.99726653634E+01 -0.19954327591E+02  0.11424501152E+03  0.11640254250E+03  0.00000000000E+00 0. -1.
         22    1    1    2    0    0 -0.14543976353E+02 -0.18032077729E+02 -0.29222651807E+02  0.37291372380E+02  0.00000000000E+00 0. -1.
</event>
<event>
 6    1  0.1726037E-005  0.8776369E+02  0.7818608E-02  0.1347501E+00
          2   -1    0    0  502    0  0.00000000000E+00  0.00000000000E+00  0.40736903560E+02  0.40736903560E+02  0.00000000000E+00 0.  1.
          1   -1    0    0  501    0 -0.00000000000E+00 -0.00000000000E+00 -0.56793815210E+03  0.56793815210E+03  0.00000000000E+00 0.  1.
          2    1    1    2  501    0 -0.33505872691E+02 -0.57946230613E+02 -0.38187428760E+03  0.38769624795E+03  0.00000000000E+00 0.  1.
          1    1    1    2  502    0  0.99223024014E+01  0.28699153574E+02 -0.43163046416E+01  0.30671224080E+02  0.00000000000E+00 0.  1.
         22    1    1    2    0    0 -0.15899630218E+02 -0.41002323933E+02 -0.30427641627E+02  0.53477380115E+02  0.00000000000E+00 0. -1.
         22    1    1    2    0    0  0.39483200508E+02  0.70249400972E+02 -0.11058301467E+03  0.13683020351E+03  0.00000000000E+00 0.  1.
</event>
<event>
 6    1  0.1726037E-005  0.4348666E+02  0.7818608E-02  0.1527154E+00
          2   -1    0    0  502    0  0.00000000000E+00  0.00000000000E+00  0.69356496729E+02  0.69356496729E+02  0.00000000000E+00 0.  1.
          1   -1    0    0  501    0 -0.00000000000E+00 -0.00000000000E+00 -0.33687837314E+03  0.33687837314E+03  0.00000000000E+00 0. -1.
          2    1    1    2  501    0  0.28780755693E+02  0.64477976121E+02 -0.39025689733E+02  0.80676798165E+02  0.00000000000E+00 0.  1.
          1    1    1    2  502    0 -0.67685462076E+01 -0.26459475424E+02 -0.18897114895E+03  0.19093457568E+03  0.00000000000E+00 0. -1.
         22    1    1    2    0    0  0.14652787143E+02 -0.19189129925E+02 -0.75901951038E+02  0.79649438477E+02  0.00000000000E+00 0.  1.
         22    1    1    2    0    0 -0.36664996628E+02 -0.18829370772E+02  0.36376913304E+02  0.54974057545E+02  0.00000000000E+00 0. -1.
</event>
<event>
 6    1  0.1733683E-005  0.2042108E+02  0.7818608E-02  0.1745294E+00
          2   -1    0    0  502    0  0.00000000000E+00  0.00000000000E+00  0.23054400553E+03  0.23054400553E+03  0.00000000000E+00 0. -1.
          1   -1    0    0  501    0 -0.00000000000E+00 -0.00000000000E+00 -0.94470987642E+02  0.94470987642E+02  0.00000000000E+00 0. -1.
          2    1    1    2  501    0  0.16442679213E+01  0.28309266146E+02  0.15794299684E+03  0.16046840318E+03  0.00000000000E+00 0. -1.
          1    1    1    2  502    0 -0.96813196021E+01 -0.21891963830E+02 -0.34556672920E+02  0.42037479382E+02  0.00000000000E+00 0. -1.
         22    1    1    2    0    0  0.11541623980E+02  0.42526235309E+01  0.66453316275E+02  0.67582077025E+02  0.00000000000E+00 0. -1.
         22    1    1    2    0    0 -0.35045722988E+01 -0.10669925847E+02 -0.53766622308E+02  0.54927033590E+02  0.00000000000E+00 0. -1.
</event>
<event>
 6    1  0.1726037E-005  0.1267328E+03  0.7818608E-02  0.1232882E+00
          2   -1    0    0  502    0  0.00000000000E+00  0.00000000000E+00  0.22328684290E+03  0.22328684290E+03  0.00000000000E+00 0. -1.
          1   -1    0    0  501    0 -0.00000000000E+00 -0.00000000000E+00 -0.21217604598E+03  0.21217604598E+03  0.00000000000E+00 0. -1.
          2    1    1    2  501    0  0.93399613067E+02  0.50158642965E+02  0.75224918449E+02  0.12999294420E+03  0.00000000000E+00 0. -1.
          1    1    1    2  502    0 -0.98640650320E+02  0.64625203129E+02 -0.71808311738E+02  0.13806820202E+03  0.00000000000E+00 0. -1.
         22    1    1    2    0    0 -0.30613885223E+02  0.54290005931E+01 -0.22493011275E+02  0.38374725694E+02  0.00000000000E+00 0.  1.
         22    1    1    2    0    0  0.35854922476E+02 -0.12021284669E+03  0.30187201479E+02  0.12902701697E+03  0.00000000000E+00 0. -1.
</event>
<event>
 6    1  0.1726037E-005  0.1164078E+03  0.7818608E-02  0.1272544E+00
          2   -1    0    0  502    0  0.00000000000E+00  0.00000000000E+00  0.10570115224E+03  0.10570115224E+03  0.00000000000E+00 0. -1.
          1   -1    0    0  501    0 -0.00000000000E+00 -0.00000000000E+00 -0.37900795793E+03  0.37900795793E+03  0.00000000000E+00 0.  1.
          2    1    1    2  501    0  0.95510160352E+01 -0.58050885237E+02  0.26943413762E+02  0.64707609516E+02  0.00000000000E+00 0. -1.
          1    1    1    2  502    0 -0.70302033656E+02 -0.69826901651E+02 -0.14443658099E+03  0.17515735228E+03  0.00000000000E+00 0.  1.
         22    1    1    2    0    0  0.70803889809E+02  0.13827171672E+03 -0.16585103948E+03  0.22724177819E+03  0.00000000000E+00 0. -1.
         22    1    1    2    0    0 -0.10052872188E+02 -0.10393929836E+02  0.10037401020E+02  0.17602370178E+02  0.00000000000E+00 0.  1.
</event>
<event>
 6    1  0.1726037E-005  0.6956043E+02  0.7818608E-02  0.1468171E+00
          2   -1    0    0  502    0  0.00000000000E+00  0.00000000000E+00  0.52927090571E+02  0.52927090571E+02  0.00000000000E+00 0. -1.
          1   -1    0    0  501    0 -0.00000000000E+00 -0.00000000000E+00 -0.24661353381E+03  0.24661353381E+03  0.00000000000E+00 0. -1.
          2    1    1    2  501    0 -0.35369521364E+02 -0.49671498160E+02 -0.10221827614E+03  0.11902452162E+03  0.00000000000E+00 0. -1.
          1    1    1    2  502    0 -0.86909710539E-01  0.25617253763E+02 -0.25950311202E+02  0.36464638969E+02  0.00000000000E+00 0. -1.
         22    1    1    2    0    0  0.10250908720E+02 -0.84853152533E+01  0.33917156083E+02  0.36434258347E+02  0.00000000000E+00 0. -1.
         22    1    1    2    0    0  0.25205522355E+02  0.32539559650E+02 -0.99435011976E+02  0.10761720544E+03  0.00000000000E+00 0. -1.
</event>
<event>
 6    1  0.1726037E-005  0.9310881E+02  0.7818608E-02  0.1344534E+00
          2   -1    0    0  502    0  0.00000000000E+00  0.00000000000E+00  0.42800717126E+03  0.42800717126E+03  0.00000000000E+00 0.  1.
          1   -1    0    0  501    0 -0.00000000000E+00 -0.00000000000E+00 -0.44337009823E+02  0.44337009823E+02  0.00000000000E+00 0.  1.
          2    1    1    2  501    0 -0.19782543972E+02 -0.40391817250E+02  0.28582325588E+03  0.28934025221E+03  0.00000000000E+00 0.  1.
          1    1    1    2  502    0  0.75504316795E+01  0.24204778850E+02  0.40582950162E+02  0.47852441751E+02  0.00000000000E+00 0.  1.
         22    1    1    2    0    0 -0.57056191972E+01  0.50539486864E+02 -0.15107747219E+02  0.53056930263E+02  0.00000000000E+00 0.  1.
         22    1    1    2    0    0  0.17937731489E+02 -0.34352448464E+02  0.72371702607E+02  0.82094556852E+02  0.00000000000E+00 0.  1.
</event>
<event>
 6    1  0.1726037E-005  0.4153088E+02  0.7818608E-02  0.1599299E+00
          2   -1    0    0  502    0  0.00000000000E+00  0.00000000000E+00  0.91409982659E+02  0.91409982659E+02  0.00000000000E+00 0. -1.
          1   -1    0    0  501    0 -0.00000000000E+00 -0.00000000000E+00 -0.29129274781E+03  0.29129274781E+03  0.00000000000E+00 0. -1.
          2    1    1    2  501    0 -0.34742855374E+02 -0.27714157762E+02  0.17900554549E+01  0.44478588540E+02  0.00000000000E+00 0. -1.
          1    1    1    2  502    0  0.25224511569E+02  0.18039750069E+02 -0.20829150841E+03  0.21058741900E+03  0.00000000000E+00 0. -1.
         22    1    1    2    0    0  0.10083443040E+02 -0.14551887603E+01 -0.59611357961E+02  0.60475676068E+02  0.00000000000E+00 0. -1.
         22    1    1    2    0    0 -0.56509923574E+00  0.11129596453E+02  0.66230045760E+02  0.67161046863E+02  0.00000000000E+00 0. -1.
</event>
<event>
 6    1  0.1726037E-005  0.2210769E+02  0.7818608E-02  0.1728276E+00
          2   -1    0    0  502    0  0.00000000000E+00  0.00000000000E+00  0.10061776125E+03  0.10061776125E+03  0.00000000000E+00 0.  1.
          1   -1    0    0  501    0 -0.00000000000E+00 -0.00000000000E+00 -0.17501348529E+03  0.17501348529E+03  0.00000000000E+00 0. -1.
          2    1    1    2  501    0 -0.11864545980E+02  0.31622116639E+02  0.39983180502E+02  0.52339090889E+02  0.00000000000E+00 0.  1.
          1    1    1    2  502    0 -0.16211396278E+02 -0.29135376306E+02 -0.88604348206E+02  0.94670006035E+02  0.00000000000E+00 0. -1.
         22    1    1    2    0    0  0.15614830118E+02 -0.80144572536E+00  0.49703023815E+02  0.52104278243E+02  0.00000000000E+00 0.  1.
         22    1    1    2    0    0  0.12461112139E+02 -0.16852946081E+01 -0.75477580151E+02  0.76517871371E+02  0.00000000000E+00 0. -1.
</event>
<event>
 6    1  0.1726037E-005  0.7105857E+02  0.7818608E-02  0.1426535E+00
          2   -1    0    0  502    0  0.00000000000E+00  0.00000000000E+00  0.23903700157E+03  0.23903700157E+03  0.00000000000E+00 0. -1.
          1   -1    0    0  501    0 -0.00000000000E+00 -0.00000000000E+00 -0.12801234463E+03  0.12801234463E+03  0.00000000000E+00 0.  1.
          2    1    1    2  501    0  0.40494859427E+01 -0.23322322783E+02  0.18973140193E+03  0.19120233774E+03  0.00000000000E+00 0. -1.
          1    1    1    2  502    0  0.17099836500E+02  0.19539595938E+02 -0.12601143846E+02  0.28861549576E+02  0.00000000000E+00 0.  1.
         22    1    1    2    0    0 -0.53209077169E+01 -0.22489727593E+02  0.34658194076E+02  0.41656816042E+02  0.00000000000E+00 0. -1.
         22    1    1    2    0    0 -0.15828414726E+02  0.26272454438E+02 -0.10076379523E+03  0.10532864285E+03  0.00000000000E+00 0.  1.
</event>
<event>
 6    1  0.1726037E-005  0.1182393E+03  0.7818608E-02  0.1342066E+00
          2   -1    0    0  502    0  0.00000000000E+00  0.00000000000E+00  0.21262259171E+03  0.21262259171E+03  0.00000000000E+00 0.  1.
          1   -1    0    0  501    0 -0.00000000000E+00 -0.00000000000E+00 -0.99341503204E+02  0.99341503204E+02  0.00000000000E+00 0.  1.
          2    1    1    2  501    0 -0.61032626500E+02  0.15308458735E+02  0.42992858992E+02  0.76208374413E+02  0.00000000000E+00 0.  1.
          1    1    1    2  502    0 -0.15011509122E+02 -0.47321558592E+02 -0.27147002114E+02  0.56582992476E+02  0.00000000000E+00 0.  1.
         22    1    1    2    0    0  0.19716555466E+02  0.10782452482E+01  0.11162792278E+03  0.11336092058E+03  0.00000000000E+00 0.  1.
         22    1    1    2    0    0  0.56327580155E+02  0.30934854609E+02 -0.14192691153E+02  0.65811807436E+02  0.00000000000E+00 0.  1.
</event>
<event>
 6    1  0.1726037E-005  0.5192588E+02  0.7818608E-02  0.1442973E+00
          2   -1    0    0  502    0  0.00000000000E+00  0.00000000000E+00  0.43046144526E+03  0.43046144526E+03  0.00000000000E+00 0. -1.
          1   -1    0    0  501    0 -0.00000000000E+00 -0.00000000000E+00 -0.29784407690E+03  0.29784407690E+03  0.00000000000E+00 0. -1.
          2    1    1    2  501    0  0.14850170832E+02  0.54818729996E+02  0.20892817010E+03  0.21651004825E+03  0.00000000000E+00 0. -1.
          1    1    1    2  502    0 -0.16582917386E+02 -0.89667364262E+02 -0.26607567490E+03  0.28126765569E+03  0.00000000000E+00 0. -1.
         22    1    1    2    0    0 -0.27207795162E+02  0.22602209722E+02  0.19542234958E+03  0.19859763019E+03  0.00000000000E+00 0. -1.
         22    1    1    2    0    0  0.28940541716E+02  0.12246424545E+02 -0.56574764090E+01  0.31930188040E+02  0.00000000000E+00 0. -1.
</event>
<event>
 6    1  0.1726037E-005  0.6263816E+02  0.7818608E-02  0.1391640E+00
          2   -1    0    0  502    0  0.00000000000E+00  0.00000000000E+00  0.15127202765E+03  0.15127202765E+03  0.00000000000E+00 0.  1.
          1   -1    0    0  501    0 -0.00000000000E+00 -0.00000000000E+00 -0.16682536932E+03  0.16682536932E+03  0.00000000000E+00 0. -1.
          2    1    1    2  501    0  0.25832109963E+02 -0.48170165260E+02  0.78604607346E+02  0.95741041473E+02  0.00000000000E+00 0.  1.
          1    1    1    2  502    0  0.42861119371E+02 -0.28238004253E+01 -0.49370333226E+02  0.65440654072E+02  0.00000000000E+00 0. -1.
         22    1    1    2    0    0  0.17570654726E+02 -0.41286879257E+01 -0.51254794328E+02  0.54339929270E+02  0.00000000000E+00 0. -1.
         22    1    1    2    0    0 -0.86263884060E+02  0.55122653611E+02  0.64671785356E+01  0.10257577215E+03  0.00000000000E+00 0. -1.
</event>
<event>
 6    1  0.1726037E-005  0.6879160E+02  0.7818608E-02  0.1380332E+00
          2   -1    0    0  502    0  0.00000000000E+00  0.00000000000E+00  0.40367820863E+03  0.40367820863E+03  0.00000000000E+00 0.  1.
          1   -1    0    0  501    0 -0.00000000000E+00 -0.00000000000E+00 -0.45019443092E+03  0.45019443092E+03  0.00000000000E+00 0.  1.
          2    1    1    2  501    0 -0.19138967207E+03  0.44812243120E+02  0.17090843481E+03  0.26047617318E+03  0.00000000000E+00 0.  1.
          1    1    1    2  502    0  0.15908678171E+03 -0.10980524590E+02 -0.36386417804E+03  0.39727360357E+03  0.00000000000E+00 0.  1.
         22    1    1    2    0    0  0.23052735321E+02 -0.14886317344E+02  0.16546470767E+03  0.16772477615E+03  0.00000000000E+00 0.  1.
         22    1    1    2    0    0  0.92501550356E+01 -0.18945401185E+02 -0.19025186744E+02  0.28398086642E+02  0.00000000000E+00 0.  1.
</event>
<event>
 6    1  0.1726037E-005  0.9765126E+02  0.7818608E-02  0.1322889E+00
          2   -1    0    0  502    0  0.00000000000E+00  0.00000000000E+00  0.18392872052E+02  0.18392872052E+02  0.00000000000E+00 0. -1.
          1   -1    0    0  501    0 -0.00000000000E+00 -0.00000000000E+00 -0.67740496081E+03  0.67740496081E+03  0.00000000000E+00 0. -1.
          2    1    1    2  501    0  0.49477966402E+02 -0.61362299982E+00 -0.10273119951E+03  0.11402694877E+03  0.00000000000E+00 0. -1.
          1    1    1    2  502    0 -0.22755220384E+02  0.22210401752E+02 -0.22804331103E+03  0.23024954659E+03  0.00000000000E+00 0. -1.
         22    1    1    2    0    0 -0.22395602933E+02  0.43647376472E+02 -0.72366162076E+02  0.87427214969E+02  0.00000000000E+00 0. -1.
         22    1    1    2    0    0 -0.43271430851E+01 -0.65244155224E+02 -0.25587141615E+03  0.26409412254E+03  0.00000000000E+00 0. -1.
</event>
<event>
 6    1  0.1726037E-005  0.1500056E+03  0.7818608E-02  0.1230684E+00
          2   -1    0    0  502    0  0.00000000000E+00  0.00000000000E+00  0.16400195735E+04  0.16400195735E+04  0.00000000000E+00 0. -1.
          1   -1    0    0  501    0 -0.00000000000E+00 -0.00000000000E+00 -0.39638979834E+02  0.39638979834E+02  0.00000000000E+00 0.  1.
          2    1    1    2  501    0  0.19372467082E+03 -0.38185329234E+02  0.11070617450E+04  0.11245323805E+04  0.00000000000E+00 0. -1.
          1    1    1    2  502    0 -0.64727083306E+02 -0.20830581071E+02  0.12243219110E+03  0.14004695583E+03  0.00000000000E+00 0.  1.
         22    1    1    2    0    0 -0.67527959677E+02  0.41288774644E+02  0.32952654635E+03  0.33889900118E+03  0.00000000000E+00 0. -1.
         22    1    1    2    0    0 -0.61469627838E+02  0.17727135661E+02  0.41360111154E+02  0.76180215804E+02  0.00000000000E+00 0. -1.
</event>
<event>
 6    1  0.1726037E-005  0.1062998E+03  0.7818608E-02  0.1401873E+00
          2   -1    0    0  502    0  0.00000000000E+00  0.00000000000E+00  0.31424800460E+03  0.31424800460E+03  0.00000000000E+00 0.  1.
          1   -1    0    0  501    0 -0.00000000000E+00 -0.00000000000E+00 -0.12553995532E+03  0.12553995532E+03  0.00000000000E+00 0. -1.
          2    1    1    2  501    0 -0.10435730252E+03  0.19387279711E+02  0.23214796540E+03  0.25526259233E+03  0.00000000000E+00 0.  1.
          1    1    1    2  502    0  0.20225649820E+02  0.30519620248E+01 -0.27350731034E+02  0.34153387401E+02  0.00000000000E+00 0. -1.
         22    1    1    2    0    0  0.86576870112E+00 -0.10083501470E+02  0.45153167241E+02  0.46273481274E+02  0.00000000000E+00 0. -1.
         22    1    1    2    0    0  0.83265884003E+02 -0.12355740266E+02 -0.61242352334E+02  0.10409849891E+03  0.00000000000E+00 0. -1.
</event>
<event>
 6    1  0.1726037E-005  0.5365840E+02  0.7818608E-02  0.1427842E+00
          2   -1    0    0  502    0  0.00000000000E+00  0.00000000000E+00  0.18945489937E+03  0.18945489937E+03  0.00000000000E+00 0. -1.
          1   -1    0    0  501    0 -0.00000000000E+00 -0.00000000000E+00 -0.17731436531E+03  0.17731436531E+03  0.00000000000E+00 0.  1.
          2    1    1    2  501    0  0.31607598115E+01  0.33206422626E+02  0.12528923918E+03  0.12965357828E+03  0.00000000000E+00 0. -1.
          1    1    1    2  502    0  0.42815378473E+02 -0.59809121300E+02 -0.56244072299E+02  0.92594186066E+02  0.00000000000E+00 0.  1.
         22    1    1    2    0    0 -0.51727259056E+02  0.96267641034E+01 -0.91505432115E+02  0.10555391051E+03  0.00000000000E+00 0.  1.
         22    1    1    2    0    0  0.57511207722E+01  0.16975934571E+02  0.34600799293E+02  0.38967589820E+02  0.00000000000E+00 0. -1.
</event>
<event>
 6    1  0.1726037E-005  0.2195112E+03  0.7818608E-02  0.1235669E+00
          2   -1    0    0  502    0  0.00000000000E+00  0.00000000000E+00  0.77889600055E+03  0.77889600055E+03  0.00000000000E+00 0. -1.
          1   -1    0    0  501    0 -0.00000000000E+00 -0.00000000000E+00 -0.30322760854E+03  0.30322760854E+03  0.00000000000E+00 0. -1.
          2    1    1    2  501    0 -0.29927487429E+03 -0.13598940598E+03  0.32325444097E+03  0.46103362407E+03  0.00000000000E+00 0. -1.
          1    1    1    2  502    0  0.11115259012E+03  0.21033380105E+03  0.26524257723E+03  0.35629879445E+03  0.00000000000E+00 0. -1.
         22    1    1    2    0    0  0.14582842154E+02 -0.12561773795E+02  0.27256745283E+02  0.33367463338E+02  0.00000000000E+00 0.  1.
         22    1    1    2    0    0  0.17353944202E+03 -0.61782621272E+02 -0.14008537146E+03  0.23142372723E+03  0.00000000000E+00 0.  1.
</event>
<event>
 6    1  0.1726037E-005  0.3160349E+02  0.7818608E-02  0.1628279E+00
          2   -1    0    0  502    0  0.00000000000E+00  0.00000000000E+00  0.45977138279E+02  0.45977138279E+02  0.00000000000E+00 0. -1.
          1   -1    0    0  501    0 -0.00000000000E+00 -0.00000000000E+00 -0.23605662630E+03  0.23605662630E+03  0.00000000000E+00 0.  1.
          2    1    1    2  501    0 -0.82510837105E+01 -0.28474855196E+02 -0.14489890281E+01  0.29681599183E+02  0.00000000000E+00 0. -1.
          1    1    1    2  502    0  0.27515760989E+02  0.17870929107E+02 -0.85050132229E+02  0.91159268328E+02  0.00000000000E+00 0.  1.
         22    1    1    2    0    0 -0.60638065114E+01 -0.14371740294E+02  0.25043054777E+02  0.29503749949E+02  0.00000000000E+00 0. -1.
         22    1    1    2    0    0 -0.13200870767E+02  0.24975666383E+02 -0.12862342154E+03  0.13168914712E+03  0.00000000000E+00 0.  1.
</event>
<event>
 6    1  0.1726037E-005  0.8872108E+02  0.7818608E-02  0.1306393E+00
          2   -1    0    0  502    0  0.00000000000E+00  0.00000000000E+00  0.82037207526E+03  0.82037207526E+03  0.00000000000E+00 0.  1.
          1   -1    0    0  501    0 -0.00000000000E+00 -0.00000000000E+00 -0.27457036353E+02  0.27457036353E+02  0.00000000000E+00 0. -1.
          2    1    1    2  501    0  0.44061664925E+02 -0.32311394505E+02  0.56732029152E+03  0.56994540940E+03  0.00000000000E+00 0.  1.
          1    1    1    2  502    0 -0.18215232252E+02  0.23109628582E+02  0.25734617167E+02  0.39091177265E+02  0.00000000000E+00 0. -1.
         22    1    1    2    0    0  0.30254896318E+02 -0.37731223276E+01  0.17225999590E+03  0.17493742136E+03  0.00000000000E+00 0.  1.
         22    1    1    2    0    0 -0.56101328991E+02  0.12974888251E+02  0.27600134318E+02  0.63855103587E+02  0.00000000000E+00 0. -1.
</event>
<event>
 6    1  0.1726037E-005  0.7650888E+02  0.7818608E-02  0.1441834E+00
          2   -1    0    0  502    0  0.00000000000E+00  0.00000000000E+00  0.15470005526E+03  0.15470005526E+03  0.00000000000E+00 0.  1.
          1   -1    0    0  501    0 -0.00000000000E+00 -0.00000000000E+00 -0.15463512117E+03  0.15463512117E+03  0.00000000000E+00 0. -1.
          2    1    1    2  501    0 -0.26194358816E+02 -0.69887750917E+02  0.59944652484E+02  0.95727757330E+02  0.00000000000E+00 0.  1.
          1    1    1    2  502    0 -0.25073390856E+01  0.30514890005E+02 -0.69128156606E+02  0.75605206812E+02  0.00000000000E+00 0. -1.
         22    1    1    2    0    0  0.14569644414E+02 -0.19729452371E+01  0.65298484371E+02  0.66933243702E+02  0.00000000000E+00 0.  1.
         22    1    1    2    0    0  0.14132053488E+02  0.41345806149E+02 -0.56050046161E+02  0.71068968591E+02  0.00000000000E+00 0. -1.
</event>
<event>
 6    1  0.1726037E-005  0.8413372E+02  0.7818608E-02  0.1396326E+00
          2   -1    0    0  502    0  0.00000000000E+00  0.00000000000E+00  0.40542161086E+03  0.40542161086E+03  0.00000000000E+00 0. -1.
          1   -1    0    0  501    0 -0.00000000000E+00 -0.00000000000E+00 -0.74921394455E+02  0.74921394455E+02  0.00000000000E+00 0. -1.
          2    1    1    2  501    0  0.55725768695E+02 -0.76719197077E+02  0.36127893768E+02  0.10147128266E+03  0.00000000000E+00 0. -1.
          1    1    1    2  502    0 -0.53711686574E+02 -0.24491843034E+02  0.23230814803E+02  0.63438682256E+02  0.00000000000E+00 0. -1.
         22    1    1    2    0    0 -0.15903644410E+02  0.15616812492E+02 -0.75731516743E+01  0.23540674676E+02  0.00000000000E+00 0. -1.
         22    1    1    2    0    0  0.13889562290E+02  0.85594227619E+02  0.27871465951E+03  0.29189236573E+03  0.00000000000E+00 0. -1.
</event>
<event>
 6    1  0.1726037E-005  0.4643757E+02  0.7818608E-02  0.1482252E+00
          2   -1    0    0  502    0  0.00000000000E+00  0.00000000000E+00  0.16210527218E+03  0.16210527218E+03  0.00000000000E+00 0. -1.
          1   -1    0    0  501    0 -0.00000000000E+00 -0.00000000000E+00 -0.15769683659E+03  0.15769683659E+03  0.00000000000E+00 0.  1.
          2    1    1    2  501    0  0.12388736945E+02  0.41826175816E+02  0.11947293297E+02  0.45228835974E+02  0.00000000000E+00 0. -1.
          1    1    1    2  502    0 -0.19435569243E+02 -0.47195907473E+02 -0.10405520545E+03  0.11589944269E+03  0.00000000000E+00 0.  1.
         22    1    1    2    0    0  0.34643380611E+02  0.15184583614E+02  0.11698007981E+03  0.12294337913E+03  0.00000000000E+00 0. -1.
         22    1    1    2    0    0 -0.27596548313E+02 -0.98148519567E+01 -0.20463732060E+02  0.35730450984E+02  0.00000000000E+00 0.  1.
</event>
<event>
 6    1  0.1726037E-005  0.4838154E+02  0.7818608E-02  0.1527153E+00
          2   -1    0    0  502    0  0.00000000000E+00  0.00000000000E+00  0.66940229852E+02  0.66940229852E+02  0.00000000000E+00 0.  1.
          1   -1    0    0  501    0 -0.00000000000E+00 -0.00000000000E+00 -0.16234766054E+03  0.16234766054E+03  0.00000000000E+00 0. -1.
          2    1    1    2  501    0 -0.42464559273E+02  0.99272827924E+01 -0.23280689124E+02  0.49434605530E+02  0.00000000000E+00 0.  1.
          1    1    1    2  502    0  0.23565036239E+02  0.17057654966E+01 -0.39420725102E+02  0.45958830886E+02  0.00000000000E+00 0. -1.
         22    1    1    2    0    0 -0.44272752832E+01 -0.16964233450E+02  0.47269428157E+02  0.50416116682E+02  0.00000000000E+00 0.  1.
         22    1    1    2    0    0  0.23326798316E+02  0.53311851612E+01 -0.79975444619E+02  0.83478337292E+02  0.00000000000E+00 0. -1.
</event>
<event>
 6    1  0.1726037E-005  0.5126872E+02  0.7818608E-02  0.1512108E+00
          2   -1    0    0  502    0  0.00000000000E+00  0.00000000000E+00  0.78905729846E+02  0.78905729846E+02  0.00000000000E+00 0. -1.
          1   -1    0    0  501    0 -0.00000000000E+00 -0.00000000000E+00 -0.58502056203E+03  0.58502056203E+03  0.00000000000E+00 0.  1.
          2    1    1    2  501    0 -0.10377622790E+02 -0.65985366073E+02  0.27777136622E+02  0.72341778451E+02  0.00000000000E+00 0. -1.
          1    1    1    2  502    0  0.46521709332E+02  0.58331085764E+02 -0.39753935555E+03  0.40448031376E+03  0.00000000000E+00 0.  1.
         22    1    1    2    0    0 -0.66137680691E+01 -0.10166323907E+02  0.21955342644E+02  0.25082526596E+02  0.00000000000E+00 0.  1.
         22    1    1    2    0    0 -0.29530318473E+02  0.17820604216E+02 -0.15830795589E+03  0.16202167306E+03  0.00000000000E+00 0. -1.
</event>
<event>
 6    1  0.1726037E-005  0.4108642E+02  0.7818608E-02  0.1555263E+00
          2   -1    0    0  502    0  0.00000000000E+00  0.00000000000E+00  0.76939895023E+02  0.76939895023E+02  0.00000000000E+00 0.  1.
          1   -1    0    0  501    0 -0.00000000000E+00 -0.00000000000E+00 -0.60905824464E+03  0.60905824464E+03  0.00000000000E+00 0. -1.
          2    1    1    2  501    0  0.62261074887E+02  0.13316855141E+02  0.24969190563E+02  0.68390354249E+02  0.00000000000E+00 0.  1.
          1    1    1    2  502    0 -0.82100976333E+02  0.15238393778E+02 -0.43076459022E+03  0.43878344447E+03  0.00000000000E+00 0. -1.
         22    1    1    2    0    0 -0.33512390320E+01 -0.13106148704E+02  0.23130143285E+02  0.26795623995E+02  0.00000000000E+00 0.  1.
         22    1    1    2    0    0  0.23191140478E+02 -0.15449100215E+02 -0.14945309324E+03  0.15202871694E+03  0.00000000000E+00 0. -1.
</event>
<event>
 6    1  0.1726037E-005  0.9961859E+02  0.7818608E-02  0.1359589E+00
          2   -1    0    0  502    0  0.00000000000E+00  0.00000000000E+00  0.60459163331E+03  0.60459163331E+03  0.00000000000E+00 0. -1.
          1   -1    0    0  501    0 -0.00000000000E+00 -0.00000000000E+00 -0.10490005908E+03  0.10490005908E+03  0.00000000000E+00 0. -1.
          2    1    1    2  501    0 -0.78772530175E+02 -0.14141946226E+02  0.49549095870E+03  0.50191273774E+03  0.00000000000E+00 0. -1.
          1    1    1    2  502    0  0.69691927475E+02  0.27341317282E+01 -0.37530297662E+02  0.79202042108E+02  0.00000000000E+00 0. -1.
         22    1    1    2    0    0  0.26466537082E+02 -0.58451419367E+01 -0.37033180062E+02  0.45892261819E+02  0.00000000000E+00 0. -1.
         22    1    1    2    0    0 -0.17385934381E+02  0.17252956434E+02  0.78764093246E+02  0.82484650723E+02  0.00000000000E+00 0. -1.
</event>
<event>
 6    1  0.1726037E-005  0.3888185E+02  0.7818608E-02  0.1537870E+00
          2   -1    0    0  502    0  0.00000000000E+00  0.00000000000E+00  0.15333879272E+03  0.15333879272E+03  0.00000000000E+00 0.  1.
          1   -1    0    0  501    0 -0.00000000000E+00 -0.00000000000E+00 -0.76556113200E+02  0.76556113200E+02  0.00000000000E+00 0.  1.
          2    1    1    2  501    0 -0.17587362657E+02 -0.11751943227E+02 -0.15833733738E+02  0.26422161511E+02  0.00000000000E+00 0.  1.
          1    1    1    2  502    0  0.27554516514E+02  0.25777594569E+02 -0.15060778107E+02  0.40627119013E+02  0.00000000000E+00 0.  1.
         22    1    1    2    0    0  0.28916336064E+02  0.81472354306E+01 -0.14038466707E+02  0.33160375209E+02  0.00000000000E+00 0. -1.
         22    1    1    2    0    0 -0.38883489921E+02 -0.22172886773E+02  0.12171565808E+03  0.12968525019E+03  0.00000000000E+00 0.  1.
</event>
<event>
 6    1  0.1726037E-005  0.4917199E+02  0.7818608E-02  0.1453035E+00
          2   -1    0    0  502    0  0.00000000000E+00  0.00000000000E+00  0.11938523202E+03  0.11938523202E+03  0.00000000000E+00 0.  1.
          1   -1    0    0  501    0 -0.00000000000E+00 -0.00000000000E+00 -0.30848416242E+03  0.30848416242E+03  0.00000000000E+00 0.  1.
          2    1    1    2  501    0  0.35583186937E+02 -0.73575725174E+01  0.67677436840E+02  0.76814923831E+02  0.00000000000E+00 0.  1.
          1    1    1    2  502    0 -0.28369406912E+02  0.37969291952E+01 -0.22250627502E+03  0.22433965843E+03  0.00000000000E+00 0.  1.
         22    1    1    2    0    0 -0.16938337958E+02  0.51982463275E+00 -0.79021503268E+02  0.80818163114E+02  0.00000000000E+00 0. -1.
         22    1    1    2    0    0  0.97245579321E+01  0.30408186894E+01  0.44751411042E+02  0.45896649067E+02  0.00000000000E+00 0.  1.
</event>
<event>
 6    1  0.1726037E-005  0.8835908E+02  0.7818608E-02  0.1426840E+00
          2   -1    0    0  502    0  0.00000000000E+00  0.00000000000E+00  0.19769086715E+02  0.19769086715E+02  0.00000000000E+00 0. -1.
          1   -1    0    0  501    0 -0.00000000000E+00 -0.00000000000E+00 -0.96468207660E+03  0.96468207660E+03  0.00000000000E+00 0. -1.
          2    1    1    2  501    0 -0.25103677206E+02  0.63429226045E+01 -0.36934644161E+02  0.45106487513E+02  0.00000000000E+00 0. -1.
          1    1    1    2  502    0 -0.70884677002E+02 -0.25901651271E+02 -0.38817395643E+03  0.39544222514E+03  0.00000000000E+00 0. -1.
         22    1    1    2    0    0 -0.11918406325E+02  0.10485784715E+01  0.72260750349E+00  0.11986245774E+02  0.00000000000E+00 0. -1.
         22    1    1    2    0    0  0.10790676053E+03  0.18510150195E+02 -0.52052699680E+03  0.53191620489E+03  0.00000000000E+00 0. -1.
</event>
<event>
 6    1  0.1726037E-005  0.2089565E+02  0.7818608E-02  0.1775714E+00
          2   -1    0    0  502    0  0.00000000000E+00  0.00000000000E+00  0.13780427008E+03  0.13780427008E+03  0.00000000000E+00 0. -1.
          1   -1    0    0  501    0 -0.00000000000E+00 -0.00000000000E+00 -0.12808639902E+03  0.12808639902E+03  0.00000000000E+00 0.  1.
          2    1    1    2  501    0 -0.29266593736E+02  0.11754805632E+02  0.69879439830E+02  0.76667105562E+02  0.00000000000E+00 0. -1.
          1    1    1    2  502    0  0.25235735242E+02 -0.28559765243E+02 -0.42580227649E+02  0.57145238739E+02  0.00000000000E+00 0.  1.
         22    1    1    2    0    0  0.12451343293E+02 -0.16983445731E+01  0.55147766469E+02  0.56561439786E+02  0.00000000000E+00 0. -1.
         22    1    1    2    0    0 -0.84204847987E+01  0.18503304184E+02 -0.72729107590E+02  0.75516885005E+02  0.00000000000E+00 0.  1.
</event>
<event>
 6    1  0.1726037E-005  0.8685395E+02  0.7818608E-02  0.1375157E+00
          2   -1    0    0  502    0  0.00000000000E+00  0.00000000000E+00  0.13934407709E+03  0.13934407709E+03  0.00000000000E+00 0. -1.
          1   -1    0    0  501    0 -0.00000000000E+00 -0.00000000000E+00 -0.23093911290E+03  0.23093911290E+03  0.00000000000E+00 0. -1.
          2    1    1    2  501    0  0.72072360015E+02  0.62221664206E+02 -0.12671272532E+03  0.15849944899E+03  0.00000000000E+00 0. -1.
          1    1    1    2  502    0 -0.36074863368E+02  0.29477497826E+02  0.11137855699E+02  0.47899587416E+02  0.00000000000E+00 0. -1.
         22    1    1    2    0    0 -0.76029849514E+01 -0.88907807918E+02  0.67471159313E+02  0.11186939272E+03  0.00000000000E+00 0. -1.
         22    1    1    2    0    0 -0.28394511695E+02 -0.27913541136E+01 -0.43491325505E+02  0.52014760851E+02  0.00000000000E+00 0.  1.
</event>
<event>
 6    1  0.1726037E-005  0.1113283E+03  0.7818608E-02  0.1259528E+00
          2   -1    0    0  502    0  0.00000000000E+00  0.00000000000E+00  0.78816406858E+02  0.78816406858E+02  0.00000000000E+00 0.  1.
          1   -1    0    0  501    0 -0.00000000000E+00 -0.00000000000E+00 -0.33511701190E+03  0.33511701190E+03  0.00000000000E+00 0.  1.
          2    1    1    2  501    0 -0.56410646000E+02 -0.72063778060E+02  0.15859848036E+02  0.92881019967E+02  0.00000000000E+00 0.  1.
          1    1    1    2  502    0  0.27554780620E+02  0.24164503016E+02 -0.64482322311E+02  0.74169798649E+02  0.00000000000E+00 0.  1.
         22    1    1    2    0    0 -0.85009983686E+01 -0.13259845582E+02  0.93575577453E+01  0.18320872389E+02  0.00000000000E+00 0.  1.
         22    1    1    2    0    0  0.37356863749E+02  0.61159120626E+02 -0.21703568851E+03  0.22856172775E+03  0.00000000000E+00 0.  1.
</event>
<event>
 6    1  0.1726037E-005  0.4785383E+02  0.7818608E-02  0.1496525E+00
          2   -1    0    0  502    0  0.00000000000E+00  0.00000000000E+00  0.32706277210E+03  0.32706277210E+03  0.00000000000E+00 0. -1.
          1   -1    0    0  501    0 -0.00000000000E+00 -0.00000000000E+00 -0.23649131920E+03  0.23649131920E+03  0.00000000000E+00 0.  1.
          2    1    1    2  501    0 -0.21117525721E+02  0.50430844947E+02  0.14532716515E+03  0.15527139126E+03  0.00000000000E+00 0. -1.
          1    1    1    2  502    0  0.26463072984E+02 -0.16421435724E+02 -0.20735119547E+03  0.20967707563E+03  0.00000000000E+00 0.  1.
         22    1    1    2    0    0  0.24825899757E+02 -0.23566751875E+01 -0.12444908698E+02  0.27870324167E+02  0.00000000000E+00 0. -1.
         22    1    1    2    0    0 -0.30171447021E+02 -0.31652734035E+02  0.16504039191E+03  0.17073530024E+03  0.00000000000E+00 0. -1.
</event>
<event>
 6    1  0.1726037E-005  0.6210972E+02  0.7818608E-02  0.1390051E+00
          2   -1    0    0  502    0  0.00000000000E+00  0.00000000000E+00  0.16912365595E+03  0.16912365595E+03  0.00000000000E+00 0.  1.
          1   -1    0    0  501    0 -0.00000000000E+00 -0.00000000000E+00 -0.17141254895E+03  0.17141254895E+03  0.00000000000E+00 0. -1.
          2    1    1    2  501    0 -0.18612780613E+02 -0.31510218961E+02  0.11450792141E+03  0.12021394914E+03  0.00000000000E+00 0.  1.
          1    1    1    2  502    0  0.17263274046E+02  0.36228203346E+02 -0.80418605181E+02  0.89875777647E+02  0.00000000000E+00 0. -1.
         22    1    1    2    0    0 -0.40122784073E+01 -0.22695514818E+02  0.43050894739E+02  0.48832000867E+02  0.00000000000E+00 0. -1.
         22    1    1    2    0    0  0.53617849743E+01  0.17977530433E+02 -0.79429103973E+02  0.81614477248E+02  0.00000000000E+00 0. -1.
</event>
<event>
 6    1  0.1726037E-005  0.1397144E+03  0.7818608E-02  0.1327823E+00
          2   -1    0    0  502    0  0.00000000000E+00  0.00000000000E+00  0.97738749312E+02  0.97738749312E+02  0.00000000000E+00 0. -1.
          1   -1    0    0  501    0 -0.00000000000E+00 -0.00000000000E+00 -0.53808500325E+03  0.53808500325E+03  0.00000000000E+00 0. -1.
          2    1    1    2  501    0 -0.74136338755E+02 -0.10143317066E+03 -0.91645238741E+02  0.15551120416E+03  0.00000000000E+00 0. -1.
          1    1    1    2  502    0  0.80724117917E+02  0.97171370602E+02 -0.32902093721E+03  0.35243926512E+03  0.00000000000E+00 0. -1.
         22    1    1    2    0    0  0.48052832736E+01  0.14545230310E+02 -0.71864382684E+02  0.73478867511E+02  0.00000000000E+00 0.  1.
         22    1    1    2    0    0 -0.11393062436E+02 -0.10283430253E+02  0.52184304702E+02  0.54394415767E+02  0.00000000000E+00 0. -1.
</event>
<event>
 6    1  0.1726037E-005  0.3635176E+02  0.7818608E-02  0.1561216E+00
          2   -1    0    0  502    0  0.00000000000E+00  0.00000000000E+00  0.54999041402E+03  0.54999041402E+03  0.00000000000E+00 0.  1.
          1   -1    0    0  501    0 -0.00000000000E+00 -0.00000000000E+00 -0.17510241488E+03  0.17510241488E+03  0.00000000000E+00 0.  1.
          2    1    1    2  501    0  0.62171593633E+02  0.18432201348E+02  0.49131090332E+03  0.49557184829E+03  0.00000000000E+00 0.  1.
          1    1    1    2  502    0 -0.19796281231E+02 -0.31297417081E+02 -0.80937252908E+02  0.89007078229E+02  0.00000000000E+00 0.  1.
         22    1    1    2    0    0 -0.25121760933E+02  0.53093386145E+01 -0.84335978868E+02  0.88158092541E+02  0.00000000000E+00 0.  1.
         22    1    1    2    0    0 -0.17253551469E+02  0.75558771192E+01  0.48850327596E+02  0.52355809835E+02  0.00000000000E+00 0.  1.
</event>
<event>
 6    1  0.1726037E-005  0.7757570E+02  0.7818608E-02  0.1337374E+00
          2   -1    0    0  502    0  0.00000000000E+00  0.00000000000E+00  0.31682016616E+03  0.31682016616E+03  0.00000000000E+00 0. -1.
          1   -1    0    0  501    0 -0.00000000000E+00 -0.00000000000E+00 -0.29685042853E+03  0.29685042853E+03  0.00000000000E+00 0.  1.
          2    1    1    2  501    0 -0.84360960479E+02 -0.57096788136E+02  0.17958948159E+03  0.20646839169E+03  0.00000000000E+00 0. -1.
          1    1    1    2  502    0  0.74306553924E+01  0.62664489581E+02 -0.23347964927E+03  0.24185698153E+03  0.00000000000E+00 0.  1.
         22    1    1    2    0    0  0.73482426881E+02 -0.18769272468E+02  0.10605247034E+03  0.13038051662E+03  0.00000000000E+00 0.  1.
         22    1    1    2    0    0  0.34478782053E+01  0.13201571024E+02 -0.32192565037E+02  0.34964704851E+02  0.00000000000E+00 0.  1.
</event>
<event>
 6    1  0.1726037E-005  0.2868420E+02  0.7818608E-02  0.1635256E+00
          2   -1    0    0  502    0  0.00000000000E+00  0.00000000000E+00  0.52941743190E+02  0.52941743190E+02  0.00000000000E+00 0. -1.
          1   -1    0    0  501    0 -0.00000000000E+00 -0.00000000000E+00 -0.20952865782E+03  0.20952865782E+03  0.00000000000E+00 0. -1.
          2    1    1    2  501    0  0.31848626136E+02  0.76853825783E+01 -0.27582951402E+02  0.42827786543E+02  0.00000000000E+00 0. -1.
          1    1    1    2  502    0 -0.39161632941E+02 -0.13101323495E+02 -0.70002772733E+02  0.81275250613E+02  0.00000000000E+00 0. -1.
         22    1    1    2    0    0  0.21995463863E+02 -0.27142983920E+01  0.35793078351E+02  0.42098839701E+02  0.00000000000E+00 0. -1.
         22    1    1    2    0    0 -0.14682457058E+02  0.81302393082E+01 -0.94794268844E+02  0.96268524151E+02  0.00000000000E+00 0. -1.
</event>
<event>
 6    1  0.1726037E-005  0.6929954E+02  0.7818608E-02  0.1419886E+00
          2   -1    0    0  502    0  0.00000000000E+00  0.00000000000E+00  0.11741612191E+03  0.11741612191E+03  0.00000000000E+00 0.  1.
          1   -1    0    0  501    0 -0.00000000000E+00 -0.00000000000E+00 -0.23996639174E+03  0.23996639174E+03  0.00000000000E+00 0. -1.
          2    1    1    2  501    0  0.14815801570E+02  0.36264985622E+02  0.18657998772E+02  0.43390990730E+02  0.00000000000E+00 0.  1.
          1    1    1    2  502    0 -0.30415290088E+02 -0.46002496697E+02 -0.17767816828E+03  0.18603991791E+03  0.00000000000E+00 0. -1.
         22    1    1    2    0    0  0.90216629131E+01  0.26068427691E+02  0.78058782477E+02  0.82789654220E+02  0.00000000000E+00 0.  1.
         22    1    1    2    0    0  0.65778256052E+01 -0.16330916617E+02 -0.41588882802E+02  0.45161950799E+02  0.00000000000E+00 0. -1.
</event>
<event>
 6    1  0.1726037E-005  0.7345079E+02  0.7818608E-02  0.1357014E+00
          2   -1    0    0  502    0  0.00000000000E+00  0.00000000000E+00  0.18168131136E+02  0.18168131136E+02  0.00000000000E+00 0.  1.
          1   -1    0    0  501    0 -0.00000000000E+00 -0.00000000000E+00 -0.11426158039E+04  0.11426158039E+04  0.00000000000E+00 0.  1.
          2    1    1    2  501    0 -0.48958034468E+02  0.60415301009E+02 -0.57182593427E+03  0.57708907184E+03  0.00000000000E+00 0.  1.
          1    1    1    2  502    0  0.23400280034E+02 -0.56690370259E+01 -0.24652805205E+03  0.24770101238E+03  0.00000000000E+00 0.  1.
         22    1    1    2    0    0 -0.22681869362E+02 -0.59648730308E+02 -0.68973859292E+02  0.93967183052E+02  0.00000000000E+00 0.  1.
         22    1    1    2    0    0  0.48239623796E+02  0.49024663248E+01 -0.23711982717E+03  0.24202666778E+03  0.00000000000E+00 0.  1.
</event>
<event>
 6    1  0.1726037E-005  0.1729793E+03  0.7818608E-02  0.1242006E+00
          2   -1    0    0  502    0  0.00000000000E+00  0.00000000000E+00  0.67796673786E+02  0.67796673786E+02  0.00000000000E+00 0.  1.
          1   -1    0    0  501    0 -0.00000000000E+00 -0.00000000000E+00 -0.17423901478E+04  0.17423901478E+04  0.00000000000E+00 0.  1.
          2    1    1    2  501    0  0.16193936958E+03  0.13303887873E+02 -0.20614249596E+03  0.26248063070E+03  0.00000000000E+00 0.  1.
          1    1    1    2  502    0 -0.14500252874E+03 -0.52502439545E+02 -0.13720313836E+04  0.13806709807E+04  0.00000000000E+00 0.  1.
         22    1    1    2    0    0 -0.19622726048E+02 -0.16699737308E+01 -0.11875997519E+03  0.12038177561E+03  0.00000000000E+00 0. -1.
         22    1    1    2    0    0  0.26858852161E+01  0.40868525402E+02  0.22340380699E+02  0.46653434576E+02  0.00000000000E+00 0.  1.
</event>
<event>
 6    1  0.1726037E-005  0.8612855E+02  0.7818608E-02  0.1411426E+00
          2   -1    0    0  502    0  0.00000000000E+00  0.00000000000E+00  0.32166257349E+02  0.32166257349E+02  0.00000000000E+00 0. -1.
          1   -1    0    0  501    0 -0.00000000000E+00 -0.00000000000E+00 -0.62006267475E+03  0.62006267475E+03  0.00000000000E+00 0. -1.
          2    1    1    2  501    0  0.88816206427E+02 -0.96845290106E+01 -0.36345070712E+03  0.37427065759E+03  0.00000000000E+00 0. -1.
          1    1    1    2  502    0 -0.19924715739E+02 -0.70760361482E+01 -0.43558876272E+02  0.48419420556E+02  0.00000000000E+00 0. -1.
         22    1    1    2    0    0 -0.13586865579E+02  0.91478699332E+01  0.17190708335E+02  0.23744618204E+02  0.00000000000E+00 0. -1.
         22    1    1    2    0    0 -0.55304625109E+02  0.76126952256E+01 -0.19807754235E+03  0.20579423575E+03  0.00000000000E+00 0. -1.
</event>
<event>
 6    1  0.1726037E-005  0.2104124E+03  0.7818608E-02  0.1231159E+00
          2   -1    0    0  502    0  0.00000000000E+00  0.00000000000E+00  0.11826900075E+03  0.11826900075E+03  0.00000000000E+00 0. -1.
          1   -1    0    0  501    0 -0.00000000000E+00 -0.00000000000E+00 -0.48536002288E+03  0.48536002288E+03  0.00000000000E+00 0. -1.
          2    1    1    2  501    0  0.21259130610E+03  0.10772391556E+02 -0.12824879317E+03  0.24851330104E+03  0.00000000000E+00 0. -1.
          1    1    1    2  502    0 -0.64865011181E+02 -0.76750818023E+01 -0.44639377185E+02  0.79114161511E+02  0.00000000000E+00 0. -1.
         22    1    1    2    0    0 -0.18095006069E+02  0.21888492433E+02  0.12265251515E+02  0.30934959841E+02  0.00000000000E+00 0.  1.
         22    1    1    2    0    0 -0.12963128885E+03 -0.24985802187E+02 -0.20646810330E+03  0.24506660123E+03  0.00000000000E+00 0. -1.
</event>
<event>
 6    1  0.1726037E-005  0.1303267E+03  0.7818608E-02  0.1300508E+00
          2   -1    0    0  502    0  0.00000000000E+00  0.00000000000E+00  0.13944720730E+03  0.13944720730E+03  0.00000000000E+00 0.  1.
          1   -1    0    0  501    0 -0.00000000000E+00 -0.00000000000E+00 -0.37469100282E+03  0.37469100282E+03  0.00000000000E+00 0.  1.
          2    1    1    2  501    0 -0.84780654297E+02  0.72193997759E+02 -0.10328235399E+03  0.15187816598E+03  0.00000000000E+00 0.  1.
          1    1    1    2  502    0  0.81999423681E+02 -0.95900659677E+02 -0.18428467990E+03  0.22334208125E+03  0.00000000000E+00 0.  1.
         22    1    1    2    0    0 -0.11606128621E+02  0.28685400722E+02  0.91657512258E+02  0.96740136394E+02  0.00000000000E+00 0.  1.
         22    1    1    2    0    0  0.14387359236E+02 -0.49787388039E+01 -0.39334273890E+02  0.42177826500E+02  0.00000000000E+00 0.  1.
</event>
<event>
 6    1  0.1726037E-005  0.8513449E+02  0.7818608E-02  0.1384661E+00
          2   -1    0    0  502    0  0.00000000000E+00  0.00000000000E+00  0.14366099801E+03  0.14366099801E+03  0.00000000000E+00 0.  1.
          1   -1    0    0  501    0 -0.00000000000E+00 -0.00000000000E+00 -0.14621231741E+03  0.14621231741E+03  0.00000000000E+00 0.  1.
          2    1    1    2  501    0  0.27614660525E+02 -0.68460168997E+02  0.34016895877E+02  0.81280461490E+02  0.00000000000E+00 0.  1.
          1    1    1    2  502    0 -0.17846586660E+01  0.57588506635E+02 -0.52291845008E+02  0.77807828381E+02  0.00000000000E+00 0.  1.
         22    1    1    2    0    0 -0.20662027253E+02 -0.15690897818E+02  0.67526998601E+02  0.72339610067E+02  0.00000000000E+00 0. -1.
         22    1    1    2    0    0 -0.51679746059E+01  0.26562560180E+02 -0.51803368874E+02  0.58445415487E+02  0.00000000000E+00 0. -1.
</event>
<event>
 6    1  0.1726037E-005  0.3011063E+03  0.7818608E-02  0.1197476E+00
          2   -1    0    0  502    0  0.00000000000E+00  0.00000000000E+00  0.15680901646E+03  0.15680901646E+03  0.00000000000E+00 0. -1.
          1   -1    0    0  501    0 -0.00000000000E+00 -0.00000000000E+00 -0.61804725440E+03  0.61804725440E+03  0.00000000000E+00 0. -1.
          2    1    1    2  501    0  0.39403267500E+01  0.28100033797E+03 -0.21791206502E+03  0.35561550050E+03  0.00000000000E+00 0. -1.
          1    1    1    2  502    0  0.15908389651E+02 -0.15830830610E+03 -0.86446069738E+02  0.18107324379E+03  0.00000000000E+00 0. -1.
         22    1    1    2    0    0  0.36878825581E+01  0.19446914531E+02  0.60269263211E+01  0.20690741974E+02  0.00000000000E+00 0. -1.
         22    1    1    2    0    0 -0.23536598959E+02 -0.14213894640E+03 -0.16290702951E+03  0.21747678459E+03  0.00000000000E+00 0.  1.
</event>
<event>
 6    1  0.1726037E-005  0.8788806E+02  0.7818608E-02  0.1333854E+00
          2   -1    0    0  502    0  0.00000000000E+00  0.00000000000E+00  0.28105510698E+03  0.28105510698E+03  0.00000000000E+00 0.  1.
          1   -1    0    0  501    0 -0.00000000000E+00 -0.00000000000E+00 -0.35808659967E+03  0.35808659967E+03  0.00000000000E+00 0. -1.
          2    1    1    2  501    0  0.71762623570E+02 -0.10283806926E+03  0.19274042488E+03  0.22994437157E+03  0.00000000000E+00 0.  1.
          1    1    1    2  502    0 -0.75232526452E+01  0.65512423535E+02 -0.25581583011E+03  0.26417837894E+03  0.00000000000E+00 0. -1.
         22    1    1    2    0    0 -0.51307612578E+02  0.21048788793E+02  0.51902945951E+02  0.75956819420E+02  0.00000000000E+00 0.  1.
         22    1    1    2    0    0 -0.12931758347E+02  0.16276856931E+02 -0.65859033419E+02  0.69062136721E+02  0.00000000000E+00 0. -1.
</event>
<event>
 6    1  0.1726037E-005  0.7153936E+02  0.7818608E-02  0.1391065E+00
          2   -1    0    0  502    0  0.00000000000E+00  0.00000000000E+00  0.10766856845E+03  0.10766856845E+03  0.00000000000E+00 0. -1.
          1   -1    0    0  501    0 -0.00000000000E+00 -0.00000000000E+00 -0.60593025788E+03  0.60593025788E+03  0.00000000000E+00 0. -1.
          2    1    1    2  501    0  0.27584108243E+02  0.30720808856E+02 -0.44040588026E+03  0.44233696487E+03  0.00000000000E+00 0. -1.
          1    1    1    2  502    0 -0.35836231393E+02 -0.93406066607E+02  0.33996991217E+02  0.10566325838E+03  0.00000000000E+00 0. -1.
         22    1    1    2    0    0  0.28450403997E+02  0.92059119609E+02 -0.86624684806E+02  0.12956906656E+03  0.00000000000E+00 0. -1.
         22    1    1    2    0    0 -0.20198280847E+02 -0.29373861857E+02 -0.52281155820E+01  0.36029536524E+02  0.00000000000E+00 0. -1.
</event>
<event>
 6    1  0.1912702E-005  0.5102254E+02  0.7818608E-02  0.1492606E+00
          2   -1    0    0  502    0  0.00000000000E+00  0.00000000000E+00  0.26345068524E+03  0.26345068524E+03  0.00000000000E+00 0. -1.
          1   -1    0    0  501    0 -0.00000000000E+00 -0.00000000000E+00 -0.33601303726E+03  0.33601303726E+03  0.00000000000E+00 0. -1.
          2    1    1    2  501    0 -0.10214975935E+03 -0.36065182659E+02  0.17157130076E+03  0.20290880212E+03  0.00000000000E+00 0. -1.
          1    1    1    2  502    0  0.11302575776E+03  0.13160536728E+02 -0.24803858910E+03  0.27289405147E+03  0.00000000000E+00 0. -1.
         22    1    1    2    0    0 -0.16464199631E+02  0.14342693192E+02  0.61450220643E+02  0.65214356813E+02  0.00000000000E+00 0.  1.
         22    1    1    2    0    0  0.55882012215E+01  0.85619527390E+01 -0.57545284329E+02  0.58446512095E+02  0.00000000000E+00 0.  1.
</event>
<event>
 6    1  0.1726037E-005  0.8011498E+02  0.7818608E-02  0.1331080E+00
          2   -1    0    0  502    0  0.00000000000E+00  0.00000000000E+00  0.48660733308E+03  0.48660733308E+03  0.00000000000E+00 0.  1.
          1   -1    0    0  501    0 -0.00000000000E+00 -0.00000000000E+00 -0.77424014856E+02  0.77424014856E+02  0.00000000000E+00 0.  1.
          2    1    1    2  501    0 -0.28511523127E+00 -0.51538457851E+02  0.34614603361E+03  0.34996195581E+03  0.00000000000E+00 0.  1.
          1    1    1    2  502    0  0.70623378847E+01  0.34750767259E+02 -0.36694710336E+02  0.51029346539E+02  0.00000000000E+00 0.  1.
         22    1    1    2    0    0  0.98122848792E+01  0.38021183805E+02 -0.17326916576E+02  0.42919848445E+02  0.00000000000E+00 0.  1.
         22    1    1    2    0    0 -0.16589507533E+02 -0.21233493214E+02  0.11705891153E+03  0.12012019715E+03  0.00000000000E+00 0. -1.
</event>
<event>
 6    1  0.1726037E-005  0.1498852E+03  0.7818608E-02  0.1317557E+00
          2   -1    0    0  502    0  0.00000000000E+00  0.00000000000E+00  0.26598460997E+03  0.26598460997E+03  0.00000000000E+00 0.  1.
          1   -1    0    0  501    0 -0.00000000000E+00 -0.00000000000E+00 -0.54752092886E+03  0.54752092886E+03  0.00000000000E+00 0. -1.
          2    1    1    2  501    0 -0.13951965012E+03 -0.40833138162E+02  0.18932999452E+03  0.23870258643E+03  0.00000000000E+00 0.  1.
          1    1    1    2  502    0  0.11650199058E+03  0.36867921359E+02 -0.41632094111E+03  0.43388372110E+03  0.00000000000E+00 0. -1.
         22    1    1    2    0    0  0.20634351184E+02  0.18695476165E+02 -0.94369380076E+02  0.98391448682E+02  0.00000000000E+00 0.  1.
         22    1    1    2    0    0  0.23833083534E+01 -0.14730259363E+02  0.39824007775E+02  0.42527782623E+02  0.00000000000E+00 0. -1.
</event>
<event>
 6    1  0.1726037E-005  0.1532974E+03  0.7818608E-02  0.1314455E+00
          2   -1    0    0  502    0  0.00000000000E+00  0.00000000000E+00  0.14588746723E+03  0.14588746723E+03  0.00000000000E+00 0. -1.
          1   -1    0    0  501    0 -0.00000000000E+00 -0.00000000000E+00 -0.31493708118E+03  0.31493708118E+03  0.00000000000E+00 0. -1.
          2    1    1    2  501    0  0.15033157545E+02  0.94926082570E+02  0.22033657157E+02  0.98602429106E+02  0.00000000000E+00 0. -1.
          1    1    1    2  502    0 -0.52566705967E+02 -0.11791190303E+03 -0.18429237596E+03  0.22501145591E+03  0.00000000000E+00 0. -1.
         22    1    1    2    0    0  0.25935880949E+01 -0.14517691029E+02 -0.60910519771E+02  0.62670419424E+02  0.00000000000E+00 0. -1.
         22    1    1    2    0    0  0.34939960327E+02  0.37503511492E+02  0.54119624625E+02  0.74540243972E+02  0.00000000000E+00 0. -1.
</event>
<event>
 6    1  0.1726037E-005  0.3118708E+02  0.7818608E-02  0.1596553E+00
          2   -1    0    0  502    0  0.00000000000E+00  0.00000000000E+00  0.11803099671E+03  0.11803099671E+03  0.00000000000E+00 0.  1.
          1   -1    0    0  501    0 -0.00000000000E+00 -0.00000000000E+00 -0.13698192690E+03  0.13698192690E+03  0.00000000000E+00 0. -1.
          2    1    1    2  501    0 -0.39528244517E+02  0.21750145299E+02  0.94815576943E+01  0.46102612414E+02  0.00000000000E+00 0.  1.
          1    1    1    2  502    0  0.47549107419E+02 -0.22645219073E+02 -0.55466852505E+02  0.76487223051E+02  0.00000000000E+00 0. -1.
         22    1    1    2    0    0 -0.75768002339E+01  0.16825489307E+02  0.77414030449E+02  0.79582894535E+02  0.00000000000E+00 0. -1.
         22    1    1    2    0    0 -0.44406266883E+00 -0.15930415534E+02 -0.50379665831E+02  0.52840193602E+02  0.00000000000E+00 0. -1.
</event>
<event>
 6    1  0.1726037E-005  0.7094467E+02  0.7818608E-02  0.1443043E+00
          2   -1    0    0  502    0  0.00000000000E+00  0.00000000000E+00  0.50176527950E+03  0.50176527950E+03  0.00000000000E+00 0. -1.
          1   -1    0    0  501    0 -0.00000000000E+00 -0.00000000000E+00 -0.43473337641E+02  0.43473337641E+02  0.00000000000E+00 0. -1.
          2    1    1    2  501    0  0.30562637681E+02 -0.45771326792E+02  0.22825234889E+03  0.23479400322E+03  0.00000000000E+00 0. -1.
          1    1    1    2  502    0 -0.47486460972E+02  0.39716621714E+02  0.15189443070E+03  0.16402527883E+03  0.00000000000E+00 0. -1.
         22    1    1    2    0    0  0.17484052025E+02 -0.12048106809E+02  0.10877903616E+03  0.11083197942E+03  0.00000000000E+00 0.  1.
         22    1    1    2    0    0 -0.56022873330E+00  0.18102811886E+02 -0.30633873889E+02  0.35587355674E+02  0.00000000000E+00 0. -1.
</event>
<event>
 6    1  0.1726037E-005  0.3670363E+02  0.7818608E-02  0.1590223E+00
          2   -1    0    0  502    0  0.00000000000E+00  0.00000000000E+00  0.89835192241E+02  0.89835192241E+02  0.00000000000E+00 0.  1.
          1   -1    0    0  501    0 -0.00000000000E+00 -0.00000000000E+00 -0.37390708204E+03  0.37390708204E+03  0.00000000000E+00 0.  1.
          2    1    1    2  501    0  0.10183398621E+02  0.29985714199E+02  0.28692374019E+02  0.42732856099E+02  0.00000000000E+00 0.  1.
          1    1    1    2  502    0  0.26683775815E+02  0.19810770313E+02 -0.27882565417E+03  0.28079928051E+03  0.00000000000E+00 0.  1.
         22    1    1    2    0    0 -0.12434364629E+02 -0.13043684008E+02 -0.76682156191E+02  0.78771214250E+02  0.00000000000E+00 0.  1.
         22    1    1    2    0    0 -0.24432809806E+02 -0.36752800505E+02  0.42743546544E+02  0.61438923421E+02  0.00000000000E+00 0.  1.
</event>
<event>
 6    1  0.1726037E-005  0.5273876E+02  0.7818608E-02  0.1470993E+00
          2   -1    0    0  502    0  0.00000000000E+00  0.00000000000E+00  0.22560744731E+03  0.22560744731E+03  0.00000000000E+00 0.  1.
          1   -1    0    0  501    0 -0.00000000000E+00 -0.00000000000E+00 -0.12881327800E+03  0.12881327800E+03  0.00000000000E+00 0.  1.
          2    1    1    2  501    0 -0.16013234266E+02 -0.29171300161E+02  0.15803190700E+03  0.16149759148E+03  0.00000000000E+00 0.  1.
          1    1    1    2  502    0  0.31783703878E+02  0.15394855086E+02 -0.57760239014E+02  0.67701186151E+02  0.00000000000E+00 0.  1.
         22    1    1    2    0    0 -0.28346835774E+02  0.75042268905E+01  0.56480545559E+02  0.63638891774E+02  0.00000000000E+00 0.  1.
         22    1    1    2    0    0  0.12576366162E+02  0.62722181847E+01 -0.59958044229E+02  0.61583055905E+02  0.00000000000E+00 0.  1.
</event>
<event>
 6    1  0.1726037E-005  0.3168225E+02  0.7818608E-02  0.1626281E+00
          2   -1    0    0  502    0  0.00000000000E+00  0.00000000000E+00  0.50815055159E+02  0.50815055159E+02  0.00000000000E+00 0. -1.
          1   -1    0    0  501    0 -0.00000000000E+00 -0.00000000000E+00 -0.47155286650E+03  0.47155286650E+03  0.00000000000E+00 0. -1.
          2    1    1    2  501    0  0.46495433724E+02 -0.41884172109E+01 -0.13784586777E+02  0.48676308699E+02  0.00000000000E+00 0. -1.
          1    1    1    2  502    0 -0.35849847239E+02 -0.46336451660E+01 -0.31347323489E+03  0.31555055254E+03  0.00000000000E+00 0. -1.
         22    1    1    2    0    0 -0.27000055333E+01 -0.12464172705E+02  0.29994674768E+02  0.32593345111E+02  0.00000000000E+00 0. -1.
         22    1    1    2    0    0 -0.79455809526E+01  0.21286235082E+02 -0.12347466444E+03  0.12554771531E+03  0.00000000000E+00 0. -1.
</event>
<event>
 6    1  0.1726037E-005  0.5008378E+02  0.7818608E-02  0.1513918E+00
          2   -1    0    0  502    0  0.00000000000E+00  0.00000000000E+00  0.40194439723E+02  0.40194439723E+02  0.00000000000E+00 0. -1.
          1   -1    0    0  501    0 -0.00000000000E+00 -0.00000000000E+00 -0.30156424862E+03  0.30156424862E+03  0.00000000000E+00 0. -1.
          2    1    1    2  501    0  0.35640450877E+02 -0.18250696102E+02 -0.17609303645E+02  0.43742624770E+02  0.00000000000E+00 0. -1.
          1    1    1    2  502    0 -0.22714825468E+02  0.10879929758E+02 -0.12177467067E+03  0.12435194645E+03  0.00000000000E+00 0. -1.
         22    1    1    2    0    0  0.12744934830E+02  0.13905568302E+02  0.21010243412E+02  0.28235235467E+02  0.00000000000E+00 0. -1.
         22    1    1    2    0    0 -0.25670560239E+02 -0.65348019579E+01 -0.14299607799E+03  0.14542888166E+03  0.00000000000E+00 0. -1.
</event>
<event>
 6    1  0.1726037E-005  0.9793959E+02  0.7818608E-02  0.1284958E+00
          2   -1    0    0  502    0  0.00000000000E+00  0.00000000000E+00  0.89594701771E+02  0.89594701771E+02  0.00000000000E+00 0.  1.
          1   -1    0    0  501    0 -0.00000000000E+00 -0.00000000000E+00 -0.15819706425E+03  0.15819706425E+03  0.00000000000E+00 0.  1.
          2    1    1    2  501    0 -0.12157898402E+02  0.66920755253E+02  0.13325763746E+02  0.69309291993E+02  0.00000000000E+00 0.  1.
          1    1    1    2  502    0  0.95526690035E+01 -0.29715968006E+02 -0.16221382229E+02  0.35177059016E+02  0.00000000000E+00 0.  1.
         22    1    1    2    0    0 -0.10679973921E+02  0.23550985957E+02  0.23243416619E+02  0.34770205617E+02  0.00000000000E+00 0.  1.
         22    1    1    2    0    0  0.13285203320E+02 -0.60755773205E+02 -0.88950160613E+02  0.10853520939E+03  0.00000000000E+00 0. -1.
</event>
<event>
 6    1  0.1726037E-005  0.4549608E+02  0.7818608E-02  0.1481501E+00
          2   -1    0    0  502    0  0.00000000000E+00  0.00000000000E+00  0.21589582950E+03  0.21589582950E+03  0.00000000000E+00 0. -1.
          1   -1    0    0  501    0 -0.00000000000E+00 -0.00000000000E+00 -0.24882288773E+03  0.24882288773E+03  0.00000000000E+00 0. -1.
          2    1    1    2  501    0  0.11833590302E+02  0.57199221660E+02  0.12197517843E+03  0.13523952444E+03  0.00000000000E+00 0. -1.
          1    1    1    2  502    0 -0.23076778289E+02 -0.18459675544E+02 -0.19275809832E+03  0.19501020944E+03  0.00000000000E+00 0. -1.
         22    1    1    2    0    0 -0.11732948728E+02 -0.68016638715E+01 -0.42709031757E+02  0.44810558030E+02  0.00000000000E+00 0. -1.
         22    1    1    2    0    0  0.22976136716E+02 -0.31937882244E+02  0.80564893414E+02  0.89658425323E+02  0.00000000000E+00 0. -1.
</event>
<event>
 6    1  0.1726037E-005  0.1001681E+03  0.7818608E-02  0.1281455E+00
          2   -1    0    0  502    0  0.00000000000E+00  0.00000000000E+00  0.13356327453E+03  0.13356327453E+03  0.00000000000E+00 0. -1.
          1   -1    0    0  501    0 -0.00000000000E+00 -0.00000000000E+00 -0.25370254412E+03  0.25370254412E+03  0.00000000000E+00 0.  1.
          2    1    1    2  501    0 -0.43986719604E+02  0.20438842762E+02  0.55949889095E+02  0.74047065335E+02  0.00000000000E+00 0. -1.
          1    1    1    2  502    0  0.79207996100E+02 -0.51397575441E+01 -0.15897918412E+03  0.17769272562E+03  0.00000000000E+00 0.  1.
         22    1    1    2    0    0 -0.49475212710E+02 -0.13679466074E+02  0.47140643781E+02  0.69693362387E+02  0.00000000000E+00 0. -1.
         22    1    1    2    0    0  0.14253936214E+02 -0.16196191444E+01 -0.64250618349E+02  0.65832665311E+02  0.00000000000E+00 0. -1.
</event>
<event>
 6    1  0.1726037E-005  0.2418230E+02  0.7818608E-02  0.1704922E+00
          2   -1    0    0  502    0  0.00000000000E+00  0.00000000000E+00  0.13059599553E+03  0.13059599553E+03  0.00000000000E+00 0. -1.
          1   -1    0    0  501    0 -0.00000000000E+00 -0.00000000000E+00 -0.10694336205E+03  0.10694336205E+03  0.00000000000E+00 0. -1.
          2    1    1    2  501    0 -0.14162589468E+02 -0.26864733500E+02  0.31085380177E+02  0.43457953325E+02  0.00000000000E+00 0. -1.
          1    1    1    2  502    0  0.35153636856E+02  0.10571271321E+02 -0.48763488186E+02  0.61036118337E+02  0.00000000000E+00 0. -1.
         22    1    1    2    0    0 -0.53045531790E+01  0.10657933301E+02 -0.44266939343E+02  0.45839848881E+02  0.00000000000E+00 0. -1.
         22    1    1    2    0    0 -0.15686494209E+02  0.56355288779E+01  0.85597680832E+02  0.87205437044E+02  0.00000000000E+00 0. -1.
</event>
<event>
 6    1  0.1726037E-005  0.6959421E+02  0.7818608E-02  0.1442563E+00
          2   -1    0    0  502    0  0.00000000000E+00  0.00000000000E+00  0.16651344152E+03  0.16651344152E+03  0.00000000000E+00 0.  1.
          1   -1    0    0  501    0 -0.00000000000E+00 -0.00000000000E+00 -0.24562921973E+03  0.24562921973E+03  0.00000000000E+00 0.  1.
          2    1    1    2  501    0  0.18456801298E+02  0.20183195621E+02  0.12016654640E+03  0.12323965991E+03  0.00000000000E+00 0.  1.
          1    1    1    2  502    0  0.18508528357E+02 -0.70853108217E+02 -0.65595039928E+02  0.98312958602E+02  0.00000000000E+00 0.  1.
         22    1    1    2    0    0  0.18814718059E+02  0.44063482373E+01  0.15474287834E+02  0.24756072072E+02  0.00000000000E+00 0. -1.
         22    1    1    2    0    0 -0.55780047714E+02  0.46263564358E+02 -0.14916157252E+03  0.16583397067E+03  0.00000000000E+00 0. -1.
</event>
<event>
 6    1  0.1726037E-005  0.3404520E+02  0.7818608E-02  0.1560539E+00
          2   -1    0    0  502    0  0.00000000000E+00  0.00000000000E+00  0.59619164328E+02  0.59619164328E+02  0.00000000000E+00 0. -1.
          1   -1    0    0  501    0 -0.00000000000E+00 -0.00000000000E+00 -0.35688818074E+03  0.35688818074E+03  0.00000000000E+00 0. -1.
          2    1    1    2  501    0 -0.14741591265E+02  0.62320613280E+02 -0.69544839198E+01  0.64416909265E+02  0.00000000000E+00 0. -1.
          1    1    1    2  502    0  0.54182055265E+01 -0.51046053111E+02 -0.17940083186E+03  0.18660041522E+03  0.00000000000E+00 0. -1.
         22    1    1    2    0    0 -0.10599408921E+02 -0.21011503828E+02  0.21111648181E+02  0.31615383147E+02  0.00000000000E+00 0.  1.
         22    1    1    2    0    0  0.19922794660E+02  0.97369436593E+01 -0.13202534881E+03  0.13387463743E+03  0.00000000000E+00 0. -1.
</event>
<event>
 6    1  0.1726037E-005  0.9506069E+02  0.7818608E-02  0.1295744E+00
          2   -1    0    0  502    0  0.00000000000E+00  0.00000000000E+00  0.25526039219E+02  0.25526039219E+02  0.00000000000E+00 0. -1.
          1   -1    0    0  501    0 -0.00000000000E+00 -0.00000000000E+00 -0.98653379560E+03  0.98653379560E+03  0.00000000000E+00 0. -1.
          2    1    1    2  501    0  0.67651518992E+02 -0.19477130961E+02 -0.53499830780E+03  0.53961030013E+03  0.00000000000E+00 0. -1.
          1    1    1    2  502    0  0.28705504349E+02  0.33826422919E+02 -0.10027678189E+03  0.10965247764E+03  0.00000000000E+00 0. -1.
         22    1    1    2    0    0 -0.72275374245E+00  0.40342924117E+02 -0.15045786205E+03  0.15577433085E+03  0.00000000000E+00 0. -1.
         22    1    1    2    0    0 -0.95634269599E+02 -0.54692216075E+02 -0.17527480464E+03  0.20702272620E+03  0.00000000000E+00 0. -1.
</event>
<event>
 6    1  0.1726037E-005  0.6862716E+02  0.7818608E-02  0.1374582E+00
          2   -1    0    0  502    0  0.00000000000E+00  0.00000000000E+00  0.22000508817E+03  0.22000508817E+03  0.00000000000E+00 0. -1.
          1   -1    0    0  501    0 -0.00000000000E+00 -0.00000000000E+00 -0.31808055357E+03  0.31808055357E+03  0.00000000000E+00 0.  1.
          2    1    1    2  501    0  0.10434818337E+03 -0.63822729612E+02  0.85539284822E+02  0.14926102450E+03  0.00000000000E+00 0. -1.
          1    1    1    2  502    0 -0.84980495443E+02  0.64244127610E+02 -0.23047676227E+03  0.25390653888E+03  0.00000000000E+00 0.  1.
         22    1    1    2    0    0 -0.26875612811E+02 -0.34641373358E+02 -0.28167210925E+02  0.52112523287E+02  0.00000000000E+00 0.  1.
         22    1    1    2    0    0  0.75079248829E+01  0.34219975359E+02  0.75029222973E+02  0.82805555064E+02  0.00000000000E+00 0. -1.
</event>
<event>
 6    1  0.1726037E-005  0.1379810E+03  0.7818608E-02  0.1263187E+00
          2   -1    0    0  502    0  0.00000000000E+00  0.00000000000E+00  0.19562706539E+03  0.19562706539E+03  0.00000000000E+00 0. -1.
          1   -1    0    0  501    0 -0.00000000000E+00 -0.00000000000E+00 -0.26025385772E+03  0.26025385772E+03  0.00000000000E+00 0. -1.
          2    1    1    2  501    0  0.10719946752E+03 -0.45245787530E+02 -0.67063470895E+02  0.13429972545E+03  0.00000000000E+00 0. -1.
          1    1    1    2  502    0 -0.11437624318E+03  0.81689907900E+02 -0.83616506994E+02  0.16354475320E+03  0.00000000000E+00 0. -1.
         22    1    1    2    0    0  0.24500741360E+02 -0.46936906695E+02  0.11272840380E+03  0.12454337622E+03  0.00000000000E+00 0.  1.
         22    1    1    2    0    0 -0.17323965701E+02  0.10492786326E+02 -0.26675218242E+02  0.33493068249E+02  0.00000000000E+00 0. -1.
</event>
<event>
 6    1  0.1726037E-005  0.7603238E+02  0.7818608E-02  0.1435335E+00
          2   -1    0    0  502    0  0.00000000000E+00  0.00000000000E+00  0.74849391675E+02  0.74849391675E+02  0.00000000000E+00 0. -1.
          1   -1    0    0  501    0 -0.00000000000E+00 -0.00000000000E+00 -0.38066837975E+03  0.38066837975E+03  0.00000000000E+00 0. -1.
          2    1    1    2  501    0 -0.51495824070E+02 -0.50512504366E+02 -0.25317865956E+02  0.76448200309E+02  0.00000000000E+00 0. -1.
          1    1    1    2  502    0  0.52620363459E+02  0.25501843686E+02 -0.23473893572E+03  0.24191241106E+03  0.00000000000E+00 0. -1.
         22    1    1    2    0    0  0.11168496900E+02  0.13986362788E+02 -0.89047924342E+02  0.90828885806E+02  0.00000000000E+00 0. -1.
         22    1    1    2    0    0 -0.12293036288E+02  0.11024297892E+02  0.43285737946E+02  0.46328274247E+02  0.00000000000E+00 0. -1.
</event>
<event>
 6    1  0.3313237E-005  0.1095444E+03  0.7818608E-02  0.1373786E+00
          2   -1    0    0  502    0  0.00000000000E+00  0.00000000000E+00  0.73533711956E+02  0.73533711956E+02  0.00000000000E+00 0. -1.
          1   -1    0    0  501    0 -0.00000000000E+00 -0.00000000000E+00 -0.15095538390E+04  0.15095538390E+04  0.00000000000E+00 0. -1.
          2    1    1    2  501    0  0.53466363850E+02  0.18840053521E+02 -0.13286103868E+03  0.14444949041E+03  0.00000000000E+00 0. -1.
          1    1    1    2  502    0 -0.50895475725E+02 -0.13776521145E+02 -0.13122400869E+04  0.13132989712E+04  0.00000000000E+00 0. -1.
         22    1    1    2    0    0  0.99775198736E+01  0.10583424899E+02  0.64647467214E+02  0.66263525432E+02  0.00000000000E+00 0. -1.
         22    1    1    2    0    0 -0.12548407998E+02 -0.15646957275E+02 -0.55566468651E+02  0.59075563930E+02  0.00000000000E+00 0. -1.
</event>
<event>
 6    1  0.1726037E-005  0.5213128E+02  0.7818608E-02  0.1458642E+00
          2   -1    0    0  502    0  0.00000000000E+00  0.00000000000E+00  0.66370270949E+02  0.66370270949E+02  0.00000000000E+00 0.  1.
          1   -1    0    0  501    0 -0.00000000000E+00 -0.00000000000E+00 -0.59448377726E+03  0.59448377726E+03  0.00000000000E+00 0. -1.
          2    1    1    2  501    0  0.75015448401E+02  0.26307619608E+02 -0.30071401482E+02  0.84992338098E+02  0.00000000000E+00 0.  1.
          1    1    1    2  502    0 -0.27146773859E+02 -0.73917701750E+02 -0.39552050108E+03  0.40328307768E+03  0.00000000000E+00 0. -1.
         22    1    1    2    0    0 -0.34543661534E+02  0.21919149315E+02  0.20808125979E+02  0.45898712025E+02  0.00000000000E+00 0.  1.
         22    1    1    2    0    0 -0.13325013009E+02  0.25690932828E+02 -0.12332972972E+03  0.12667992041E+03  0.00000000000E+00 0. -1.
</event>
<event>
 6    1  0.1726037E-005  0.2155999E+03  0.7818608E-02  0.1269380E+00
          2   -1    0    0  502    0  0.00000000000E+00  0.00000000000E+00  0.28797376753E+03  0.28797376753E+03  0.00000000000E+00 0. -1.
          1   -1    0    0  501    0 -0.00000000000E+00 -0.00000000000E+00 -0.40637043298E+03  0.40637043298E+03  0.00000000000E+00 0.  1.
          2    1    1    2  501    0  0.14813079439E+03  0.14513359816E+03  0.17043654956E+03  0.26843083092E+03  0.00000000000E+00 0. -1.
          1    1    1    2  502    0 -0.99624370747E+02 -0.11724388037E+03 -0.23676122733E+03  0.28235973774E+03  0.00000000000E+00 0.  1.
         22    1    1    2    0    0 -0.58420024216E+02 -0.20603223339E+02 -0.86841423390E+02  0.10667157474E+03  0.00000000000E+00 0.  1.
         22    1    1    2    0    0  0.99136005697E+01 -0.72864944447E+01  0.34769435698E+02  0.36882057105E+02  0.00000000000E+00 0. -1.
</event>
<event>
 6    1  0.1726037E-005  0.1291568E+03  0.7818608E-02  0.1318551E+00
          2   -1    0    0  502    0  0.00000000000E+00  0.00000000000E+00  0.28413523293E+03  0.28413523293E+03  0.00000000000E+00 0. -1.
          1   -1    0    0  501    0 -0.00000000000E+00 -0.00000000000E+00 -0.12122681058E+03  0.12122681058E+03  0.00000000000E+00 0.  1.
          2    1    1    2  501    0  0.25150820092E+02 -0.73782444573E+02  0.19267967632E+03  0.20785059669E+03  0.00000000000E+00 0. -1.
          1    1    1    2  502    0 -0.22874140428E+02 -0.27679934670E+02 -0.56098639114E+01  0.36343853081E+02  0.00000000000E+00 0.  1.
         22    1    1    2    0    0 -0.20025867295E+02  0.86977936409E+02 -0.67663133007E+02  0.11200221583E+03  0.00000000000E+00 0.  1.
         22    1    1    2    0    0  0.17749187631E+02  0.14484442834E+02  0.43501742953E+02  0.49165377917E+02  0.00000000000E+00 0. -1.
</event>
<event>
 6    1  0.1726037E-005  0.3583310E+03  0.7818608E-02  0.1059690E+00
          2   -1    0    0  502    0  0.00000000000E+00  0.00000000000E+00  0.37032846849E+03  0.37032846849E+03  0.00000000000E+00 0.  1.
          1   -1    0    0  501    0 -0.00000000000E+00 -0.00000000000E+00 -0.90909621208E+03  0.90909621208E+03  0.00000000000E+00 0.  1.
          2    1    1    2  501    0  0.18788812576E+03  0.27771689336E+03  0.21543347577E+03  0.39854761716E+03  0.00000000000E+00 0.  1.
          1    1    1    2  502    0 -0.15745977670E+03 -0.23967470652E+03 -0.65434756101E+03  0.71442863662E+03  0.00000000000E+00 0.  1.
         22    1    1    2    0    0 -0.53095583176E+02 -0.39164199148E+02 -0.11945260116E+03  0.13646208034E+03  0.00000000000E+00 0.  1.
         22    1    1    2    0    0  0.22667234110E+02  0.11220123026E+01  0.19598942805E+02  0.29986346441E+02  0.00000000000E+00 0.  1.
</event>
<event>
 6    1  0.1726037E-005  0.6417818E+02  0.7818608E-02  0.1436519E+00
          2   -1    0    0  502    0  0.00000000000E+00  0.00000000000E+00  0.65877261974E+02  0.65877261974E+02  0.00000000000E+00 0.  1.
          1   -1    0    0  501    0 -0.00000000000E+00 -0.00000000000E+00 -0.32614313920E+03  0.32614313920E+03  0.00000000000E+00 0. -1.
          2    1    1    2  501    0  0.27197145965E+02  0.31142157670E+02  0.14022948579E+01  0.41370099877E+02  0.00000000000E+00 0.  1.
          1    1    1    2  502    0 -0.35698369618E+02 -0.33439431927E+02 -0.21448667506E+03  0.21999341576E+03  0.00000000000E+00 0. -1.
         22    1    1    2    0    0 -0.18458228982E+02  0.14885265572E+01 -0.83438078432E+02  0.85468326653E+02  0.00000000000E+00 0. -1.
         22    1    1    2    0    0  0.26959452635E+02  0.80874770000E+00  0.36256581402E+02  0.45188558886E+02  0.00000000000E+00 0.  1.
</event>
<event>
 6    1  0.1726037E-005  0.1058534E+03  0.7818608E-02  0.1394195E+00
          2   -1    0    0  502    0  0.00000000000E+00  0.00000000000E+00  0.16874357336E+03  0.16874357336E+03  0.00000000000E+00 0. -1.
          1   -1    0    0  501    0 -0.00000000000E+00 -0.00000000000E+00 -0.17563373740E+03  0.17563373740E+03  0.00000000000E+00 0. -1.
          2    1    1    2  501    0 -0.77733065158E+02  0.50951933556E+02  0.59617973771E+02  0.11042115625E+03  0.00000000000E+00 0. -1.
          1    1    1    2  502    0  0.49735924280E+02 -0.51826112733E+02 -0.81471654715E+02  0.10861509401E+03  0.00000000000E+00 0. -1.
         22    1    1    2    0    0  0.34677384812E+02 -0.85828117309E+01 -0.48831565464E+02  0.60503780545E+02  0.00000000000E+00 0. -1.
         22    1    1    2    0    0 -0.66802439352E+01  0.94569909083E+01  0.63795082368E+02  0.64837279943E+02  0.00000000000E+00 0. -1.
</event>
<event>
 6    1  0.1726037E-005  0.3516164E+02  0.7818608E-02  0.1592951E+00
          2   -1    0    0  502    0  0.00000000000E+00  0.00000000000E+00  0.77918388826E+02  0.77918388826E+02  0.00000000000E+00 0. -1.
          1   -1    0    0  501    0 -0.00000000000E+00 -0.00000000000E+00 -0.66460031208E+03  0.66460031208E+03  0.00000000000E+00 0. -1.
          2    1    1    2  501    0 -0.57800989442E+02  0.18634830267E+02 -0.41318935211E+02  0.73453833709E+02  0.00000000000E+00 0. -1.
          1    1    1    2  502    0  0.66073903526E+02 -0.28323215395E+02 -0.53903480055E+03  0.54380739371E+03  0.00000000000E+00 0. -1.
         22    1    1    2    0    0 -0.41258968997E+01 -0.10309515608E+02  0.57334024492E+02  0.58399482033E+02  0.00000000000E+00 0. -1.
         22    1    1    2    0    0 -0.41470171837E+01  0.19997900736E+02 -0.63662211993E+02  0.66857991453E+02  0.00000000000E+00 0. -1.
</event>
<event>
 6    1  0.1726037E-005  0.3245095E+02  0.7818608E-02  0.1612950E+00
          2   -1    0    0  502    0  0.00000000000E+00  0.00000000000E+00  0.77333138305E+02  0.77333138305E+02  0.00000000000E+00 0. -1.
          1   -1    0    0  501    0 -0.00000000000E+00 -0.00000000000E+00 -0.21093540103E+03  0.21093540103E+03  0.00000000000E+00 0. -1.
          2    1    1    2  501    0 -0.39805815360E+02  0.71190081011E+01  0.34565005760E+02  0.53197019052E+02  0.00000000000E+00 0. -1.
          1    1    1    2  502    0  0.40837074314E+02  0.31042475719E+01 -0.51834573017E+02  0.66061531555E+02  0.00000000000E+00 0. -1.
         22    1    1    2    0    0 -0.36366735096E+01 -0.25600810792E+02 -0.13906114811E+03  0.14144479426E+03  0.00000000000E+00 0.  1.
         22    1    1    2    0    0  0.26054145555E+01  0.15377555119E+02  0.22728452647E+02  0.27565194470E+02  0.00000000000E+00 0. -1.
</event>
<event>
 6    1  0.1726037E-005  0.5353845E+02  0.7818608E-02  0.1472983E+00
          2   -1    0    0  502    0  0.00000000000E+00  0.00000000000E+00  0.27025755491E+03  0.27025755491E+03  0.00000000000E+00 0.  1.
          1   -1    0    0  501    0 -0.00000000000E+00 -0.00000000000E+00 -0.14879869435E+03  0.14879869435E+03  0.00000000000E+00 0.  1.
          2    1    1    2  501    0 -0.15016704999E+02 -0.36674653502E+02  0.19057889034E+03  0.19465570909E+03  0.00000000000E+00 0.  1.
          1    1    1    2  502    0 -0.86440220809E+01  0.39957919173E+02 -0.90153539849E+02  0.98989975097E+02  0.00000000000E+00 0.  1.
         22    1    1    2    0    0  0.23081408658E+02 -0.14472248238E+02  0.70033606877E+02  0.75145881370E+02  0.00000000000E+00 0. -1.
         22    1    1    2    0    0  0.57931842258E+00  0.11188982567E+02 -0.49000096811E+02  0.50264683708E+02  0.00000000000E+00 0.  1.
</event>
<event>
 6    1  0.1726037E-005  0.1448070E+03  0.7818608E-02  0.1320987E+00
          2   -1    0    0  502    0  0.00000000000E+00  0.00000000000E+00  0.10413944403E+04  0.10413944403E+04  0.00000000000E+00 0. -1.
          1   -1    0    0  501    0 -0.00000000000E+00 -0.00000000000E+00 -0.19717156591E+03  0.19717156591E+03  0.00000000000E+00 0. -1.
          2    1    1    2  501    0 -0.56795753310E+02  0.14729667528E+03  0.97654082414E+03  0.98921890871E+03  0.00000000000E+00 0. -1.
          1    1    1    2  502    0  0.14166679468E+02 -0.14910670819E+02 -0.19683343220E+02  0.28468524931E+02  0.00000000000E+00 0. -1.
         22    1    1    2    0    0  0.27037987374E+01 -0.15326174947E+02  0.28957727525E+02  0.32874795049E+02  0.00000000000E+00 0.  1.
         22    1    1    2    0    0  0.39925275105E+02 -0.11705982951E+03 -0.14159233408E+03  0.18800377748E+03  0.00000000000E+00 0. -1.
</event>
<event>
 6    1  0.1726037E-005  0.7328918E+02  0.7818608E-02  0.1404767E+00
          2   -1    0    0  502    0  0.00000000000E+00  0.00000000000E+00  0.26404079720E+03  0.26404079720E+03  0.00000000000E+00 0.  1.
          1   -1    0    0  501    0 -0.00000000000E+00 -0.00000000000E+00 -0.18169106662E+03  0.18169106662E+03  0.00000000000E+00 0. -1.
          2    1    1    2  501    0 -0.18668979394E+02 -0.64976433218E+02  0.17951402269E+03  0.19182218852E+03  0.00000000000E+00 0.  1.
          1    1    1    2  502    0 -0.19339831590E+02  0.10391434055E+02 -0.11031689744E+03  0.11248034872E+03  0.00000000000E+00 0. -1.
         22    1    1    2    0    0  0.13741388204E+02  0.37805010351E+02 -0.54433876985E+02  0.67683761132E+02  0.00000000000E+00 0. -1.
         22    1    1    2    0    0  0.24267422780E+02  0.16779988812E+02  0.67586482309E+02  0.73745565452E+02  0.00000000000E+00 0.  1.
</event>
<event>
 6    1  0.1726037E-005  0.6755777E+02  0.7818608E-02  0.1394335E+00
          2   -1    0    0  502    0  0.00000000000E+00  0.00000000000E+00  0.45055540929E+03  0.45055540929E+03  0.00000000000E+00 0.  1.
          1   -1    0    0  501    0 -0.00000000000E+00 -0.00000000000E+00 -0.51236842893E+02  0.51236842893E+02  0.00000000000E+00 0. -1.
          2    1    1    2  501    0 -0.24530530966E+02  0.17011950752E+02  0.29887989075E+03  0.30036701302E+03  0.00000000000E+00 0.  1.
          1    1    1    2  502    0  0.21579066824E+01  0.25887996123E+02 -0.12524099658E+02  0.28839174342E+02  0.00000000000E+00 0. -1.
         22    1    1    2    0    0 -0.20445824896E+02 -0.39456702991E+02  0.12098346703E+03  0.12888701432E+03  0.00000000000E+00 0. -1.
         22    1    1    2    0    0  0.42818449180E+02 -0.34432438835E+01 -0.80206917231E+01  0.43699050497E+02  0.00000000000E+00 0. -1.
</event>
<event>
 6    1  0.1726037E-005  0.1319887E+03  0.7818608E-02  0.1325010E+00
          2   -1    0    0  502    0  0.00000000000E+00  0.00000000000E+00  0.18105516176E+03  0.18105516176E+03  0.00000000000E+00 0. -1.
          1   -1    0    0  501    0 -0.00000000000E+00 -0.00000000000E+00 -0.78326685858E+03  0.78326685858E+03  0.00000000000E+00 0.  1.
          2    1    1    2  501    0 -0.36454884978E+02  0.76165050466E+02  0.67980817418E+02  0.10840417468E+03  0.00000000000E+00 0. -1.
          1    1    1    2  502    0  0.59644785001E+02 -0.91414002369E+02 -0.70975671113E+03  0.71810069572E+03  0.00000000000E+00 0.  1.
         22    1    1    2    0    0 -0.44004725090E+00 -0.19127500697E+02 -0.42152678717E+02  0.46291502973E+02  0.00000000000E+00 0.  1.
         22    1    1    2    0    0 -0.22749852773E+02  0.34376452600E+02  0.81716875601E+02  0.91525646965E+02  0.00000000000E+00 0. -1.
</event>
<event>
 6    1  0.1726037E-005  0.1907095E+03  0.7818608E-02  0.1242761E+00
          2   -1    0    0  502    0  0.00000000000E+00  0.00000000000E+00  0.14274251393E+03  0.14274251393E+03  0.00000000000E+00 0. -1.
          1   -1    0    0  501    0 -0.00000000000E+00 -0.00000000000E+00 -0.43733557758E+03  0.43733557758E+03  0.00000000000E+00 0. -1.
          2    1    1    2  501    0  0.55089201290E+02  0.50415343015E+02  0.70391547674E+02  0.10262308168E+03  0.00000000000E+00 0. -1.
          1    1    1    2  502    0 -0.60352301586E+01 -0.66048563933E+02 -0.32771353046E+03  0.33435758530E+03  0.00000000000E+00 0. -1.
         22    1    1    2    0    0 -0.70056686445E+02  0.37193791536E+02 -0.64712075344E+02  0.10236684102E+03  0.00000000000E+00 0.  1.
         22    1    1    2    0    0  0.21002715314E+02 -0.21560570618E+02  0.27440994478E+02  0.40730583520E+02  0.00000000000E+00 0. -1.
</event>
<event>
 6    1  0.1726037E-005  0.6986563E+02  0.7818608E-02  0.1441912E+00
          2   -1    0    0  502    0  0.00000000000E+00  0.00000000000E+00  0.90320608400E+02  0.90320608400E+02  0.00000000000E+00 0. -1.
          1   -1    0    0  501    0 -0.00000000000E+00 -0.00000000000E+00 -0.17494903837E+03  0.17494903837E+03  0.00000000000E+00 0. -1.
          2    1    1    2  501    0  0.29033761839E+02  0.24423925770E+02 -0.39944007440E+00  0.37942680835E+02  0.00000000000E+00 0. -1.
          1    1    1    2  502    0 -0.23475440397E+02 -0.25487008794E+01 -0.96962762724E+02  0.99796640891E+02  0.00000000000E+00 0. -1.
         22    1    1    2    0    0 -0.16824059169E+02 -0.37528433952E+02 -0.48349261166E+02  0.63475061064E+02  0.00000000000E+00 0. -1.
         22    1    1    2    0    0  0.11265737727E+02  0.15653209061E+02  0.61083034000E+02  0.64055263976E+02  0.00000000000E+00 0. -1.
</event>
<event>
 6    1  0.1726037E-005  0.1374569E+03  0.7818608E-02  0.1229635E+00
          2   -1    0    0  502    0  0.00000000000E+00  0.00000000000E+00  0.78532846934E+03  0.78532846934E+03  0.00000000000E+00 0.  1.
          1   -1    0    0  501    0 -0.00000000000E+00 -0.00000000000E+00 -0.57177593037E+03  0.57177593037E+03  0.00000000000E+00 0.  1.
          2    1    1    2  501    0  0.83412996226E+02  0.11667137524E+03  0.70589919047E+03  0.72032187586E+03  0.00000000000E+00 0.  1.
          1    1    1    2  502    0  0.30402087045E+02 -0.89546733478E+02 -0.45302001023E+03  0.46278508407E+03  0.00000000000E+00 0.  1.
         22    1    1    2    0    0  0.79146069418E+01 -0.69734555759E+01 -0.49104091224E+02  0.50224315433E+02  0.00000000000E+00 0. -1.
         22    1    1    2    0    0 -0.12172969021E+03 -0.20151186186E+02  0.97774499574E+01  0.12377312435E+03  0.00000000000E+00 0. -1.
</event>
<event>
 6    1  0.1726037E-005  0.8574117E+02  0.7818608E-02  0.1390335E+00
          2   -1    0    0  502    0  0.00000000000E+00  0.00000000000E+00  0.21767291690E+03  0.21767291690E+03  0.00000000000E+00 0. -1.
          1   -1    0    0  501    0 -0.00000000000E+00 -0.00000000000E+00 -0.65101411634E+02  0.65101411634E+02  0.00000000000E+00 0.  1.
          2    1    1    2  501    0  0.65122238461E+02  0.24428138125E+02  0.39164644425E+02  0.79821734179E+02  0.00000000000E+00 0. -1.
          1    1    1    2  502    0 -0.32078339699E+02 -0.12841744911E+02  0.16304969668E+02  0.38207097849E+02  0.00000000000E+00 0.  1.
         22    1    1    2    0    0  0.23113791021E+02  0.17037898042E+01  0.10406814208E+03  0.10661767410E+03  0.00000000000E+00 0. -1.
         22    1    1    2    0    0 -0.56157689783E+02 -0.13290183018E+02 -0.69662509012E+01  0.58127822410E+02  0.00000000000E+00 0.  1.
</event>
<event>
 6    1  0.1726037E-005  0.4732679E+02  0.7818608E-02  0.1517757E+00
          2   -1    0    0  502    0  0.00000000000E+00  0.00000000000E+00  0.42302097023E+03  0.42302097023E+03  0.00000000000E+00 0. -1.
          1   -1    0    0  501    0 -0.00000000000E+00 -0.00000000000E+00 -0.18318425504E+03  0.18318425504E+03  0.00000000000E+00 0.  1.
          2    1    1    2  501    0 -0.50828695474E+01 -0.59628425463E+02  0.37043636234E+03  0.37523923467E+03  0.00000000000E+00 0. -1.
          1    1    1    2  502    0  0.11000698368E+02  0.29913197851E+02 -0.97369221725E+02  0.10245281894E+03  0.00000000000E+00 0.  1.
         22    1    1    2    0    0  0.59998303678E+01  0.12145894010E+02 -0.77892654719E+02  0.79061914756E+02  0.00000000000E+00 0.  1.
         22    1    1    2    0    0 -0.11917659189E+02  0.17569333602E+02  0.44662229289E+02  0.49451256898E+02  0.00000000000E+00 0.  1.
</event>
<event>
 6    1  0.1726037E-005  0.5532617E+02  0.7818608E-02  0.1522770E+00
          2   -1    0    0  502    0  0.00000000000E+00  0.00000000000E+00  0.96967401980E+02  0.96967401980E+02  0.00000000000E+00 0. -1.
          1   -1    0    0  501    0 -0.00000000000E+00 -0.00000000000E+00 -0.18152003654E+03  0.18152003654E+03  0.00000000000E+00 0. -1.
          2    1    1    2  501    0 -0.26309746055E+02  0.36643938461E+02  0.38749968581E+02  0.59468824004E+02  0.00000000000E+00 0. -1.
          1    1    1    2  502    0  0.24856464369E+02 -0.25530986681E+02 -0.83920419103E+02  0.91171880776E+02  0.00000000000E+00 0. -1.
         22    1    1    2    0    0 -0.12414170927E+02  0.57004777015E+00  0.42345650533E+02  0.44131516101E+02  0.00000000000E+00 0. -1.
         22    1    1    2    0    0  0.13867452613E+02 -0.11682999550E+02 -0.81727834573E+02  0.83715217640E+02  0.00000000000E+00 0.  1.
</event>
<event>
 6    1  0.1726037E-005  0.7027186E+02  0.7818608E-02  0.1479201E+00
          2   -1    0    0  502    0  0.00000000000E+00  0.00000000000E+00  0.94629280430E+02  0.94629280430E+02  0.00000000000E+00 0. -1.
          1   -1    0    0  501    0 -0.00000000000E+00 -0.00000000000E+00 -0.11704090847E+03  0.11704090847E+03  0.00000000000E+00 0. -1.
          2    1    1    2  501    0  0.44289213338E+02  0.13659811400E+01 -0.10029204007E+02  0.45431104494E+02  0.00000000000E+00 0. -1.
          1    1    1    2  502    0 -0.16725988454E+02 -0.25844721105E+02 -0.23693434405E+02  0.38846970701E+02  0.00000000000E+00 0. -1.
         22    1    1    2    0    0  0.98273315421E+01  0.50075757478E+01  0.61137544229E+02  0.62124484501E+02  0.00000000000E+00 0. -1.
         22    1    1    2    0    0 -0.37390556426E+02  0.19471164217E+02 -0.49826533856E+02  0.65267629204E+02  0.00000000000E+00 0. -1.
</event>
<event>
 6    1  0.1726037E-005  0.1463498E+03  0.7818608E-02  0.1342214E+00
          2   -1    0    0  502    0  0.00000000000E+00  0.00000000000E+00  0.20837573057E+03  0.20837573057E+03  0.00000000000E+00 0. -1.
          1   -1    0    0  501    0 -0.00000000000E+00 -0.00000000000E+00 -0.14129483007E+03  0.14129483007E+03  0.00000000000E+00 0. -1.
          2    1    1    2  501    0 -0.39625639000E+02 -0.56863447693E+02  0.13150682843E+03  0.14865291411E+03  0.00000000000E+00 0. -1.
          1    1    1    2  502    0 -0.25050186209E+02  0.63727273816E+01  0.19444496412E+02  0.32345199398E+02  0.00000000000E+00 0. -1.
         22    1    1    2    0    0  0.16811277698E+01 -0.10249813821E+02  0.26124837450E+02  0.28113911249E+02  0.00000000000E+00 0.  1.
         22    1    1    2    0    0  0.62994697439E+02  0.60740534132E+02 -0.10999526180E+03  0.14055853588E+03  0.00000000000E+00 0. -1.
</event>
<event>
 6    1  0.1726037E-005  0.2833496E+02  0.7818608E-02  0.1620354E+00
          2   -1    0    0  502    0  0.00000000000E+00  0.00000000000E+00  0.13237194616E+04  0.13237194616E+04  0.00000000000E+00 0.  1.
          1   -1    0    0  501    0 -0.00000000000E+00 -0.00000000000E+00 -0.54086806126E+02  0.54086806126E+02  0.00000000000E+00 0.  1.
          2    1    1    2  501    0  0.94098472659E+01 -0.49997976722E+02  0.11801048480E+04  0.11812009969E+04  0.00000000000E+00 0.  1.
          1    1    1    2  502    0 -0.10457918488E+02  0.48659355895E+02  0.35177191193E+02  0.60946991357E+02  0.00000000000E+00 0.  1.
         22    1    1    2    0    0 -0.14128899296E+02 -0.82201146179E+01 -0.38113335540E+02  0.41470741803E+02  0.00000000000E+00 0.  1.
         22    1    1    2    0    0  0.15176970518E+02  0.95587354448E+01  0.92463951831E+02  0.94187537634E+02  0.00000000000E+00 0.  1.
</event>
<event>
 6    1  0.1726037E-005  0.3761340E+03  0.7818608E-02  0.1166894E+00
          2   -1    0    0  502    0  0.00000000000E+00  0.00000000000E+00  0.54464977788E+03  0.54464977788E+03  0.00000000000E+00 0. -1.
          1   -1    0    0  501    0 -0.00000000000E+00 -0.00000000000E+00 -0.54002170007E+03  0.54002170007E+03  0.00000000000E+00 0. -1.
          2    1    1    2  501    0  0.17758757463E+02  0.34898051314E+03 -0.36784297373E+03  0.50735709845E+03  0.00000000000E+00 0. -1.
          1    1    1    2  502    0 -0.58426323001E+02 -0.25908507371E+03  0.15555622956E+03  0.30779287060E+03  0.00000000000E+00 0. -1.
         22    1    1    2    0    0 -0.15706840318E+02  0.12611348489E+02  0.10740507362E+03  0.10927763167E+03  0.00000000000E+00 0.  1.
         22    1    1    2    0    0  0.56374405855E+02 -0.10250678792E+03  0.10950974836E+03  0.16024387723E+03  0.00000000000E+00 0. -1.
</event>
<event>
 6    1  0.1726037E-005  0.1223725E+03  0.7818608E-02  0.1368193E+00
          2   -1    0    0  502    0  0.00000000000E+00  0.00000000000E+00  0.76025584411E+02  0.76025584411E+02  0.00000000000E+00 0. -1.
          1   -1    0    0  501    0 -0.00000000000E+00 -0.00000000000E+00 -0.57342494097E+03  0.57342494097E+03  0.00000000000E+00 0. -1.
          2    1    1    2  501    0  0.71163725709E+02  0.90631504235E+02 -0.82909025353E+02  0.14195862743E+03  0.00000000000E+00 0. -1.
          1    1    1    2  502    0 -0.71561826118E+02 -0.76169771611E+02 -0.35736645741E+03  0.37233548575E+03  0.00000000000E+00 0. -1.
         22    1    1    2    0    0 -0.11045545775E+02 -0.14574617721E+02 -0.94404175004E+02  0.96159096405E+02  0.00000000000E+00 0.  1.
         22    1    1    2    0    0  0.11443646185E+02  0.11288509702E+00  0.37280301211E+02  0.38997315797E+02  0.00000000000E+00 0.  1.
</event>
<event>
 6    1  0.1726037E-005  0.5986522E+02  0.7818608E-02  0.1426746E+00
          2   -1    0    0  502    0  0.00000000000E+00  0.00000000000E+00  0.20513678923E+03  0.20513678923E+03  0.00000000000E+00 0.  1.
          1   -1    0    0  501    0 -0.00000000000E+00 -0.00000000000E+00 -0.48300259330E+02  0.48300259330E+02  0.00000000000E+00 0. -1.
          2    1    1    2  501    0  0.34589316213E+02 -0.24568122741E+02  0.39359384549E+02  0.57872053732E+02  0.00000000000E+00 0.  1.
          1    1    1    2  502    0 -0.94557117096E+00  0.25821435711E+02  0.71195491669E+01  0.26801653445E+02  0.00000000000E+00 0. -1.
         22    1    1    2    0    0 -0.89794094720E+01 -0.37464133057E+02  0.11814176538E+03  0.12426450735E+03  0.00000000000E+00 0.  1.
         22    1    1    2    0    0 -0.24664335570E+02  0.36210820087E+02 -0.77841691924E+01  0.44498834035E+02  0.00000000000E+00 0. -1.
</event>
<event>
 6    1  0.1726037E-005  0.1167888E+03  0.7818608E-02  0.1248858E+00
          2   -1    0    0  502    0  0.00000000000E+00  0.00000000000E+00  0.33287739833E+03  0.33287739833E+03  0.00000000000E+00 0. -1.
          1   -1    0    0  501    0 -0.00000000000E+00 -0.00000000000E+00 -0.78640600448E+02  0.78640600448E+02  0.00000000000E+00 0. -1.
          2    1    1    2  501    0 -0.21357937803E+02  0.80469796191E+02  0.19721060070E+03  0.21406440768E+03  0.00000000000E+00 0. -1.
          1    1    1    2  502    0 -0.51025604024E+01 -0.49735723283E+02 -0.10084913428E+02  0.51003762331E+02  0.00000000000E+00 0. -1.
         22    1    1    2    0    0  0.48916613409E+01  0.32270779777E+02  0.72630113259E+02  0.79627036427E+02  0.00000000000E+00 0. -1.
         22    1    1    2    0    0  0.21568836865E+02 -0.63004852685E+02 -0.55190026535E+01  0.66822792338E+02  0.00000000000E+00 0. -1.
</event>
<event>
 6    1  0.1726037E-005  0.9627295E+02  0.7818608E-02  0.1416104E+00
          2   -1    0    0  502    0  0.00000000000E+00  0.00000000000E+00  0.99305533757E+03  0.99305533757E+03  0.00000000000E+00 0.  1.
          1   -1    0    0  501    0 -0.00000000000E+00 -0.00000000000E+00 -0.11631041456E+03  0.11631041456E+03  0.00000000000E+00 0. -1.
          2    1    1    2  501    0  0.88346150020E+02  0.21801414223E+02  0.92359969100E+03  0.92807151292E+03  0.00000000000E+00 0.  1.
          1    1    1    2  502    0 -0.26459876331E+02 -0.16105701052E+02 -0.18177764211E+02  0.35915870775E+02  0.00000000000E+00 0. -1.
         22    1    1    2    0    0 -0.62979733066E+02  0.51561597283E+01 -0.74837202157E+02  0.97947126486E+02  0.00000000000E+00 0. -1.
         22    1    1    2    0    0  0.10934593779E+01 -0.10851872899E+02  0.46160198378E+02  0.47431241953E+02  0.00000000000E+00 0.  1.
</event>
<event>
 6    1  0.1726037E-005  0.9286964E+02  0.7818608E-02  0.1320898E+00
          2   -1    0    0  502    0  0.00000000000E+00  0.00000000000E+00  0.38589188845E+02  0.38589188845E+02  0.00000000000E+00 0.  1.
          1   -1    0    0  501    0 -0.00000000000E+00 -0.00000000000E+00 -0.53052978255E+03  0.53052978255E+03  0.00000000000E+00 0.  1.
          2    1    1    2  501    0 -0.67808928019E+02  0.62048344076E+02 -0.30488688136E+03  0.31844003855E+03  0.00000000000E+00 0.  1.
          1    1    1    2  502    0  0.19571773031E+02 -0.16221423432E+02 -0.38229392952E+02  0.45909425647E+02  0.00000000000E+00 0.  1.
         22    1    1    2    0    0 -0.20352486097E+02 -0.55475410827E+02 -0.27750027515E+02  0.65282531537E+02  0.00000000000E+00 0.  1.
         22    1    1    2    0    0  0.68589641086E+02  0.96484901830E+01 -0.12107429187E+03  0.13948697566E+03  0.00000000000E+00 0.  1.
</event>
<event>
 6    1  0.1726037E-005  0.4940345E+02  0.7818608E-02  0.1490930E+00
          2   -1    0    0  502    0  0.00000000000E+00  0.00000000000E+00  0.32966447601E+03  0.32966447601E+03  0.00000000000E+00 0. -1.
          1   -1    0    0  501    0 -0.00000000000E+00 -0.00000000000E+00 -0.82749431027E+02  0.82749431027E+02  0.00000000000E+00 0.  1.
          2    1    1    2  501    0  0.39799466968E+02 -0.20104396239E+02  0.19031750629E+03  0.19547106568E+03  0.00000000000E+00 0. -1.
          1    1    1    2  502    0 -0.19865111890E+02 -0.67103797822E+01 -0.45091660152E+02  0.49728358936E+02  0.00000000000E+00 0.  1.
         22    1    1    2    0    0  0.64119267587E+01  0.26151609969E+02  0.12750819343E+03  0.13032021678E+03  0.00000000000E+00 0.  1.
         22    1    1    2    0    0 -0.26346281838E+02  0.66316605188E+00 -0.25818994584E+02  0.36894265641E+02  0.00000000000E+00 0.  1.
</event>
<event>
 6    1  0.1726037E-005  0.1466655E+03  0.7818608E-02  0.1278649E+00
          2   -1    0    0  502    0  0.00000000000E+00  0.00000000000E+00  0.29839706574E+03  0.29839706574E+03  0.00000000000E+00 0. -1.
          1   -1    0    0  501    0 -0.00000000000E+00 -0.00000000000E+00 -0.10698425323E+03  0.10698425323E+03  0.00000000000E+00 0.  1.
          2    1    1    2  501    0  0.98655122046E+02 -0.72623910614E+02  0.10974399538E+03  0.16447130455E+03  0.00000000000E+00 0. -1.
          1    1    1    2  502    0 -0.85927834171E+02  0.27061050579E+02  0.26447643287E+02  0.93890207046E+02  0.00000000000E+00 0.  1.
         22    1    1    2    0    0 -0.42885162142E+02  0.32903511651E+02 -0.25616394762E+02  0.59816200911E+02  0.00000000000E+00 0.  1.
         22    1    1    2    0    0  0.30157874266E+02  0.12659348384E+02  0.80837568603E+02  0.87203606459E+02  0.00000000000E+00 0. -1.
</event>
<event>
 6    1  0.1726037E-005  0.4956950E+02  0.7818608E-02  0.1483875E+00
          2   -1    0    0  502    0  0.00000000000E+00  0.00000000000E+00  0.15006577797E+03  0.15006577797E+03  0.00000000000E+00 0.  1.
          1   -1    0    0  501    0 -0.00000000000E+00 -0.00000000000E+00 -0.24361100435E+03  0.24361100435E+03  0.00000000000E+00 0.  1.
          2    1    1    2  501    0 -0.20707804765E+02  0.73739925895E+01  0.54791548797E+02  0.59036452845E+02  0.00000000000E+00 0.  1.
          1    1    1    2  502    0  0.15042299444E+02 -0.45081561838E+02 -0.19176282359E+03  0.19756416300E+03  0.00000000000E+00 0.  1.
         22    1    1    2    0    0  0.23967365100E+02  0.17062119218E+02 -0.39744619791E+02  0.49448814995E+02  0.00000000000E+00 0. -1.
         22    1    1    2    0    0 -0.18301859780E+02  0.20645450031E+02  0.83170668203E+02  0.87627351482E+02  0.00000000000E+00 0.  1.
</event>
<event>
 6    1  0.1726037E-005  0.4247489E+02  0.7818608E-02  0.1522202E+00
          2   -1    0    0  502    0  0.00000000000E+00  0.00000000000E+00  0.18417879982E+03  0.18417879982E+03  0.00000000000E+00 0.  1.
          1   -1    0    0  501    0 -0.00000000000E+00 -0.00000000000E+00 -0.78535151840E+02  0.78535151840E+02  0.00000000000E+00 0. -1.
          2    1    1    2  501    0 -0.11242359287E+02  0.23676855075E+02  0.59267093621E+02  0.64804108627E+02  0.00000000000E+00 0.  1.
          1    1    1    2  502    0  0.27474042988E+02 -0.95970401185E+01 -0.36894927826E+02  0.46991083372E+02  0.00000000000E+00 0. -1.
         22    1    1    2    0    0 -0.27286118738E+02 -0.46112657220E+01  0.11379021292E+03  0.11710682561E+03  0.00000000000E+00 0.  1.
         22    1    1    2    0    0  0.11054435037E+02 -0.94685492346E+01 -0.30518730737E+02  0.33811934053E+02  0.00000000000E+00 0. -1.
</event>
<event>
 6    1  0.1726037E-005  0.3890658E+02  0.7818608E-02  0.1545381E+00
          2   -1    0    0  502    0  0.00000000000E+00  0.00000000000E+00  0.85700209482E+02  0.85700209482E+02  0.00000000000E+00 0.  1.
          1   -1    0    0  501    0 -0.00000000000E+00 -0.00000000000E+00 -0.24012499450E+03  0.24012499450E+03  0.00000000000E+00 0. -1.
          2    1    1    2  501    0 -0.22087489376E+02 -0.88724380952E+01  0.36758176404E+02  0.43792018420E+02  0.00000000000E+00 0.  1.
          1    1    1    2  502    0  0.14026015630E+02  0.23468690081E+02 -0.14371620840E+03  0.14629373563E+03  0.00000000000E+00 0. -1.
         22    1    1    2    0    0 -0.14228595916E+02 -0.15256057144E+00  0.40985539181E+02  0.43385373554E+02  0.00000000000E+00 0.  1.
         22    1    1    2    0    0  0.22290069662E+02 -0.14443691415E+02 -0.88452292204E+02  0.92354076376E+02  0.00000000000E+00 0. -1.
</event>
<event>
 6    1  0.1726037E-005  0.3048734E+02  0.7818608E-02  0.1618958E+00
          2   -1    0    0  502    0  0.00000000000E+00  0.00000000000E+00  0.71622253953E+02  0.71622253953E+02  0.00000000000E+00 0.  1.
          1   -1    0    0  501    0 -0.00000000000E+00 -0.00000000000E+00 -0.56714052881E+03  0.56714052881E+03  0.00000000000E+00 0.  1.
          2    1    1    2  501    0 -0.54558323064E+02 -0.14985479429E+02  0.21828107675E+02  0.60643561026E+02  0.00000000000E+00 0.  1.
          1    1    1    2  502    0  0.15313823859E+02  0.18371993429E+02 -0.40782452818E+03  0.40852526131E+03  0.00000000000E+00 0.  1.
         22    1    1    2    0    0  0.22283513973E+02 -0.70383003294E+01 -0.13596973643E+03  0.13796326283E+03  0.00000000000E+00 0.  1.
         22    1    1    2    0    0  0.16960985232E+02  0.36517863287E+01  0.26447882082E+02  0.31630697590E+02  0.00000000000E+00 0. -1.
</event>
<event>
 6    1  0.1726037E-005  0.7155590E+02  0.7818608E-02  0.1414747E+00
          2   -1    0    0  502    0  0.00000000000E+00  0.00000000000E+00  0.29798675154E+03  0.29798675154E+03  0.00000000000E+00 0. -1.
          1   -1    0    0  501    0 -0.00000000000E+00 -0.00000000000E+00 -0.25811599759E+03  0.25811599759E+03  0.00000000000E+00 0. -1.
          2    1    1    2  501    0 -0.22893953931E+02 -0.14540819571E+03  0.18132354066E+03  0.23355064313E+03  0.00000000000E+00 0. -1.
          1    1    1    2  502    0  0.69707837782E+02  0.13452787126E+03 -0.11397819607E+03  0.18959947250E+03  0.00000000000E+00 0. -1.
         22    1    1    2    0    0 -0.11952669945E+02  0.60914320398E+01  0.47913665446E+02  0.49756318188E+02  0.00000000000E+00 0. -1.
         22    1    1    2    0    0 -0.34861213906E+02  0.47888924104E+01 -0.75388256085E+02  0.83196315309E+02  0.00000000000E+00 0.  1.
</event>
<event>
 6    1  0.1726037E-005  0.1239467E+03  0.7818608E-02  0.1287332E+00
          2   -1    0    0  502    0  0.00000000000E+00  0.00000000000E+00  0.28887506301E+02  0.28887506301E+02  0.00000000000E+00 0. -1.
          1   -1    0    0  501    0 -0.00000000000E+00 -0.00000000000E+00 -0.11279114918E+04  0.11279114918E+04  0.00000000000E+00 0.  1.
          2    1    1    2  501    0 -0.12473990941E+03 -0.83443451176E+02 -0.40134634292E+03  0.42848773788E+03  0.00000000000E+00 0. -1.
          1    1    1    2  502    0  0.19115808067E+02 -0.59628348755E+01 -0.13437646449E+03  0.13586023600E+03  0.00000000000E+00 0.  1.
         22    1    1    2    0    0  0.74163826796E+02  0.55884221231E+02 -0.52341084636E+03  0.53158464376E+03  0.00000000000E+00 0.  1.
         22    1    1    2    0    0  0.31460274546E+02  0.33522064820E+02 -0.39890331720E+02  0.60866380450E+02  0.00000000000E+00 0.  1.
</event>
<event>
 6    1  0.1726037E-005  0.7211155E+02  0.7818608E-02  0.1431683E+00
          2   -1    0    0  502    0  0.00000000000E+00  0.00000000000E+00  0.95204472747E+02  0.95204472747E+02  0.00000000000E+00 0. -1.
          1   -1    0    0  501    0 -0.00000000000E+00 -0.00000000000E+00 -0.19600962967E+03  0.19600962967E+03  0.00000000000E+00 0.  1.
          2    1    1    2  501    0 -0.22740310149E+02  0.31462580179E+02  0.33640179262E+02  0.51368057370E+02  0.00000000000E+00 0. -1.
          1    1    1    2  502    0 -0.39303007914E+01  0.24245235586E+02 -0.89063865699E+02  0.92388586341E+02  0.00000000000E+00 0.  1.
         22    1    1    2    0    0 -0.60476053350E+00 -0.20441685102E+02  0.43474318687E+02  0.48044194346E+02  0.00000000000E+00 0. -1.
         22    1    1    2    0    0  0.27275371474E+02 -0.35266130663E+02 -0.88855789168E+02  0.99413264354E+02  0.00000000000E+00 0. -1.
</event>
<event>
 6    1  0.1726037E-005  0.3695943E+02  0.7818608E-02  0.1578738E+00
          2   -1    0    0  502    0  0.00000000000E+00  0.00000000000E+00  0.10245596962E+03  0.10245596962E+03  0.00000000000E+00 0.  1.
          1   -1    0    0  501    0 -0.00000000000E+00 -0.00000000000E+00 -0.21354161205E+03  0.21354161205E+03  0.00000000000E+00 0. -1.
          2    1    1    2  501    0 -0.44633519103E+02 -0.29257094768E+02  0.13339013489E+02  0.55009616456E+02  0.00000000000E+00 0.  1.
          1    1    1    2  502    0  0.32694262575E+02  0.32291359138E+02 -0.13042457492E+03  0.13828310245E+03  0.00000000000E+00 0. -1.
         22    1    1    2    0    0  0.22990348664E+02 -0.10690585163E+02 -0.54829256752E+02  0.60407715888E+02  0.00000000000E+00 0. -1.
         22    1    1    2    0    0 -0.11051092136E+02  0.76563207931E+01  0.60829175756E+02  0.62297146874E+02  0.00000000000E+00 0.  1.
</event>
<event>
 6    1  0.1726037E-005  0.2435417E+02  0.7818608E-02  0.1702587E+00
          2   -1    0    0  502    0  0.00000000000E+00  0.00000000000E+00  0.12760350235E+03  0.12760350235E+03  0.00000000000E+00 0. -1.
          1   -1    0    0  501    0 -0.00000000000E+00 -0.00000000000E+00 -0.32707452929E+03  0.32707452929E+03  0.00000000000E+00 0.  1.
          2    1    1    2  501    0  0.16020120655E+02  0.48448915906E+02  0.33174074377E+02  0.60864282868E+02  0.00000000000E+00 0. -1.
          1    1    1    2  502    0 -0.10136286301E+02 -0.25933726416E+02 -0.26284855908E+03  0.26431925295E+03  0.00000000000E+00 0.  1.
         22    1    1    2    0    0  0.47140862486E+01 -0.10379006960E+02 -0.48160540174E+02  0.49491251999E+02  0.00000000000E+00 0. -1.
         22    1    1    2    0    0 -0.10597920602E+02 -0.12136182530E+02  0.78363997942E+02  0.80003243815E+02  0.00000000000E+00 0. -1.
</event>
<event>
 6    1  0.1726037E-005  0.4435553E+02  0.7818608E-02  0.1545790E+00
          2   -1    0    0  502    0  0.00000000000E+00  0.00000000000E+00  0.81068769328E+02  0.81068769328E+02  0.00000000000E+00 0.  1.
          1   -1    0    0  501    0 -0.00000000000E+00 -0.00000000000E+00 -0.15949616847E+03  0.15949616847E+03  0.00000000000E+00 0. -1.
          2    1    1    2  501    0 -0.21428070708E+02 -0.18592050386E+02  0.13424370680E+01  0.28401209289E+02  0.00000000000E+00 0.  1.
          1    1    1    2  502    0  0.26167892253E+02  0.22404083680E+02 -0.85129069945E+02  0.91834961209E+02  0.00000000000E+00 0. -1.
         22    1    1    2    0    0  0.10190990395E+02  0.59348154205E+01 -0.55588840035E+02  0.56826027978E+02  0.00000000000E+00 0. -1.
         22    1    1    2    0    0 -0.14930811939E+02 -0.97468487148E+01  0.60948073770E+02  0.63502739321E+02  0.00000000000E+00 0.  1.
</event>
<event>
 6    1  0.1726037E-005  0.1268018E+03  0.7818608E-02  0.1312447E+00
          2   -1    0    0  502    0  0.00000000000E+00  0.00000000000E+00  0.21885477623E+03  0.21885477623E+03  0.00000000000E+00 0.  1.
          1   -1    0    0  501    0 -0.00000000000E+00 -0.00000000000E+00 -0.41248018627E+03  0.41248018627E+03  0.00000000000E+00 0. -1.
          2    1    1    2  501    0 -0.86035801815E+02  0.49055737645E+02  0.54946246213E+02  0.11325950098E+03  0.00000000000E+00 0.  1.
          1    1    1    2  502    0  0.94175836202E+02 -0.57471890597E+02 -0.34439732152E+03  0.36163741704E+03  0.00000000000E+00 0. -1.
         22    1    1    2    0    0 -0.24603580076E+02  0.11169274637E+02  0.12224046262E+03  0.12519113208E+03  0.00000000000E+00 0.  1.
         22    1    1    2    0    0  0.16463545690E+02 -0.27531216851E+01 -0.26414797354E+02  0.31246912407E+02  0.00000000000E+00 0. -1.
</event>
<event>
 6    1  0.1726037E-005  0.1893659E+03  0.7818608E-02  0.1161027E+00
          2   -1    0    0  502    0  0.00000000000E+00  0.00000000000E+00  0.12947583969E+04  0.12947583969E+04  0.00000000000E+00 0.  1.
          1   -1    0    0  501    0 -0.00000000000E+00 -0.00000000000E+00 -0.27067019049E+02  0.27067019049E+02  0.00000000000E+00 0.  1.
          2    1    1    2  501    0  0.13649405466E+03  0.47852749662E+02  0.51608892537E+03  0.53597415190E+03  0.00000000000E+00 0.  1.
          1    1    1    2  502    0 -0.80432022461E+02 -0.47267559813E+02  0.35477022275E+03  0.36683162814E+03  0.00000000000E+00 0.  1.
         22    1    1    2    0    0 -0.69600467520E+02 -0.40026675611E+02  0.16536202041E+03  0.18382316947E+03  0.00000000000E+00 0.  1.
         22    1    1    2    0    0  0.13538435322E+02  0.39441485762E+02  0.23147020930E+03  0.23519646643E+03  0.00000000000E+00 0. -1.
</event>
<event>
 6    1  0.1726037E-005  0.1108705E+03  0.7818608E-02  0.1264208E+00
          2   -1    0    0  502    0  0.00000000000E+00  0.00000000000E+00  0.13809074292E+03  0.13809074292E+03  0.00000000000E+00 0. -1.
          1   -1    0    0  501    0 -0.00000000000E+00 -0.00000000000E+00 -0.62008238559E+03  0.62008238559E+03  0.00000000000E+00 0. -1.
          2    1    1    2  501    0  0.13143848717E+02 -0.87712401487E+02  0.10282163408E+03  0.13578849203E+03  0.00000000000E+00 0. -1.
          1    1    1    2  502    0 -0.19560654608E+02  0.32514446529E+02 -0.32120891056E+03  0.32344237920E+03  0.00000000000E+00 0. -1.
         22    1    1    2    0    0 -0.29763216618E+01 -0.10896038342E+02  0.11342237050E+02  0.16007138517E+02  0.00000000000E+00 0. -1.
         22    1    1    2    0    0  0.93931275522E+01  0.66093993300E+02 -0.27494660324E+03  0.28293511876E+03  0.00000000000E+00 0. -1.
</event>
<event>
 6    1  0.1726037E-005  0.2045883E+03  0.7818608E-02  0.1222913E+00
          2   -1    0    0  502    0  0.00000000000E+00  0.00000000000E+00  0.10557484953E+03  0.10557484953E+03  0.00000000000E+00 0. -1.
          1   -1    0    0  501    0 -0.00000000000E+00 -0.00000000000E+00 -0.51594842433E+03  0.51594842433E+03  0.00000000000E+00 0. -1.
          2    1    1    2  501    0  0.55599009263E+02 -0.83721328979E+02 -0.32762724306E+02  0.10570670206E+03  0.00000000000E+00 0. -1.
          1    1    1    2  502    0  0.65661473044E+02  0.58561985898E+02 -0.32261681853E+03  0.33439878414E+03  0.00000000000E+00 0. -1.
         22    1    1    2    0    0 -0.84612789372E+02  0.24191801637E+02 -0.93396730508E+02  0.12832582227E+03  0.00000000000E+00 0. -1.
         22    1    1    2    0    0 -0.36647692935E+02  0.96754144310E+00  0.38402698541E+02  0.53091965391E+02  0.00000000000E+00 0.  1.
</event>
<event>
 6    1  0.1726037E-005  0.6253546E+02  0.7818608E-02  0.1498746E+00
          2   -1    0    0  502    0  0.00000000000E+00  0.00000000000E+00  0.68125652301E+02  0.68125652301E+02  0.00000000000E+00 0.  1.
          1   -1    0    0  501    0 -0.00000000000E+00 -0.00000000000E+00 -0.64009020089E+03  0.64009020089E+03  0.00000000000E+00 0.  1.
          2    1    1    2  501    0 -0.57128738326E+02 -0.18645692169E+02  0.90146075418E+01  0.60766913105E+02  0.00000000000E+00 0.  1.
          1    1    1    2  502    0  0.35333885733E+02  0.23829738884E+01 -0.47881053127E+03  0.48011840925E+03  0.00000000000E+00 0.  1.
         22    1    1    2    0    0  0.21966109937E+02  0.43492689673E+01 -0.13268989989E+03  0.13456610144E+03  0.00000000000E+00 0.  1.
         22    1    1    2    0    0 -0.17125734285E+00  0.11913449313E+02  0.30521275030E+02  0.32764429387E+02  0.00000000000E+00 0. -1.
</event>
<event>
 6    1  0.1726037E-005  0.5290846E+02  0.7818608E-02  0.1493120E+00
          2   -1    0    0  502    0  0.00000000000E+00  0.00000000000E+00  0.93403925686E+02  0.93403925686E+02  0.00000000000E+00 0.  1.
          1   -1    0    0  501    0 -0.00000000000E+00 -0.00000000000E+00 -0.12706108587E+03  0.12706108587E+03  0.00000000000E+00 0.  1.
          2    1    1    2  501    0 -0.53883166598E+02  0.67646504950E-01  0.18310218179E+02  0.56909263819E+02  0.00000000000E+00 0.  1.
          1    1    1    2  502    0  0.22693629903E+02 -0.88234579041E+01 -0.26530052178E+02  0.36009691975E+02  0.00000000000E+00 0.  1.
         22    1    1    2    0    0  0.20916554807E+02 -0.98624193427E+01 -0.72394645594E+02  0.75998383476E+02  0.00000000000E+00 0.  1.
         22    1    1    2    0    0  0.10272981888E+02  0.18618230742E+02  0.46957319406E+02  0.51547672291E+02  0.00000000000E+00 0.  1.
</event>
<event>
 6    1  0.1726037E-005  0.7389187E+02  0.7818608E-02  0.1362498E+00
          2   -1    0    0  502    0  0.00000000000E+00  0.00000000000E+00  0.95438459703E+03  0.95438459703E+03  0.00000000000E+00 0. -1.
          1   -1    0    0  501    0 -0.00000000000E+00 -0.00000000000E+00 -0.60223266586E+02  0.60223266586E+02  0.00000000000E+00 0. -1.
          2    1    1    2  501    0 -0.16936017197E+02  0.11687588697E+03  0.48023146093E+02  0.12748734915E+03  0.00000000000E+00 0. -1.
          1    1    1    2  502    0  0.56284862360E+02 -0.11045097993E+03  0.56601555787E+03  0.57943163225E+03  0.00000000000E+00 0. -1.
         22    1    1    2    0    0 -0.51343687144E+01  0.44143015390E+02  0.21026679336E+03  0.21491182364E+03  0.00000000000E+00 0.  1.
         22    1    1    2    0    0 -0.34214476448E+02 -0.50567922426E+02  0.69855833121E+02  0.92777058577E+02  0.00000000000E+00 0. -1.
</event>
<event>
 6    1  0.1726037E-005  0.1932997E+03  0.7818608E-02  0.1259898E+00
          2   -1    0    0  502    0  0.00000000000E+00  0.00000000000E+00  0.34657803027E+03  0.34657803027E+03  0.00000000000E+00 0. -1.
          1   -1    0    0  501    0 -0.00000000000E+00 -0.00000000000E+00 -0.14100807708E+03  0.14100807708E+03  0.00000000000E+00 0. -1.
          2    1    1    2  501    0  0.71516106754E+02 -0.15115269076E+03  0.81685260429E+02  0.18610258252E+03  0.00000000000E+00 0. -1.
          1    1    1    2  502    0 -0.92303036093E+02  0.78465331185E+02  0.24790529168E+02  0.12365770905E+03  0.00000000000E+00 0. -1.
         22    1    1    2    0    0  0.64850504543E+00  0.76731958148E+02  0.11192998431E+00  0.76734780174E+02  0.00000000000E+00 0. -1.
         22    1    1    2    0    0  0.20138424294E+02 -0.40445985728E+01  0.98982233605E+02  0.10109103561E+03  0.00000000000E+00 0. -1.
</event>
<event>
 6    1  0.1726037E-005  0.6360964E+02  0.7818608E-02  0.1427169E+00
          2   -1    0    0  502    0  0.00000000000E+00  0.00000000000E+00  0.96026954978E+02  0.96026954978E+02  0.00000000000E+00 0.  1.
          1   -1    0    0  501    0 -0.00000000000E+00 -0.00000000000E+00 -0.10001930733E+03  0.10001930733E+03  0.00000000000E+00 0.  1.
          2    1    1    2  501    0  0.22021828086E+02 -0.27119187862E+02 -0.81123053132E+01  0.35863920032E+02  0.00000000000E+00 0.  1.
          1    1    1    2  502    0 -0.11883398504E+02 -0.18684502113E+02 -0.15884475290E+02  0.27251464813E+02  0.00000000000E+00 0.  1.
         22    1    1    2    0    0  0.19497638402E+02  0.33978783714E+02 -0.45516256130E+02  0.60053686132E+02  0.00000000000E+00 0.  1.
         22    1    1    2    0    0 -0.29636067984E+02  0.11824906261E+02  0.65520684385E+02  0.72877191328E+02  0.00000000000E+00 0.  1.
</event>
<event>
 6    1  0.1726037E-005  0.5580617E+02  0.7818608E-02  0.1416800E+00
          2   -1    0    0  502    0  0.00000000000E+00  0.00000000000E+00  0.10735338325E+03  0.10735338325E+03  0.00000000000E+00 0.  1.
          1   -1    0    0  501    0 -0.00000000000E+00 -0.00000000000E+00 -0.30873252031E+03  0.30873252031E+03  0.00000000000E+00 0.  1.
          2    1    1    2  501    0 -0.32633054490E+02  0.33711967414E+01  0.44994921778E+02  0.55685044658E+02  0.00000000000E+00 0.  1.
          1    1    1    2  502    0  0.42647755654E+02 -0.62871174888E+01 -0.23436997735E+03  0.23830158453E+03  0.00000000000E+00 0.  1.
         22    1    1    2    0    0  0.11181207554E+02  0.50830522331E+01 -0.64387516538E+02  0.65548524836E+02  0.00000000000E+00 0.  1.
         22    1    1    2    0    0 -0.21195908717E+02 -0.21671314857E+01  0.52383435048E+02  0.56550749533E+02  0.00000000000E+00 0.  1.
</event>
<event>
 6    1  0.1726037E-005  0.8094589E+02  0.7818608E-02  0.1382264E+00
          2   -1    0    0  502    0  0.00000000000E+00  0.00000000000E+00  0.13595177180E+03  0.13595177180E+03  0.00000000000E+00 0. -1.
          1   -1    0    0  501    0 -0.00000000000E+00 -0.00000000000E+00 -0.21419267008E+03  0.21419267008E+03  0.00000000000E+00 0.  1.
          2    1    1    2  501    0 -0.53852620980E+02 -0.47326521420E+02 -0.19362191589E+02  0.74261691869E+02  0.00000000000E+00 0. -1.
          1    1    1    2  502    0  0.28901185624E+02  0.63344532930E+02 -0.11421841937E+03  0.13376716976E+03  0.00000000000E+00 0.  1.
         22    1    1    2    0    0  0.92101732825E+01  0.11129447172E+02 -0.39584782163E+02  0.42138425043E+02  0.00000000000E+00 0. -1.
         22    1    1    2    0    0  0.15741262073E+02 -0.27147458682E+02  0.94924494834E+02  0.99977155210E+02  0.00000000000E+00 0. -1.
</event>
<event>
 6    1  0.1726037E-005  0.8543984E+02  0.7818608E-02  0.1384455E+00
          2   -1    0    0  502    0  0.00000000000E+00  0.00000000000E+00  0.54097372326E+03  0.54097372326E+03  0.00000000000E+00 0. -1.
          1   -1    0    0  501    0 -0.00000000000E+00 -0.00000000000E+00 -0.82300390071E+02  0.82300390071E+02  0.00000000000E+00 0. -1.
          2    1    1    2  501    0  0.34040361374E+02  0.85097768058E+02  0.43984701522E+03  0.44929475084E+03  0.00000000000E+00 0. -1.
          1    1    1    2  502    0 -0.26926333800E+02 -0.11640246592E+02  0.74844330435E+01  0.30274403886E+02  0.00000000000E+00 0. -1.
         22    1    1    2    0    0 -0.25647388634E+02 -0.23312917208E+01 -0.44488011510E+02  0.51404344495E+02  0.00000000000E+00 0.  1.
         22    1    1    2    0    0  0.18533361060E+02 -0.71126229745E+02  0.55829896433E+02  0.92300614113E+02  0.00000000000E+00 0. -1.
</event>
<event>
 6    1  0.1726037E-005  0.7350817E+02  0.7818608E-02  0.1406755E+00
          2   -1    0    0  502    0  0.00000000000E+00  0.00000000000E+00  0.11583976578E+03  0.11583976578E+03  0.00000000000E+00 0. -1.
          1   -1    0    0  501    0 -0.00000000000E+00 -0.00000000000E+00 -0.13264747893E+03  0.13264747893E+03  0.00000000000E+00 0. -1.
          2    1    1    2  501    0  0.53619354437E+02  0.21818177349E+02 -0.13268551733E+02  0.59389582405E+02  0.00000000000E+00 0. -1.
          1    1    1    2  502    0 -0.48746221077E+02 -0.88301184300E+00 -0.26868492746E+02  0.55667671783E+02  0.00000000000E+00 0. -1.
         22    1    1    2    0    0 -0.24215585690E+02 -0.21888145458E+00 -0.49595005351E+02  0.55191548766E+02  0.00000000000E+00 0. -1.
         22    1    1    2    0    0  0.19342452330E+02 -0.20716284051E+02  0.72924336680E+02  0.78238441749E+02  0.00000000000E+00 0. -1.
</event>
<event>
 6    1  0.1726037E-005  0.3473877E+02  0.7818608E-02  0.1591842E+00
          2   -1    0    0  502    0  0.00000000000E+00  0.00000000000E+00  0.75959888298E+02  0.75959888298E+02  0.00000000000E+00 0. -1.
          1   -1    0    0  501    0 -0.00000000000E+00 -0.00000000000E+00 -0.41174674208E+03  0.41174674208E+03  0.00000000000E+00 0.  1.
          2    1    1    2  501    0 -0.15872771627E+02 -0.15891734525E+02  0.34471642988E+02  0.41143484000E+02  0.00000000000E+00 0. -1.
          1    1    1    2  502    0  0.22199883210E+02  0.39695795373E+01 -0.29972352373E+03  0.30057076214E+03  0.00000000000E+00 0.  1.
         22    1    1    2    0    0 -0.56475654090E+01 -0.89068841785E+01  0.35961446443E+02  0.37476035157E+02  0.00000000000E+00 0. -1.
         22    1    1    2    0    0 -0.67954617361E+00  0.20829039166E+02 -0.10649641949E+03  0.10851634909E+03  0.00000000000E+00 0. -1.
</event>
<event>
 6    1  0.1726037E-005  0.2885386E+02  0.7818608E-02  0.1617672E+00
          2   -1    0    0  502    0  0.00000000000E+00  0.00000000000E+00  0.18563767489E+03  0.18563767489E+03  0.00000000000E+00 0.  1.
          1   -1    0    0  501    0 -0.00000000000E+00 -0.00000000000E+00 -0.23698879951E+03  0.23698879951E+03  0.00000000000E+00 0.  1.
          2    1    1    2  501    0 -0.47160224272E+02 -0.21553617344E+02  0.91474863604E+02  0.10514892223E+03  0.00000000000E+00 0.  1.
          1    1    1    2  502    0  0.24806084615E+02  0.20861859556E+02 -0.17844513431E+03  0.18136489456E+03  0.00000000000E+00 0.  1.
         22    1    1    2    0    0  0.89304374605E+01  0.17940424692E+02  0.82227319631E+02  0.84634175397E+02  0.00000000000E+00 0.  1.
         22    1    1    2    0    0  0.13423702196E+02 -0.17248666903E+02 -0.46608173548E+02  0.51478482224E+02  0.00000000000E+00 0. -1.
</event>
<event>
 6    1  0.1726037E-005  0.4982646E+02  0.7818608E-02  0.1546478E+00
          2   -1    0    0  502    0  0.00000000000E+00  0.00000000000E+00  0.21697266498E+03  0.21697266498E+03  0.00000000000E+00 0.  1.
          1   -1    0    0  501    0 -0.00000000000E+00 -0.00000000000E+00 -0.13064665172E+03  0.13064665172E+03  0.00000000000E+00 0.  1.
          2    1    1    2  501    0  0.11328673417E+02 -0.45681814743E+02  0.14639645918E+03  0.15377610445E+03  0.00000000000E+00 0.  1.
          1    1    1    2  502    0  0.91362658327E+01  0.28525763851E+02 -0.57811048069E+02  0.65109967251E+02  0.00000000000E+00 0.  1.
         22    1    1    2    0    0 -0.12430268445E+02  0.96057038217E+00  0.61350297094E+02  0.62604258822E+02  0.00000000000E+00 0.  1.
         22    1    1    2    0    0 -0.80346708038E+01  0.16195480509E+02 -0.63609694941E+02  0.66128986189E+02  0.00000000000E+00 0.  1.
</event>
<event>
 6    1  0.1726037E-005  0.6191942E+02  0.7818608E-02  0.1412292E+00
          2   -1    0    0  502    0  0.00000000000E+00  0.00000000000E+00  0.71410667346E+02  0.71410667346E+02  0.00000000000E+00 0.  1.
          1   -1    0    0  501    0 -0.00000000000E+00 -0.00000000000E+00 -0.40641262766E+03  0.40641262766E+03  0.00000000000E+00 0. -1.
          2    1    1    2  501    0 -0.43759596143E+02  0.11480801998E+03 -0.77238083329E+02  0.14512582548E+03  0.00000000000E+00 0.  1.
          1    1    1    2  502    0  0.21379058435E+02 -0.65592035614E+02 -0.10777930239E+03  0.12796779790E+03  0.00000000000E+00 0. -1.
         22    1    1    2    0    0  0.33408770466E+02 -0.22789391906E+02 -0.16672519390E+03  0.17155988053E+03  0.00000000000E+00 0.  1.
         22    1    1    2    0    0 -0.11028232758E+02 -0.26426592458E+02  0.16740619301E+02  0.33169791094E+02  0.00000000000E+00 0.  1.
</event>
<event>
 6    1  0.1726037E-005  0.1494016E+03  0.7818608E-02  0.1306839E+00
          2   -1    0    0  502    0  0.00000000000E+00  0.00000000000E+00  0.64792043380E+02  0.64792043380E+02  0.00000000000E+00 0. -1.
          1   -1    0    0  501    0 -0.00000000000E+00 -0.00000000000E+00 -0.88809098196E+03  0.88809098196E+03  0.00000000000E+00 0. -1.
          2    1    1    2  501    0 -0.12418084484E+03  0.34761149398E+02 -0.25277719237E+03  0.28377020407E+03  0.00000000000E+00 0. -1.
          1    1    1    2  502    0  0.12680361833E+03 -0.13208021823E+02 -0.50738759282E+03  0.52315942007E+03  0.00000000000E+00 0. -1.
         22    1    1    2    0    0  0.15534852707E+02 -0.23753279052E+02 -0.10045717143E+03  0.10438962212E+03  0.00000000000E+00 0. -1.
         22    1    1    2    0    0 -0.18157626194E+02  0.22001514767E+01  0.37323018043E+02  0.41563779080E+02  0.00000000000E+00 0. -1.
</event>
<event>
 6    1  0.1726037E-005  0.4108332E+02  0.7818608E-02  0.1605152E+00
          2   -1    0    0  502    0  0.00000000000E+00  0.00000000000E+00  0.10446218084E+03  0.10446218084E+03  0.00000000000E+00 0. -1.
          1   -1    0    0  501    0 -0.00000000000E+00 -0.00000000000E+00 -0.13338928813E+03  0.13338928813E+03  0.00000000000E+00 0. -1.
          2    1    1    2  501    0  0.29041160750E+02 -0.32262474330E+01  0.42126148774E+02  0.51268022204E+02  0.00000000000E+00 0. -1.
          1    1    1    2  502    0 -0.19952278865E+02  0.72343209033E+01 -0.58469069657E+02  0.62201775999E+02  0.00000000000E+00 0. -1.
         22    1    1    2    0    0 -0.19762654624E+02 -0.51181335331E+01 -0.66420107590E+02  0.69486606630E+02  0.00000000000E+00 0. -1.
         22    1    1    2    0    0  0.10673772740E+02  0.11100600628E+01  0.53835921178E+02  0.54895064140E+02  0.00000000000E+00 0. -1.
</event>
<event>
 6    1  0.1726037E-005  0.1877320E+03  0.7818608E-02  0.1299070E+00
          2   -1    0    0  502    0  0.00000000000E+00  0.00000000000E+00  0.57799460201E+02  0.57799460201E+02  0.00000000000E+00 0. -1.
          1   -1    0    0  501    0 -0.00000000000E+00 -0.00000000000E+00 -0.74024804048E+03  0.74024804048E+03  0.00000000000E+00 0. -1.
          2    1    1    2  501    0  0.16590450607E+03 -0.60112159689E+02 -0.31904996652E+03  0.36459656885E+03  0.00000000000E+00 0. -1.
          1    1    1    2  502    0 -0.67221557067E+02  0.37611269503E+02 -0.98006024702E+02  0.12465362492E+03  0.00000000000E+00 0. -1.
         22    1    1    2    0    0 -0.20267333174E+01 -0.10436448473E+02  0.10299155644E+02  0.14802017148E+02  0.00000000000E+00 0. -1.
         22    1    1    2    0    0 -0.96656215687E+02  0.32937338659E+02 -0.27569174469E+03  0.29399528976E+03  0.00000000000E+00 0. -1.
</event>
<event>
 6    1  0.1726037E-005  0.8677207E+02  0.7818608E-02  0.1329971E+00
          2   -1    0    0  502    0  0.00000000000E+00  0.00000000000E+00  0.29758086297E+03  0.29758086297E+03  0.00000000000E+00 0. -1.
          1   -1    0    0  501    0 -0.00000000000E+00 -0.00000000000E+00 -0.20824321205E+03  0.20824321205E+03  0.00000000000E+00 0. -1.
          2    1    1    2  501    0  0.23595447565E+02 -0.74605553473E+02 -0.15636862311E+03  0.17485388199E+03  0.00000000000E+00 0. -1.
          1    1    1    2  502    0 -0.46690533607E+02  0.83383615860E+02  0.80330135182E+02  0.12484295711E+03  0.00000000000E+00 0. -1.
         22    1    1    2    0    0 -0.84728371211E+01  0.44219226096E+02  0.22140319838E+02  0.50172927839E+02  0.00000000000E+00 0. -1.
         22    1    1    2    0    0  0.31567923163E+02 -0.52997288483E+02  0.14323581901E+03  0.15595430808E+03  0.00000000000E+00 0. -1.
</event>
<event>
 6    1  0.1726037E-005  0.8672476E+02  0.7818608E-02  0.1322572E+00
          2   -1    0    0  502    0  0.00000000000E+00  0.00000000000E+00  0.11629156942E+03  0.11629156942E+03  0.00000000000E+00 0.  1.
          1   -1    0    0  501    0 -0.00000000000E+00 -0.00000000000E+00 -0.11715759197E+04  0.11715759197E+04  0.00000000000E+00 0.  1.
          2    1    1    2  501    0 -0.20871325523E+01  0.57998257341E+02 -0.68661343171E+03  0.68906179591E+03  0.00000000000E+00 0.  1.
          1    1    1    2  502    0 -0.26520433977E+02 -0.13449278491E+03 -0.42094575508E+03  0.44270415780E+03  0.00000000000E+00 0.  1.
         22    1    1    2    0    0 -0.12852265308E+02 -0.10352041913E+02 -0.26848739841E+02  0.31515080936E+02  0.00000000000E+00 0.  1.
         22    1    1    2    0    0  0.41459831838E+02  0.86846569479E+02  0.79123576392E+02  0.12458645443E+03  0.00000000000E+00 0.  1.
</event>
<event>
 6    1  0.1726037E-005  0.1058445E+03  0.7818608E-02  0.1327443E+00
          2   -1    0    0  502    0  0.00000000000E+00  0.00000000000E+00  0.71221540089E+02  0.71221540089E+02  0.00000000000E+00 0. -1.
          1   -1    0    0  501    0 -0.00000000000E+00 -0.00000000000E+00 -0.64007902387E+03  0.64007902387E+03  0.00000000000E+00 0. -1.
          2    1    1    2  501    0 -0.37578852626E+02 -0.12265061790E+03 -0.56050008472E+02  0.13998909845E+03  0.00000000000E+00 0. -1.
          1    1    1    2  502    0  0.17585569937E+02  0.72990711361E+02 -0.36654341127E+03  0.37415366972E+03  0.00000000000E+00 0. -1.
         22    1    1    2    0    0  0.23425874871E+02  0.14289414758E+02 -0.15751140697E+03  0.15988371498E+03  0.00000000000E+00 0. -1.
         22    1    1    2    0    0 -0.34325921824E+01  0.35370491780E+02  0.11247342933E+02  0.37274080819E+02  0.00000000000E+00 0.  1.
</event>
<event>
 6    1  0.1726037E-005  0.5831971E+02  0.7818608E-02  0.1503654E+00
          2   -1    0    0  502    0  0.00000000000E+00  0.00000000000E+00  0.15940270297E+03  0.15940270297E+03  0.00000000000E+00 0.  1.
          1   -1    0    0  501    0 -0.00000000000E+00 -0.00000000000E+00 -0.16738407970E+03  0.16738407970E+03  0.00000000000E+00 0. -1.
          2    1    1    2  501    0 -0.23236586402E+02 -0.29740937042E+02  0.90686779082E+02  0.98227054237E+02  0.00000000000E+00 0.  1.
          1    1    1    2  502    0  0.54924922478E+01  0.22045980178E+02 -0.95717132492E+02  0.98376634247E+02  0.00000000000E+00 0. -1.
         22    1    1    2    0    0 -0.95915962934E+01 -0.98286659319E+01  0.58817816443E+02  0.60399808978E+02  0.00000000000E+00 0. -1.
         22    1    1    2    0    0  0.27335690447E+02  0.17523622795E+02 -0.61768839768E+02  0.69783285208E+02  0.00000000000E+00 0. -1.
</event>
<event>
 6    1  0.1726037E-005  0.4845353E+02  0.7818608E-02  0.1534016E+00
          2   -1    0    0  502    0  0.00000000000E+00  0.00000000000E+00  0.30655686690E+03  0.30655686690E+03  0.00000000000E+00 0.  1.
          1   -1    0    0  501    0 -0.00000000000E+00 -0.00000000000E+00 -0.20556708579E+03  0.20556708579E+03  0.00000000000E+00 0.  1.
          2    1    1    2  501    0  0.25256384236E+02 -0.67956587728E+02  0.24788752345E+03  0.25827157614E+03  0.00000000000E+00 0.  1.
          1    1    1    2  502    0 -0.69546641024E+01  0.55507358551E+02 -0.10000854191E+03  0.11459119801E+03  0.00000000000E+00 0.  1.
         22    1    1    2    0    0  0.10250268976E+02 -0.26520702213E+00  0.42941360905E+02  0.44148599357E+02  0.00000000000E+00 0.  1.
         22    1    1    2    0    0 -0.28551989109E+02  0.12714436199E+02 -0.89830561335E+02  0.95112579187E+02  0.00000000000E+00 0.  1.
</event>
<event>
 6    1  0.1726037E-005  0.9070007E+02  0.7818608E-02  0.1426888E+00
          2   -1    0    0  502    0  0.00000000000E+00  0.00000000000E+00  0.29889068582E+03  0.29889068582E+03  0.00000000000E+00 0.  1.
          1   -1    0    0  501    0 -0.00000000000E+00 -0.00000000000E+00 -0.50997807208E+03  0.50997807208E+03  0.00000000000E+00 0.  1.
          2    1    1    2  501    0 -0.93422542808E+02  0.24120636435E+01  0.27339082998E+03  0.28892236929E+03  0.00000000000E+00 0.  1.
          1    1    1    2  502    0  0.27489307945E+02 -0.11566573191E+02 -0.21212025363E+03  0.21420655842E+03  0.00000000000E+00 0.  1.
         22    1    1    2    0    0  0.59282123466E+02  0.32592143878E+00 -0.28374400199E+03  0.28987089376E+03  0.00000000000E+00 0.  1.
         22    1    1    2    0    0  0.66511113965E+01  0.88285881082E+01  0.11386039383E+02  0.15868936437E+02  0.00000000000E+00 0.  1.
</event>
<event>
 6    1  0.1726037E-005  0.1142645E+03  0.7818608E-02  0.1383595E+00
          2   -1    0    0  502    0  0.00000000000E+00  0.00000000000E+00  0.35061444575E+02  0.35061444575E+02  0.00000000000E+00 0. -1.
          1   -1    0    0  501    0 -0.00000000000E+00 -0.00000000000E+00 -0.88105940356E+03  0.88105940356E+03  0.00000000000E+00 0. -1.
          2    1    1    2  501    0  0.99851686631E+01  0.10533256617E+03 -0.94909462185E+02  0.14213535486E+03  0.00000000000E+00 0. -1.
          1    1    1    2  502    0 -0.18024264582E+02 -0.23727857759E+02 -0.25429126906E+03  0.25603112089E+03  0.00000000000E+00 0. -1.
         22    1    1    2    0    0 -0.10892172127E+02 -0.74529669131E+00  0.29859030273E+01  0.11318590800E+02  0.00000000000E+00 0. -1.
         22    1    1    2    0    0  0.18931268046E+02 -0.80859411721E+02 -0.49978313077E+03  0.50663578158E+03  0.00000000000E+00 0.  1.
</event>
<event>
 6    1  0.1726037E-005  0.7558632E+02  0.7818608E-02  0.1366284E+00
          2   -1    0    0  502    0  0.00000000000E+00  0.00000000000E+00  0.47005236418E+03  0.47005236418E+03  0.00000000000E+00 0. -1.
          1   -1    0    0  501    0 -0.00000000000E+00 -0.00000000000E+00 -0.80474970113E+02  0.80474970113E+02  0.00000000000E+00 0. -1.
          2    1    1    2  501    0  0.58094425026E+02 -0.58539182278E+01  0.21905244106E+03  0.22670068926E+03  0.00000000000E+00 0. -1.
          1    1    1    2  502    0 -0.50606814010E+02 -0.26941368473E+02 -0.44979959954E+02  0.72870321510E+02  0.00000000000E+00 0. -1.
         22    1    1    2    0    0  0.26038068917E+01  0.50061447300E+02  0.22377041222E+03  0.22931664942E+03  0.00000000000E+00 0. -1.
         22    1    1    2    0    0 -0.10091417907E+02 -0.17266160600E+02 -0.82654992580E+01  0.21639674102E+02  0.00000000000E+00 0. -1.
</event>
<event>
 6    1  0.1726037E-005  0.1488147E+03  0.7818608E-02  0.1285386E+00
          2   -1    0    0  502    0  0.00000000000E+00  0.00000000000E+00  0.17051647766E+04  0.17051647766E+04  0.00000000000E+00 0.  1.
          1   -1    0    0  501    0 -0.00000000000E+00 -0.00000000000E+00 -0.15120444753E+03  0.15120444753E+03  0.00000000000E+00 0. -1.
          2    1    1    2  501    0 -0.67607179695E+02 -0.15710320144E+03  0.15702892701E+04  0.15795760629E+04  0.00000000000E+00 0.  1.
          1    1    1    2  502    0  0.34151901387E+02  0.10315433903E+03 -0.69442252062E+02  0.12895501696E+03  0.00000000000E+00 0. -1.
         22    1    1    2    0    0  0.27633396792E+02  0.27016735998E+02 -0.37063021846E+02  0.53546019745E+02  0.00000000000E+00 0.  1.
         22    1    1    2    0    0  0.58218815167E+01  0.26932126412E+02  0.90176332949E+02  0.94292124600E+02  0.00000000000E+00 0. -1.
</event>
<event>
 6    1  0.1726037E-005  0.6625927E+02  0.7818608E-02  0.1448318E+00
          2   -1    0    0  502    0  0.00000000000E+00  0.00000000000E+00  0.40408971521E+03  0.40408971521E+03  0.00000000000E+00 0.  1.
          1   -1    0    0  501    0 -0.00000000000E+00 -0.00000000000E+00 -0.26683583510E+03  0.26683583510E+03  0.00000000000E+00 0. -1.
          2    1    1    2  501    0 -0.10388081032E+03  0.44673781978E+02  0.31689092334E+03  0.33646222202E+03  0.00000000000E+00 0.  1.
          1    1    1    2  502    0  0.11305670807E+03 -0.19236223133E+02 -0.17681366135E+03  0.21074848128E+03  0.00000000000E+00 0. -1.
         22    1    1    2    0    0 -0.60580331193E+01 -0.36404325711E+02 -0.57245995787E+02  0.68110782769E+02  0.00000000000E+00 0. -1.
         22    1    1    2    0    0 -0.31178646341E+01  0.10966766865E+02  0.54422613911E+02  0.55604064242E+02  0.00000000000E+00 0.  1.
</event>
<event>
 6    1  0.1726037E-005  0.4814999E+02  0.7818608E-02  0.1483550E+00
          2   -1    0    0  502    0  0.00000000000E+00  0.00000000000E+00  0.18862608646E+03  0.18862608646E+03  0.00000000000E+00 0.  1.
          1   -1    0    0  501    0 -0.00000000000E+00 -0.00000000000E+00 -0.99071001440E+02  0.99071001440E+02  0.00000000000E+00 0. -1.
          2    1    1    2  501    0  0.54777372125E+02 -0.14430754252E+02  0.60746175279E+02  0.83059647099E+02  0.00000000000E+00 0.  1.
          1    1    1    2  502    0 -0.23077120905E+02  0.17077291425E+02 -0.49622747021E+02  0.57328914289E+02  0.00000000000E+00 0. -1.
         22    1    1    2    0    0 -0.24793788203E+02 -0.20618185150E+02  0.10761722157E+03  0.11234459431E+03  0.00000000000E+00 0.  1.
         22    1    1    2    0    0 -0.69064630169E+01  0.17971647977E+02 -0.29185564803E+02  0.34963932206E+02  0.00000000000E+00 0.  1.
</event>
<event>
 6    1  0.1726037E-005  0.1051406E+03  0.7818608E-02  0.1358951E+00
          2   -1    0    0  502    0  0.00000000000E+00  0.00000000000E+00  0.14217395159E+03  0.14217395159E+03  0.00000000000E+00 0. -1.
          1   -1    0    0  501    0 -0.00000000000E+00 -0.00000000000E+00 -0.52020287468E+03  0.52020287468E+03  0.00000000000E+00 0.  1.
          2    1    1    2  501    0  0.39898449345E+02 -0.43549869446E+02  0.10455423775E+02  0.59981607808E+02  0.00000000000E+00 0. -1.
          1    1    1    2  502    0  0.53773111194E+01  0.49746572009E+02 -0.45353693243E+03  0.45628870902E+03  0.00000000000E+00 0.  1.
         22    1    1    2    0    0 -0.19554590263E+02 -0.78148588289E+01  0.10027499133E+03  0.10246232432E+03  0.00000000000E+00 0. -1.
         22    1    1    2    0    0 -0.25721170202E+02  0.16181562658E+01 -0.35222405769E+02  0.43644185115E+02  0.00000000000E+00 0.  1.
</event>
<event>
 6    1  0.1726037E-005  0.8896331E+02  0.7818608E-02  0.1337674E+00
          2   -1    0    0  502    0  0.00000000000E+00  0.00000000000E+00  0.56059775844E+03  0.56059775844E+03  0.00000000000E+00 0. -1.
          1   -1    0    0  501    0 -0.00000000000E+00 -0.00000000000E+00 -0.25359243588E+02  0.25359243588E+02  0.00000000000E+00 0. -1.
          2    1    1    2  501    0  0.42081041160E+02 -0.20222120746E+02  0.12463040441E+03  0.13308826355E+03  0.00000000000E+00 0. -1.
          1    1    1    2  502    0 -0.44630914718E+02 -0.29562086627E+02  0.10352783323E+03  0.11654976519E+03  0.00000000000E+00 0. -1.
         22    1    1    2    0    0 -0.36817891221E+02  0.18918591588E+02  0.21989017551E+02  0.46872029127E+02  0.00000000000E+00 0. -1.
         22    1    1    2    0    0  0.39367764780E+02  0.30865615785E+02  0.28509125967E+03  0.28944694416E+03  0.00000000000E+00 0. -1.
</event>
<event>
 6    1  0.1726037E-005  0.7124910E+02  0.7818608E-02  0.1476359E+00
          2   -1    0    0  502    0  0.00000000000E+00  0.00000000000E+00  0.14478846242E+03  0.14478846242E+03  0.00000000000E+00 0.  1.
          1   -1    0    0  501    0 -0.00000000000E+00 -0.00000000000E+00 -0.88244265234E+02  0.88244265234E+02  0.00000000000E+00 0. -1.
          2    1    1    2  501    0  0.35325678085E+02 -0.48453022504E+01  0.72664003069E+02  0.80940952725E+02  0.00000000000E+00 0.  1.
          1    1    1    2  502    0 -0.17047003403E+02 -0.19046070189E+02 -0.69460586990E+01  0.26487748982E+02  0.00000000000E+00 0. -1.
         22    1    1    2    0    0 -0.16366165936E+02  0.34740872610E+02 -0.61294793166E+02  0.72331399036E+02  0.00000000000E+00 0. -1.
         22    1    1    2    0    0 -0.19125087464E+01 -0.10849500170E+02  0.52121045988E+02  0.53272626916E+02  0.00000000000E+00 0.  1.
</event>
<event>
 6    1  0.1726037E-005  0.1677429E+03  0.7818608E-02  0.1272875E+00
          2   -1    0    0  502    0  0.00000000000E+00  0.00000000000E+00  0.47808339860E+02  0.47808339860E+02  0.00000000000E+00 0. -1.
          1   -1    0    0  501    0 -0.00000000000E+00 -0.00000000000E+00 -0.88427432132E+03  0.88427432132E+03  0.00000000000E+00 0.  1.
          2    1    1    2  501    0  0.12618846509E+03 -0.56555342266E+02 -0.17042161740E+03  0.21946654219E+03  0.00000000000E+00 0. -1.
          1    1    1    2  502    0 -0.10047423343E+03  0.85839476922E+00 -0.42123578311E+03  0.43305356874E+03  0.00000000000E+00 0.  1.
         22    1    1    2    0    0 -0.49937398279E+02  0.52606969364E+02 -0.24461473723E+03  0.25514232624E+03  0.00000000000E+00 0. -1.
         22    1    1    2    0    0  0.24223166610E+02  0.30899781327E+01 -0.19384372312E+00  0.24420224013E+02  0.00000000000E+00 0.  1.
</event>
<event>
 6    1  0.1726037E-005  0.6275287E+02  0.7818608E-02  0.1503933E+00
          2   -1    0    0  502    0  0.00000000000E+00  0.00000000000E+00  0.53155127363E+02  0.53155127363E+02  0.00000000000E+00 0. -1.
          1   -1    0    0  501    0 -0.00000000000E+00 -0.00000000000E+00 -0.48535744882E+03  0.48535744882E+03  0.00000000000E+00 0. -1.
          2    1    1    2  501    0 -0.17682183575E+02 -0.48152829378E+02 -0.80539082934E+01  0.51925138728E+02  0.00000000000E+00 0. -1.
          1    1    1    2  502    0  0.13841312307E+02  0.33922540907E+02 -0.31765250882E+03  0.31975840422E+03  0.00000000000E+00 0. -1.
         22    1    1    2    0    0  0.10272648557E+02  0.23131110829E+02 -0.13444156089E+03  0.13680317574E+03  0.00000000000E+00 0. -1.
         22    1    1    2    0    0 -0.64317772898E+01 -0.89008223578E+01  0.27945656557E+02  0.30025857492E+02  0.00000000000E+00 0.  1.
</event>
<event>
 6    1  0.1726037E-005  0.8114157E+02  0.7818608E-02  0.1390583E+00
          2   -1    0    0  502    0  0.00000000000E+00  0.00000000000E+00  0.46616522762E+03  0.46616522762E+03  0.00000000000E+00 0. -1.
          1   -1    0    0  501    0 -0.00000000000E+00 -0.00000000000E+00 -0.11529543615E+03  0.11529543615E+03  0.00000000000E+00 0.  1.
          2    1    1    2  501    0 -0.28473059279E+02  0.13977848695E+02  0.31619617903E+03  0.31778313202E+03  0.00000000000E+00 0. -1.
          1    1    1    2  502    0  0.30986531923E+02 -0.69200605481E+01 -0.86058690365E+02  0.91728679190E+02  0.00000000000E+00 0.  1.
         22    1    1    2    0    0 -0.39393829939E+01  0.26950186058E+02  0.13300572937E+03  0.13576581054E+03  0.00000000000E+00 0. -1.
         22    1    1    2    0    0  0.14259103495E+01 -0.34007974205E+02 -0.12273426567E+02  0.36183042016E+02  0.00000000000E+00 0. -1.
</event>
<event>
 6    1  0.1726037E-005  0.7634641E+02  0.7818608E-02  0.1444341E+00
          2   -1    0    0  502    0  0.00000000000E+00  0.00000000000E+00  0.17194027235E+03  0.17194027235E+03  0.00000000000E+00 0.  1.
          1   -1    0    0  501    0 -0.00000000000E+00 -0.00000000000E+00 -0.10891744946E+03  0.10891744946E+03  0.00000000000E+00 0. -1.
          2    1    1    2  501    0 -0.59269468835E+02 -0.54654457669E+02  0.68487016212E+02  0.10578492836E+03  0.00000000000E+00 0.  1.
          1    1    1    2  502    0  0.33899336595E+02  0.19030627485E+02 -0.20989264938E+02  0.44180075222E+02  0.00000000000E+00 0. -1.
         22    1    1    2    0    0  0.19947607572E+02  0.22440608130E+02 -0.52992913985E+02  0.60907609325E+02  0.00000000000E+00 0. -1.
         22    1    1    2    0    0  0.54225246684E+01  0.13183222053E+02  0.68517985598E+02  0.69985108901E+02  0.00000000000E+00 0. -1.
</event>
<event>
 6    1  0.1726037E-005  0.6144955E+02  0.7818608E-02  0.1466640E+00
          2   -1    0    0  502    0  0.00000000000E+00  0.00000000000E+00  0.44341613616E+03  0.44341613616E+03  0.00000000000E+00 0. -1.
          1   -1    0    0  501    0 -0.00000000000E+00 -0.00000000000E+00 -0.71428040789E+02  0.71428040789E+02  0.00000000000E+00 0.  1.
          2    1    1    2  501    0 -0.74300028715E+02 -0.14865393387E+02  0.27849031902E+03  0.28861450409E+03  0.00000000000E+00 0. -1.
          1    1    1    2  502    0  0.97434450675E+01  0.51601252672E+02  0.33768610732E+01  0.52621546821E+02  0.00000000000E+00 0.  1.
         22    1    1    2    0    0  0.45144103619E+02 -0.33197406567E+02  0.12305615388E+03  0.13521418159E+03  0.00000000000E+00 0. -1.
         22    1    1    2    0    0  0.19412480029E+02 -0.35384527179E+01 -0.32935238600E+02  0.38393944447E+02  0.00000000000E+00 0.  1.
</event>
<event>
 6    1  0.1726037E-005  0.1665552E+03  0.7818608E-02  0.1222373E+00
          2   -1    0    0  502    0  0.00000000000E+00  0.00000000000E+00  0.52308714279E+03  0.52308714279E+03  0.00000000000E+00 0. -1.
          1   -1    0    0  501    0 -0.00000000000E+00 -0.00000000000E+00 -0.15814495636E+03  0.15814495636E+03  0.00000000000E+00 0. -1.
          2    1    1    2  501    0 -0.17007123064E+03  0.60661357023E+02  0.32518141570E+03  0.37195023437E+03  0.00000000000E+00 0. -1.
          1    1    1    2  502    0  0.12108119636E+03 -0.35204825054E+02  0.95973413998E+02  0.15846429255E+03  0.00000000000E+00 0. -1.
         22    1    1    2    0    0  0.57345811600E+02 -0.37862422674E+02 -0.90369880660E+02  0.11352894120E+03  0.00000000000E+00 0. -1.
         22    1    1    2    0    0 -0.83557773129E+01  0.12405890706E+02  0.34157237391E+02  0.37288631041E+02  0.00000000000E+00 0.  1.
</event>
<event>
 6    1  0.1726037E-005  0.9541020E+02  0.7818608E-02  0.1367913E+00
          2   -1    0    0  502    0  0.00000000000E+00  0.00000000000E+00  0.35999736413E+03  0.35999736413E+03  0.00000000000E+00 0.  1.
          1   -1    0    0  501    0 -0.00000000000E+00 -0.00000000000E+00 -0.37186070792E+03  0.37186070792E+03  0.00000000000E+00 0. -1.
          2    1    1    2  501    0  0.10124325691E+03  0.45904131196E+02  0.32575762747E+03  0.34420258306E+03  0.00000000000E+00 0.  1.
          1    1    1    2  502    0 -0.27419272752E+02 -0.26936125210E+02 -0.10670657410E+03  0.11341809519E+03  0.00000000000E+00 0. -1.
         22    1    1    2    0    0 -0.49734386671E+02 -0.21828641852E+02 -0.24167211468E+03  0.24770024190E+03  0.00000000000E+00 0. -1.
         22    1    1    2    0    0 -0.24089597489E+02  0.28606358661E+01  0.10757717524E+02  0.26537151902E+02  0.00000000000E+00 0.  1.
</event>
<event>
 6    1  0.1726037E-005  0.4239287E+02  0.7818608E-02  0.1503884E+00
          2   -1    0    0  502    0  0.00000000000E+00  0.00000000000E+00  0.29366084084E+03  0.29366084084E+03  0.00000000000E+00 0. -1.
          1   -1    0    0  501    0 -0.00000000000E+00 -0.00000000000E+00 -0.11827278815E+03  0.11827278815E+03  0.00000000000E+00 0.  1.
          2    1    1    2  501    0 -0.47541794248E+02 -0.58453370708E+02  0.15282349013E+03  0.17038790416E+03  0.00000000000E+00 0. -1.
          1    1    1    2  502    0  0.29468783670E+02  0.74507273233E+02 -0.52019281668E+02  0.95528784358E+02  0.00000000000E+00 0.  1.
         22    1    1    2    0    0  0.13732103134E+01 -0.20568379792E+02  0.10716410199E+03  0.10912877123E+03  0.00000000000E+00 0. -1.
         22    1    1    2    0    0  0.16699800264E+02  0.45144772671E+01 -0.32580257767E+02  0.36888169242E+02  0.00000000000E+00 0.  1.
</event>
<event>
 6    1  0.1726037E-005  0.5194238E+02  0.7818608E-02  0.1436758E+00
          2   -1    0    0  502    0  0.00000000000E+00  0.00000000000E+00  0.16573907862E+03  0.16573907862E+03  0.00000000000E+00 0.  1.
          1   -1    0    0  501    0 -0.00000000000E+00 -0.00000000000E+00 -0.10053273750E+03  0.10053273750E+03  0.00000000000E+00 0. -1.
          2    1    1    2  501    0  0.29818457615E+02 -0.18344792266E+02  0.83629390898E+02  0.90661716505E+02  0.00000000000E+00 0.  1.
          1    1    1    2  502    0 -0.25532932203E+02  0.92823064216E+01 -0.39058058425E+02  0.47577555290E+02  0.00000000000E+00 0. -1.
         22    1    1    2    0    0  0.13645556965E+02 -0.47053440432E+01  0.71197685844E+02  0.72646073239E+02  0.00000000000E+00 0.  1.
         22    1    1    2    0    0 -0.17931082376E+02  0.13767829888E+02 -0.50562677194E+02  0.55386471092E+02  0.00000000000E+00 0. -1.
</event>
<event>
 6    1  0.1726037E-005  0.4978606E+02  0.7818608E-02  0.1503311E+00
          2   -1    0    0  502    0  0.00000000000E+00  0.00000000000E+00  0.12061304984E+03  0.12061304984E+03  0.00000000000E+00 0.  1.
          1   -1    0    0  501    0 -0.00000000000E+00 -0.00000000000E+00 -0.31045900814E+03  0.31045900814E+03  0.00000000000E+00 0. -1.
          2    1    1    2  501    0 -0.20840062370E+02  0.61321404136E+02  0.18364690084E+02  0.67319273961E+02  0.00000000000E+00 0.  1.
          1    1    1    2  502    0 -0.63362772906E+01 -0.63437041288E+02 -0.22466753441E+03  0.23353780772E+03  0.00000000000E+00 0. -1.
         22    1    1    2    0    0  0.41365051787E+02  0.13576221652E+02 -0.47072841901E+02  0.64118903206E+02  0.00000000000E+00 0. -1.
         22    1    1    2    0    0 -0.14188712127E+02 -0.11460584500E+02  0.63529727926E+02  0.66096073100E+02  0.00000000000E+00 0.  1.
</event>
<event>
 6    1  0.1726037E-005  0.6644382E+02  0.7818608E-02  0.1464032E+00
          2   -1    0    0  502    0  0.00000000000E+00  0.00000000000E+00  0.12595065352E+03  0.12595065352E+03  0.00000000000E+00 0.  1.
          1   -1    0    0  501    0 -0.00000000000E+00 -0.00000000000E+00 -0.12046897793E+03  0.12046897793E+03  0.00000000000E+00 0.  1.
          2    1    1    2  501    0  0.33389072489E+02  0.42403192340E+02  0.41377007838E+01  0.54129303063E+02  0.00000000000E+00 0.  1.
          1    1    1    2  502    0 -0.19615374131E+02 -0.33226839052E+02 -0.45173893015E+02  0.59409311945E+02  0.00000000000E+00 0.  1.
         22    1    1    2    0    0  0.12851279277E+02  0.98747418064E+01  0.82591206413E+02  0.84166342926E+02  0.00000000000E+00 0.  1.
         22    1    1    2    0    0 -0.26624977635E+02 -0.19051095094E+02 -0.36073338591E+02  0.48714673513E+02  0.00000000000E+00 0.  1.
</event>
<event>
 6    1  0.1726037E-005  0.1894289E+03  0.7818608E-02  0.1296456E+00
          2   -1    0    0  502    0  0.00000000000E+00  0.00000000000E+00  0.13795211052E+03  0.13795211052E+03  0.00000000000E+00 0.  1.
          1   -1    0    0  501    0 -0.00000000000E+00 -0.00000000000E+00 -0.47777005771E+03  0.47777005771E+03  0.00000000000E+00 0.  1.
          2    1    1    2  501    0 -0.13917583587E+03  0.11551590916E+03  0.25784777789E+00  0.18086985665E+03  0.00000000000E+00 0.  1.
          1    1    1    2  502    0  0.76720104779E+02 -0.84115568294E+02 -0.22145752240E+03  0.24900770577E+03  0.00000000000E+00 0.  1.
         22    1    1    2    0    0 -0.93875417941E+01 -0.54621631047E+01  0.22722710490E+02  0.25184970493E+02  0.00000000000E+00 0. -1.
         22    1    1    2    0    0  0.71843272887E+02 -0.25938177765E+02 -0.14134098306E+03  0.16065963531E+03  0.00000000000E+00 0.  1.
</event>
<event>
 6    1  0.1726037E-005  0.4373969E+02  0.7818608E-02  0.1491970E+00
          2   -1    0    0  502    0  0.00000000000E+00  0.00000000000E+00  0.21678590355E+03  0.21678590355E+03  0.00000000000E+00 0. -1.
          1   -1    0    0  501    0 -0.00000000000E+00 -0.00000000000E+00 -0.15520696533E+03  0.15520696533E+03  0.00000000000E+00 0.  1.
          2    1    1    2  501    0 -0.16954963500E+02 -0.67157978354E+02  0.12307072770E+03  0.14122347135E+03  0.00000000000E+00 0. -1.
          1    1    1    2  502    0  0.56082253501E+01  0.42518480900E+02 -0.91272313219E+02  0.10084596457E+03  0.00000000000E+00 0.  1.
         22    1    1    2    0    0 -0.21027077151E+02  0.18750631279E+02  0.71464301852E+02  0.76817124302E+02  0.00000000000E+00 0. -1.
         22    1    1    2    0    0  0.32373815301E+02  0.58888661742E+01 -0.41683778106E+02  0.53106308657E+02  0.00000000000E+00 0.  1.
</event>
<event>
 6    1  0.1726037E-005  0.8638920E+02  0.7818608E-02  0.1385078E+00
          2   -1    0    0  502    0  0.00000000000E+00  0.00000000000E+00  0.22308416724E+03  0.22308416724E+03  0.00000000000E+00 0.  1.
          1   -1    0    0  501    0 -0.00000000000E+00 -0.00000000000E+00 -0.11475549733E+03  0.11475549733E+03  0.00000000000E+00 0.  1.
          2    1    1    2  501    0  0.17759291035E+02  0.62283682869E+02  0.95478879899E+02  0.11537272675E+03  0.00000000000E+00 0.  1.
          1    1    1    2  502    0 -0.10947551638E+02 -0.64431161159E+02 -0.49748185095E+02  0.82134678032E+02  0.00000000000E+00 0.  1.
         22    1    1    2    0    0 -0.32921868206E+01  0.24442424693E+02  0.96501160901E+02  0.99602935068E+02  0.00000000000E+00 0.  1.
         22    1    1    2    0    0 -0.35195525773E+01 -0.22294946403E+02 -0.33903185798E+02  0.40729324727E+02  0.00000000000E+00 0.  1.
</event>
<event>
 6    1  0.1726037E-005  0.1275195E+03  0.7818608E-02  0.1326185E+00
          2   -1    0    0  502    0  0.00000000000E+00  0.00000000000E+00  0.38444506133E+03  0.38444506133E+03  0.00000000000E+00 0. -1.
          1   -1    0    0  501    0 -0.00000000000E+00 -0.00000000000E+00 -0.34988633872E+02  0.34988633872E+02  0.00000000000E+00 0.  1.
          2    1    1    2  501    0  0.29224100342E+02  0.18915147283E+01  0.13315661557E+03  0.13633895312E+03  0.00000000000E+00 0. -1.
          1    1    1    2  502    0 -0.27006831509E+02 -0.30590426494E+01  0.12412965975E+03  0.12707044943E+03  0.00000000000E+00 0.  1.
         22    1    1    2    0    0  0.50932003123E+01  0.20144525843E+02  0.11987180314E+03  0.12165932680E+03  0.00000000000E+00 0.  1.
         22    1    1    2    0    0 -0.73104691453E+01 -0.18976997922E+02 -0.27701650998E+02  0.34364965842E+02  0.00000000000E+00 0.  1.
</event>
<event>
 6    1  0.1726037E-005  0.8436784E+02  0.7818608E-02  0.1323593E+00
          2   -1    0    0  502    0  0.00000000000E+00  0.00000000000E+00  0.44029959351E+03  0.44029959351E+03  0.00000000000E+00 0.  1.
          1   -1    0    0  501    0 -0.00000000000E+00 -0.00000000000E+00 -0.17467444910E+03  0.17467444910E+03  0.00000000000E+00 0.  1.
          2    1    1    2  501    0 -0.11833850641E+02  0.12087824031E+03  0.21949772338E+03  0.25086019925E+03  0.00000000000E+00 0.  1.
          1    1    1    2  502    0 -0.42309433981E+02 -0.54151464037E+02 -0.12167886437E+03  0.13974339088E+03  0.00000000000E+00 0.  1.
         22    1    1    2    0    0  0.22784893607E+00 -0.14414292082E+02 -0.18520385816E+02  0.23469734173E+02  0.00000000000E+00 0.  1.
         22    1    1    2    0    0  0.53915435686E+02 -0.52312484194E+02  0.18632667122E+03  0.20090071830E+03  0.00000000000E+00 0.  1.
</event>
<event>
 6    1  0.1726037E-005  0.1053636E+03  0.7818608E-02  0.1331992E+00
          2   -1    0    0  502    0  0.00000000000E+00  0.00000000000E+00  0.20443507221E+03  0.20443507221E+03  0.00000000000E+00 0. -1.
          1   -1    0    0  501    0 -0.00000000000E+00 -0.00000000000E+00 -0.11581755077E+03  0.11581755077E+03  0.00000000000E+00 0. -1.
          2    1    1    2  501    0 -0.19459004755E+02  0.79478178384E+02 -0.51524624303E+02  0.96696538795E+02  0.00000000000E+00 0. -1.
          1    1    1    2  502    0 -0.11576708800E+02 -0.33351555053E+02  0.50852101039E+02  0.61905432646E+02  0.00000000000E+00 0. -1.
         22    1    1    2    0    0  0.92786451783E+01 -0.71275033361E+02  0.61881443276E+01  0.72142336857E+02  0.00000000000E+00 0. -1.
         22    1    1    2    0    0  0.21757068377E+02  0.25148410030E+02  0.83101900371E+02  0.89508314679E+02  0.00000000000E+00 0. -1.
</event>
<event>
 6    1  0.1726037E-005  0.4460644E+02  0.7818608E-02  0.1544952E+00
          2   -1    0    0  502    0  0.00000000000E+00  0.00000000000E+00  0.24250081038E+03  0.24250081038E+03  0.00000000000E+00 0. -1.
          1   -1    0    0  501    0 -0.00000000000E+00 -0.00000000000E+00 -0.14973821026E+03  0.14973821026E+03  0.00000000000E+00 0.  1.
          2    1    1    2  501    0  0.15247943250E+02  0.40580401091E+02  0.17112710311E+03  0.17653258664E+03  0.00000000000E+00 0. -1.
          1    1    1    2  502    0 -0.22478098350E+02 -0.20599867483E+02 -0.82336935134E+02  0.87800856107E+02  0.00000000000E+00 0.  1.
         22    1    1    2    0    0  0.14916358877E+02 -0.95699564366E+01  0.64046649588E+02  0.66453405870E+02  0.00000000000E+00 0.  1.
         22    1    1    2    0    0 -0.76862037772E+01 -0.10410577172E+02 -0.60074217446E+02  0.61452172031E+02  0.00000000000E+00 0.  1.
</event>
<event>
 6    1  0.1726037E-005  0.1232722E+03  0.7818608E-02  0.1307856E+00
          2   -1    0    0  502    0  0.00000000000E+00  0.00000000000E+00  0.15696563376E+03  0.15696563376E+03  0.00000000000E+00 0. -1.
          1   -1    0    0  501    0 -0.00000000000E+00 -0.00000000000E+00 -0.38895013088E+03  0.38895013088E+03  0.00000000000E+00 0. -1.
          2    1    1    2  501    0 -0.86595645007E+02  0.65605422298E+02  0.82796734941E+02  0.13659493580E+03  0.00000000000E+00 0. -1.
          1    1    1    2  502    0  0.12279009840E+03 -0.51165522575E+02 -0.14863958096E+03  0.19947191280E+03  0.00000000000E+00 0. -1.
         22    1    1    2    0    0 -0.10554581675E+02  0.46447644285E+01  0.18860269878E+02  0.22106171328E+02  0.00000000000E+00 0. -1.
         22    1    1    2    0    0 -0.25639871721E+02 -0.19084664152E+02 -0.18500192098E+03  0.18774274471E+03  0.00000000000E+00 0. -1.
</event>
<event>
 6    1  0.1726037E-005  0.8131316E+02  0.7818608E-02  0.1385599E+00
          2   -1    0    0  502    0  0.00000000000E+00  0.00000000000E+00  0.19808131236E+03  0.19808131236E+03  0.00000000000E+00 0.  1.
          1   -1    0    0  501    0 -0.00000000000E+00 -0.00000000000E+00 -0.45607633659E+02  0.45607633659E+02  0.00000000000E+00 0.  1.
          2    1    1    2  501    0  0.17822538659E+02 -0.25009292323E+02  0.59653960293E+01  0.31284078004E+02  0.00000000000E+00 0.  1.
          1    1    1    2  502    0 -0.24937214035E+02  0.42938092700E+00  0.32770480606E+02  0.41181954919E+02  0.00000000000E+00 0.  1.
         22    1    1    2    0    0  0.35288380337E+02  0.16432178731E+02 -0.13074242158E+02  0.41063634674E+02  0.00000000000E+00 0.  1.
         22    1    1    2    0    0 -0.28173704961E+02  0.81477326654E+01  0.12681204423E+03  0.13015927843E+03  0.00000000000E+00 0.  1.
</event>
<event>
 6    1  0.1726037E-005  0.9997944E+02  0.7818608E-02  0.1328605E+00
          2   -1    0    0  502    0  0.00000000000E+00  0.00000000000E+00  0.80575801851E+03  0.80575801851E+03  0.00000000000E+00 0. -1.
          1   -1    0    0  501    0 -0.00000000000E+00 -0.00000000000E+00 -0.27314397905E+02  0.27314397905E+02  0.00000000000E+00 0. -1.
          2    1    1    2  501    0  0.46472029165E+02  0.40327315435E+02  0.53603126356E+03  0.53955116290E+03  0.00000000000E+00 0. -1.
          1    1    1    2  502    0 -0.15340253330E+02 -0.13247656491E+02  0.85451422530E+02  0.87822374069E+02  0.00000000000E+00 0. -1.
         22    1    1    2    0    0  0.14221033175E+02 -0.38784183072E+02  0.15324253740E+03  0.15871271502E+03  0.00000000000E+00 0.  1.
         22    1    1    2    0    0 -0.45352809010E+02  0.11704524128E+02  0.37183971082E+01  0.46986164424E+02  0.00000000000E+00 0. -1.
</event>
<event>
 6    1  0.1726037E-005  0.5921763E+02  0.7818608E-02  0.1426601E+00
          2   -1    0    0  502    0  0.00000000000E+00  0.00000000000E+00  0.48223639751E+03  0.48223639751E+03  0.00000000000E+00 0.  1.
          1   -1    0    0  501    0 -0.00000000000E+00 -0.00000000000E+00 -0.92731501673E+02  0.92731501673E+02  0.00000000000E+00 0.  1.
          2    1    1    2  501    0  0.81986515808E+02 -0.28364101134E+02  0.20153099148E+03  0.21941069148E+03  0.00000000000E+00 0.  1.
          1    1    1    2  502    0 -0.26112225125E+02  0.11245813801E+02 -0.64117165257E+02  0.70137917773E+02  0.00000000000E+00 0.  1.
         22    1    1    2    0    0 -0.51141644176E+02  0.79386069777E+01  0.26436214958E+03  0.26938046584E+03  0.00000000000E+00 0.  1.
         22    1    1    2    0    0 -0.47326465070E+01  0.91796803547E+01 -0.12271079969E+02  0.16038824084E+02  0.00000000000E+00 0.  1.
</event>
<event>
 6    1  0.1726037E-005  0.3813091E+02  0.7818608E-02  0.1579649E+00
          2   -1    0    0  502    0  0.00000000000E+00  0.00000000000E+00  0.54892856519E+03  0.54892856519E+03  0.00000000000E+00 0. -1.
          1   -1    0    0  501    0 -0.00000000000E+00 -0.00000000000E+00 -0.11924730362E+03  0.11924730362E+03  0.00000000000E+00 0. -1.
          2    1    1    2  501    0  0.22646189137E+02  0.96544431841E+01  0.44780953103E+03  0.44848571241E+03  0.00000000000E+00 0. -1.
          1    1    1    2  502    0 -0.19877224180E+02 -0.15628133739E+02 -0.78618599057E+02  0.82584663970E+02  0.00000000000E+00 0. -1.
         22    1    1    2    0    0 -0.39440735035E+01 -0.12286934043E+02 -0.36339051671E+02  0.38562302062E+02  0.00000000000E+00 0. -1.
         22    1    1    2    0    0  0.11751085473E+01  0.18260624598E+02  0.96829381269E+02  0.98543190367E+02  0.00000000000E+00 0.  1.
</event>
<event>
 6    1  0.1726037E-005  0.7555040E+02  0.7818608E-02  0.1359481E+00
          2   -1    0    0  502    0  0.00000000000E+00  0.00000000000E+00  0.17362689033E+03  0.17362689033E+03  0.00000000000E+00 0. -1.
          1   -1    0    0  501    0 -0.00000000000E+00 -0.00000000000E+00 -0.95607608527E+02  0.95607608527E+02  0.00000000000E+00 0. -1.
          2    1    1    2  501    0  0.42194334204E+02 -0.46165647340E+02  0.22015959663E+02  0.66304836272E+02  0.00000000000E+00 0. -1.
          1    1    1    2  502    0  0.28922656031E+02  0.76464152833E+01 -0.21919289456E+02  0.37086964675E+02  0.00000000000E+00 0. -1.
         22    1    1    2    0    0 -0.29896659856E+02  0.47651480297E+02  0.10254954431E+03  0.11696530632E+03  0.00000000000E+00 0. -1.
         22    1    1    2    0    0 -0.41220330379E+02 -0.91322482400E+01 -0.24626932707E+02  0.48877391594E+02  0.00000000000E+00 0.  1.
</event>
<event>
 6    1  0.1726037E-005  0.1500687E+03  0.7818608E-02  0.1285378E+00
          2   -1    0    0  502    0  0.00000000000E+00  0.00000000000E+00  0.43407578572E+03  0.43407578572E+03  0.00000000000E+00 0.  1.
          1   -1    0    0  501    0 -0.00000000000E+00 -0.00000000000E+00 -0.94737509448E+02  0.94737509448E+02  0.00000000000E+00 0.  1.
          2    1    1    2  501    0 -0.72039692207E+02 -0.10136695658E+03  0.30162211322E+03  0.32625277979E+03  0.00000000000E+00 0.  1.
          1    1    1    2  502    0  0.54275785339E+01  0.39039287586E+02 -0.15067374296E+02  0.42196568013E+02  0.00000000000E+00 0.  1.
         22    1    1    2    0    0  0.93235198769E+02  0.58669575338E+02  0.11029443790E+02  0.11070939432E+03  0.00000000000E+00 0.  1.
         22    1    1    2    0    0 -0.26623085096E+02  0.36580936518E+01  0.41754093555E+02  0.49654553042E+02  0.00000000000E+00 0.  1.
</event>
<event>
 6    1  0.1726037E-005  0.7015022E+02  0.7818608E-02  0.1393343E+00
          2   -1    0    0  502    0  0.00000000000E+00  0.00000000000E+00  0.99986846628E+03  0.99986846628E+03  0.00000000000E+00 0. -1.
          1   -1    0    0  501    0 -0.00000000000E+00 -0.00000000000E+00 -0.34484301842E+02  0.34484301842E+02  0.00000000000E+00 0. -1.
          2    1    1    2  501    0  0.83916130469E+01  0.49110125596E+02  0.36355282696E+03  0.36695078907E+03  0.00000000000E+00 0. -1.
          1    1    1    2  502    0 -0.75036272482E+02  0.10480283679E+02  0.39962639815E+02  0.85657989207E+02  0.00000000000E+00 0. -1.
         22    1    1    2    0    0  0.82044804396E+02 -0.53235066828E+02  0.55528193300E+03  0.56382918281E+03  0.00000000000E+00 0. -1.
         22    1    1    2    0    0 -0.15400144961E+02 -0.63553424465E+01  0.65867646539E+01  0.17914807033E+02  0.00000000000E+00 0. -1.
</event>
<event>
 6    1  0.1726037E-005  0.7099991E+02  0.7818608E-02  0.1364090E+00
          2   -1    0    0  502    0  0.00000000000E+00  0.00000000000E+00  0.17408591826E+03  0.17408591826E+03  0.00000000000E+00 0.  1.
          1   -1    0    0  501    0 -0.00000000000E+00 -0.00000000000E+00 -0.38047333522E+03  0.38047333522E+03  0.00000000000E+00 0.  1.
          2    1    1    2  501    0 -0.34339013361E+02  0.11683623551E+03  0.53246665306E+02  0.13291004903E+03  0.00000000000E+00 0.  1.
          1    1    1    2  502    0  0.19782581266E+01 -0.57711467885E+02 -0.26948652889E+03  0.27560391196E+03  0.00000000000E+00 0.  1.
         22    1    1    2    0    0 -0.62397266260E+01 -0.96661441450E+01 -0.54777138214E+02  0.55972344974E+02  0.00000000000E+00 0.  1.
         22    1    1    2    0    0  0.38600481861E+02 -0.49458623482E+02  0.64629584842E+02  0.90072947512E+02  0.00000000000E+00 0.  1.
</event>
<event>
 6    1  0.1726037E-005  0.1053921E+03  0.7818608E-02  0.1296376E+00
          2   -1    0    0  502    0  0.00000000000E+00  0.00000000000E+00  0.15768969352E+04  0.15768969352E+04  0.00000000000E+00 0. -1.
          1   -1    0    0  501    0 -0.00000000000E+00 -0.00000000000E+00 -0.34601330210E+02  0.34601330210E+02  0.00000000000E+00 0. -1.
          2    1    1    2  501    0  0.15451569624E+03 -0.83015070381E+02  0.50264209657E+03  0.53236799259E+03  0.00000000000E+00 0. -1.
          1    1    1    2  502    0 -0.14530563719E+03  0.47158845819E+02  0.67512517903E+03  0.69219339227E+03  0.00000000000E+00 0. -1.
         22    1    1    2    0    0 -0.19970249796E+02 -0.35918752461E+02  0.23405902250E+03  0.23763962983E+03  0.00000000000E+00 0. -1.
         22    1    1    2    0    0  0.10760190739E+02  0.71774977023E+02  0.13046930694E+03  0.14929725076E+03  0.00000000000E+00 0.  1.
</event>
<event>
 6    1  0.1726037E-005  0.1144390E+03  0.7818608E-02  0.1345934E+00
          2   -1    0    0  502    0  0.00000000000E+00  0.00000000000E+00  0.16492595461E+03  0.16492595461E+03  0.00000000000E+00 0.  1.
          1   -1    0    0  501    0 -0.00000000000E+00 -0.00000000000E+00 -0.32491420488E+03  0.32491420488E+03  0.00000000000E+00 0. -1.
          2    1    1    2  501    0 -0.47829566487E+02 -0.82102197410E+02  0.46115986508E+02  0.10561781318E+03  0.00000000000E+00 0.  1.
          1    1    1    2  502    0  0.56841101147E+02  0.84619534745E+02 -0.23481326836E+03  0.25598563913E+03  0.00000000000E+00 0. -1.
         22    1    1    2    0    0 -0.11573290162E+02 -0.16769933719E+02  0.76049056701E+02  0.78731383496E+02  0.00000000000E+00 0. -1.
         22    1    1    2    0    0  0.25617555021E+01  0.14252596384E+02 -0.47340025112E+02  0.49505323678E+02  0.00000000000E+00 0. -1.
</event>
<event>
 6    1  0.1726037E-005  0.4299400E+02  0.7818608E-02  0.1578411E+00
          2   -1    0    0  502    0  0.00000000000E+00  0.00000000000E+00  0.23728161284E+03  0.23728161284E+03  0.00000000000E+00 0.  1.
          1   -1    0    0  501    0 -0.00000000000E+00 -0.00000000000E+00 -0.66633116167E+02  0.66633116167E+02  0.00000000000E+00 0.  1.
          2    1    1    2  501    0  0.35621814823E+02 -0.28616790827E+02  0.11270910400E+03  0.12161898097E+03  0.00000000000E+00 0.  1.
          1    1    1    2  502    0  0.31594457937E+01  0.42014887466E+02 -0.11861190924E+01  0.42150204567E+02  0.00000000000E+00 0.  1.
         22    1    1    2    0    0  0.77006491515E+01 -0.10426501146E+02 -0.33800244020E+02  0.36200392529E+02  0.00000000000E+00 0.  1.
         22    1    1    2    0    0 -0.46481909768E+02 -0.29715954929E+01  0.92925755788E+02  0.10394515094E+03  0.00000000000E+00 0. -1.
</event>
<event>
 6    1  0.1726037E-005  0.4727891E+02  0.7818608E-02  0.1513511E+00
          2   -1    0    0  502    0  0.00000000000E+00  0.00000000000E+00  0.24579908258E+03  0.24579908258E+03  0.00000000000E+00 0.  1.
          1   -1    0    0  501    0 -0.00000000000E+00 -0.00000000000E+00 -0.10784229207E+03  0.10784229207E+03  0.00000000000E+00 0.  1.
          2    1    1    2  501    0 -0.78321985205E+02 -0.15504373512E+02  0.95082487218E+02  0.12415876264E+03  0.00000000000E+00 0.  1.
          1    1    1    2  502    0  0.65309056630E+02 -0.62419050717E+01 -0.36738955590E+02  0.75192985808E+02  0.00000000000E+00 0.  1.
         22    1    1    2    0    0  0.11582458026E+02 -0.82706778550E+01 -0.33952699707E+02  0.36814986941E+02  0.00000000000E+00 0.  1.
         22    1    1    2    0    0  0.14304705496E+01  0.30016956438E+02  0.11356595859E+03  0.11747463926E+03  0.00000000000E+00 0.  1.
</event>
<event>
 6    1  0.1726037E-005  0.8922070E+02  0.7818608E-02  0.1430196E+00
          2   -1    0    0  502    0  0.00000000000E+00  0.00000000000E+00  0.25012970163E+03  0.25012970163E+03  0.00000000000E+00 0.  1.
          1   -1    0    0  501    0 -0.00000000000E+00 -0.00000000000E+00 -0.17563927384E+03  0.17563927384E+03  0.00000000000E+00 0. -1.
          2    1    1    2  501    0  0.70456968026E+02  0.50686377891E+02  0.19135741730E+03  0.21012128498E+03  0.00000000000E+00 0.  1.
          1    1    1    2  502    0 -0.36853650845E+02 -0.27749361690E+02 -0.62135485213E+02  0.77388869855E+02  0.00000000000E+00 0. -1.
         22    1    1    2    0    0  0.52519174677E+01 -0.97146622523E+01  0.36546020571E+02  0.38178120951E+02  0.00000000000E+00 0.  1.
         22    1    1    2    0    0 -0.38855234648E+02 -0.13222353949E+02 -0.91277524868E+02  0.10008069969E+03  0.00000000000E+00 0. -1.
</event>
<event>
 6    1  0.1726037E-005  0.7795405E+02  0.7818608E-02  0.1362423E+00
          2   -1    0    0  502    0  0.00000000000E+00  0.00000000000E+00  0.33488141699E+03  0.33488141699E+03  0.00000000000E+00 0.  1.
          1   -1    0    0  501    0 -0.00000000000E+00 -0.00000000000E+00 -0.43198247739E+02  0.43198247739E+02  0.00000000000E+00 0. -1.
          2    1    1    2  501    0 -0.51427283167E+02  0.47205373551E+02  0.11729360720E+03  0.13649506598E+03  0.00000000000E+00 0.  1.
          1    1    1    2  502    0 -0.17984963220E+02 -0.16392532095E+02  0.27149324619E+02  0.36459015864E+02  0.00000000000E+00 0. -1.
         22    1    1    2    0    0  0.48251940218E+02  0.68913812001E+01  0.15385064195E+03  0.16138699111E+03  0.00000000000E+00 0. -1.
         22    1    1    2    0    0  0.21160306169E+02 -0.37704222657E+02 -0.66104045179E+01  0.43738591784E+02  0.00000000000E+00 0. -1.
</event>
<event>
 6    1  0.1726037E-005  0.1180087E+03  0.7818608E-02  0.1246548E+00
          2   -1    0    0  502    0  0.00000000000E+00  0.00000000000E+00  0.16403969393E+04  0.16403969393E+04  0.00000000000E+00 0. -1.
          1   -1    0    0  501    0 -0.00000000000E+00 -0.00000000000E+00 -0.34805136363E+02  0.34805136363E+02  0.00000000000E+00 0. -1.
          2    1    1    2  501    0 -0.84101314869E+02 -0.87658610260E+02  0.91597915174E+03  0.92399938828E+03  0.00000000000E+00 0. -1.
          1    1    1    2  502    0 -0.50353352654E+02  0.83831655779E+02  0.13132882910E+03  0.16373902402E+03  0.00000000000E+00 0. -1.
         22    1    1    2    0    0 -0.11214102191E+02  0.13699466404E+02  0.10559851085E+02  0.20614119497E+02  0.00000000000E+00 0. -1.
         22    1    1    2    0    0  0.14566876971E+03 -0.98725119240E+01  0.54772397102E+03  0.56684954387E+03  0.00000000000E+00 0. -1.
</event>
<event>
 6    1  0.1726037E-005  0.1780959E+03  0.7818608E-02  0.1303192E+00
          2   -1    0    0  502    0  0.00000000000E+00  0.00000000000E+00  0.51861873501E+03  0.51861873501E+03  0.00000000000E+00 0.  1.
          1   -1    0    0  501    0 -0.00000000000E+00 -0.00000000000E+00 -0.93530542224E+02  0.93530542224E+02  0.00000000000E+00 0.  1.
          2    1    1    2  501    0 -0.16020822701E+03  0.43058279045E+02  0.31523343403E+03  0.35622016973E+03  0.00000000000E+00 0.  1.
          1    1    1    2  502    0  0.69093346648E+02 -0.31714029009E+02  0.29215486106E+02  0.81444550557E+02  0.00000000000E+00 0.  1.
         22    1    1    2    0    0  0.10262455728E+03 -0.10475778851E+02  0.10826922958E+02  0.10372446173E+03  0.00000000000E+00 0.  1.
         22    1    1    2    0    0 -0.11509676917E+02 -0.86847118409E+00  0.69812349701E+02  0.70760095222E+02  0.00000000000E+00 0. -1.
</event>
<event>
 6    1  0.1726037E-005  0.1055358E+03  0.7818608E-02  0.1319218E+00
          2   -1    0    0  502    0  0.00000000000E+00  0.00000000000E+00  0.41881130903E+02  0.41881130903E+02  0.00000000000E+00 0. -1.
          1   -1    0    0  501    0 -0.00000000000E+00 -0.00000000000E+00 -0.81492984409E+03  0.81492984409E+03  0.00000000000E+00 0. -1.
          2    1    1    2  501    0  0.16527678881E+02  0.24648905085E+02 -0.69266224205E+02  0.75356104641E+02  0.00000000000E+00 0. -1.
          1    1    1    2  502    0  0.42841883816E+02 -0.19824306281E+01 -0.61696278101E+03  0.61845163933E+03  0.00000000000E+00 0. -1.
         22    1    1    2    0    0 -0.35463329784E+02  0.11248416410E+02 -0.10954745812E+03  0.11569278375E+03  0.00000000000E+00 0. -1.
         22    1    1    2    0    0 -0.23906232913E+02 -0.33914890867E+02  0.22727750145E+02  0.47310447274E+02  0.00000000000E+00 0. -1.
</event>
<event>
 6    1  0.1726037E-005  0.1656259E+03  0.7818608E-02  0.1252010E+00
          2   -1    0    0  502    0  0.00000000000E+00  0.00000000000E+00  0.48494993337E+03  0.48494993337E+03  0.00000000000E+00 0. -1.
          1   -1    0    0  501    0 -0.00000000000E+00 -0.00000000000E+00 -0.34611235061E+03  0.34611235061E+03  0.00000000000E+00 0. -1.
          2    1    1    2  501    0  0.67312343241E+02  0.18459420771E+03  0.24747888568E+03  0.31599330995E+03  0.00000000000E+00 0. -1.
          1    1    1    2  502    0 -0.36363364271E+02 -0.13817557589E+03 -0.26772631629E+03  0.30346690835E+03  0.00000000000E+00 0. -1.
         22    1    1    2    0    0 -0.25377808000E+02 -0.28508688778E+02  0.17971316177E+03  0.18372152565E+03  0.00000000000E+00 0. -1.
         22    1    1    2    0    0 -0.55711709700E+01 -0.17909943039E+02 -0.20628148406E+02  0.27880540029E+02  0.00000000000E+00 0.  1.
</event>
<event>
 6    1  0.1726037E-005  0.1041267E+03  0.7818608E-02  0.1275424E+00
          2   -1    0    0  502    0  0.00000000000E+00  0.00000000000E+00  0.14295502167E+03  0.14295502167E+03  0.00000000000E+00 0. -1.
          1   -1    0    0  501    0 -0.00000000000E+00 -0.00000000000E+00 -0.28411263621E+03  0.28411263621E+03  0.00000000000E+00 0.  1.
          2    1    1    2  501    0 -0.41200653667E+02 -0.31112578524E+02 -0.46835432930E+02  0.69706844590E+02  0.00000000000E+00 0. -1.
          1    1    1    2  502    0  0.84900797448E+02 -0.74619499461E+02 -0.13926152208E+03  0.17935993599E+03  0.00000000000E+00 0.  1.
         22    1    1    2    0    0 -0.46973089781E+00  0.18662259088E+02 -0.43023986083E+02  0.46899508951E+02  0.00000000000E+00 0. -1.
         22    1    1    2    0    0 -0.43230412883E+02  0.87069818897E+02  0.87963326558E+02  0.13110136834E+03  0.00000000000E+00 0. -1.
</event>
<event>
 6    1  0.1726037E-005  0.5359956E+02  0.7818608E-02  0.1449422E+00
          2   -1    0    0  502    0  0.00000000000E+00  0.00000000000E+00  0.93187018970E+02  0.93187018970E+02  0.00000000000E+00 0. -1.
          1   -1    0    0  501    0 -0.00000000000E+00 -0.00000000000E+00 -0.30256401537E+03  0.30256401537E+03  0.00000000000E+00 0. -1.
          2    1    1    2  501    0  0.30625580592E+02 -0.67899150826E+01 -0.22491488142E+02  0.38599173207E+02  0.00000000000E+00 0. -1.
          1    1    1    2  502    0 -0.48510878339E+02 -0.17956847833E+02 -0.21972968856E+03  0.22573632790E+03  0.00000000000E+00 0. -1.
         22    1    1    2    0    0  0.30476497167E+02  0.23048684006E+02  0.76735250125E+02  0.85722560191E+02  0.00000000000E+00 0. -1.
         22    1    1    2    0    0 -0.12591199421E+02  0.16980789099E+01 -0.43891069828E+02  0.45692973043E+02  0.00000000000E+00 0.  1.
</event>
<event>
 6    1  0.1726037E-005  0.4153960E+03  0.7818608E-02  0.1077284E+00
          2   -1    0    0  502    0  0.00000000000E+00  0.00000000000E+00  0.20208394968E+03  0.20208394968E+03  0.00000000000E+00 0. -1.
          1   -1    0    0  501    0 -0.00000000000E+00 -0.00000000000E+00 -0.15107580143E+04  0.15107580143E+04  0.00000000000E+00 0. -1.
          2    1    1    2  501    0 -0.44476627527E+03 -0.35333967097E+02 -0.24988181714E+03  0.51137701492E+03  0.00000000000E+00 0. -1.
          1    1    1    2  502    0  0.13953993591E+03  0.83279109723E+01 -0.65356751546E+02  0.15431219261E+03  0.00000000000E+00 0. -1.
         22    1    1    2    0    0  0.13391871396E+03 -0.40630942600E+02 -0.53757244528E+03  0.55549008035E+03  0.00000000000E+00 0. -1.
         22    1    1    2    0    0  0.17130762540E+03  0.67636998724E+02 -0.45586305065E+03  0.49166267610E+03  0.00000000000E+00 0. -1.
</event>
<event>
 6    1  0.1726037E-005  0.2214483E+03  0.7818608E-02  0.1204919E+00
          2   -1    0    0  502    0  0.00000000000E+00  0.00000000000E+00  0.62860877002E+03  0.62860877002E+03  0.00000000000E+00 0.  1.
          1   -1    0    0  501    0 -0.00000000000E+00 -0.00000000000E+00 -0.95397561854E+02  0.95397561854E+02  0.00000000000E+00 0. -1.
          2    1    1    2  501    0 -0.13272803462E+03 -0.16454224392E+03  0.17155020312E+03  0.27225053425E+03  0.00000000000E+00 0.  1.
          1    1    1    2  502    0  0.45788248368E+02  0.73039283979E+02  0.17811340211E+03  0.19787795406E+03  0.00000000000E+00 0. -1.
         22    1    1    2    0    0  0.56089182206E+02  0.12050954786E+03  0.14329688634E+03  0.19545471373E+03  0.00000000000E+00 0. -1.
         22    1    1    2    0    0  0.30850604043E+02 -0.29006587923E+02  0.40250716598E+02  0.58423129832E+02  0.00000000000E+00 0. -1.
</event>
<event>
 6    1  0.1726037E-005  0.2034506E+03  0.7818608E-02  0.1273635E+00
          2   -1    0    0  502    0  0.00000000000E+00  0.00000000000E+00  0.19190525169E+04  0.19190525169E+04  0.00000000000E+00 0.  1.
          1   -1    0    0  501    0 -0.00000000000E+00 -0.00000000000E+00 -0.91405209775E+02  0.91405209775E+02  0.00000000000E+00 0.  1.
          2    1    1    2  501    0  0.31056181962E+02  0.27848700884E+03  0.13960992949E+04  0.14239426750E+04  0.00000000000E+00 0.  1.
          1    1    1    2  502    0 -0.12430551211E+03 -0.15267126677E+03  0.24510680712E+03  0.31438467350E+03  0.00000000000E+00 0.  1.
         22    1    1    2    0    0 -0.97353202808E+01  0.50848718211E+01  0.65203688712E+02  0.66122261033E+02  0.00000000000E+00 0.  1.
         22    1    1    2    0    0  0.10298465043E+03 -0.13090061389E+03  0.12123751643E+03  0.20600811715E+03  0.00000000000E+00 0. -1.
</event>
<event>
 6    1  0.1726037E-005  0.3810663E+02  0.7818608E-02  0.1610972E+00
          2   -1    0    0  502    0  0.00000000000E+00  0.00000000000E+00  0.17667518465E+03  0.17667518465E+03  0.00000000000E+00 0. -1.
          1   -1    0    0  501    0 -0.00000000000E+00 -0.00000000000E+00 -0.11210545334E+03  0.11210545334E+03  0.00000000000E+00 0. -1.
          2    1    1    2  501    0 -0.16990237776E+02  0.16458300723E+02  0.89819033643E+02  0.92881659368E+02  0.00000000000E+00 0. -1.
          1    1    1    2  502    0 -0.24472273378E+02  0.21034089893E+02 -0.43331640588E+02  0.54027365084E+02  0.00000000000E+00 0. -1.
         22    1    1    2    0    0  0.29281805442E+02 -0.40503293215E+02 -0.51148456691E+02  0.71512974438E+02  0.00000000000E+00 0. -1.
         22    1    1    2    0    0  0.12180705711E+02  0.30109025988E+01  0.69230794947E+02  0.70358639093E+02  0.00000000000E+00 0. -1.
</event>
<event>
 6    1  0.1726037E-005  0.3468040E+02  0.7818608E-02  0.1606268E+00
          2   -1    0    0  502    0  0.00000000000E+00  0.00000000000E+00  0.13002287489E+03  0.13002287489E+03  0.00000000000E+00 0. -1.
          1   -1    0    0  501    0 -0.00000000000E+00 -0.00000000000E+00 -0.12218367223E+03  0.12218367223E+03  0.00000000000E+00 0.  1.
          2    1    1    2  501    0  0.49216757389E+02 -0.40282441786E+02  0.28650119931E+02  0.69755241353E+02  0.00000000000E+00 0. -1.
          1    1    1    2  502    0 -0.36766572219E+02  0.12480142836E+02 -0.35918251913E+02  0.52892869259E+02  0.00000000000E+00 0.  1.
         22    1    1    2    0    0 -0.10125767968E+01  0.23713929286E+02 -0.54213374693E+02  0.59181633550E+02  0.00000000000E+00 0.  1.
         22    1    1    2    0    0 -0.11437608373E+02  0.40883696637E+01  0.69320709334E+02  0.70376802956E+02  0.00000000000E+00 0. -1.
</event>
<event>
 6    1  0.1726037E-005  0.8102268E+02  0.7818608E-02  0.1427861E+00
          2   -1    0    0  502    0  0.00000000000E+00  0.00000000000E+00  0.25509275414E+03  0.25509275414E+03  0.00000000000E+00 0.  1.
          1   -1    0    0  501    0 -0.00000000000E+00 -0.00000000000E+00 -0.58265036362E+02  0.58265036362E+02  0.00000000000E+00 0.  1.
          2    1    1    2  501    0 -0.13669683106E+02 -0.67499901284E+02  0.12255229843E+03  0.14057795973E+03  0.00000000000E+00 0.  1.
          1    1    1    2  502    0 -0.18037713386E+01  0.20737352402E+02  0.60894043372E+00  0.20824557237E+02  0.00000000000E+00 0.  1.
         22    1    1    2    0    0  0.27807497896E+02  0.55779385560E+02 -0.13238915932E+02  0.63717075323E+02  0.00000000000E+00 0.  1.
         22    1    1    2    0    0 -0.12334043452E+02 -0.90168366773E+01  0.86905394843E+02  0.88238198216E+02  0.00000000000E+00 0.  1.
</event>
<event>
 6    1  0.1726037E-005  0.1307917E+03  0.7818608E-02  0.1287317E+00
          2   -1    0    0  502    0  0.00000000000E+00  0.00000000000E+00  0.24550567052E+03  0.24550567052E+03  0.00000000000E+00 0. -1.
          1   -1    0    0  501    0 -0.00000000000E+00 -0.00000000000E+00 -0.79003049701E+02  0.79003049701E+02  0.00000000000E+00 0. -1.
          2    1    1    2  501    0 -0.23748981641E+02  0.64195697281E+02  0.75635092493E+02  0.10200867068E+03  0.00000000000E+00 0. -1.
          1    1    1    2  502    0 -0.17764392778E+02 -0.52013986942E+02 -0.11920278012E+02  0.56241635078E+02  0.00000000000E+00 0. -1.
         22    1    1    2    0    0 -0.30268983553E+02 -0.24808763504E+02  0.81369205414E+02  0.90291935972E+02  0.00000000000E+00 0. -1.
         22    1    1    2    0    0  0.71782357972E+02  0.12627053164E+02  0.21418600921E+02  0.75966478483E+02  0.00000000000E+00 0.  1.
</event>
<event>
 6    1  0.1726037E-005  0.5852885E+02  0.7818608E-02  0.1474068E+00
          2   -1    0    0  502    0  0.00000000000E+00  0.00000000000E+00  0.52248176978E+03  0.52248176978E+03  0.00000000000E+00 0. -1.
          1   -1    0    0  501    0 -0.00000000000E+00 -0.00000000000E+00 -0.55162598948E+03  0.55162598948E+03  0.00000000000E+00 0. -1.
          2    1    1    2  501    0 -0.84581514827E+02 -0.11596602569E+02  0.46076157253E+03  0.46860403387E+03  0.00000000000E+00 0. -1.
          1    1    1    2  502    0  0.44213447494E+02  0.42502765233E+02 -0.45901630235E+03  0.46309532476E+03  0.00000000000E+00 0. -1.
         22    1    1    2    0    0  0.37052525442E+01 -0.13742989287E+02  0.49982930852E+02  0.51970107057E+02  0.00000000000E+00 0.  1.
         22    1    1    2    0    0  0.36662814789E+02 -0.17163173377E+02 -0.80872420732E+02  0.90438293569E+02  0.00000000000E+00 0. -1.
</event>
<event>
 6    1  0.1726037E-005  0.7598789E+02  0.7818608E-02  0.1373980E+00
          2   -1    0    0  502    0  0.00000000000E+00  0.00000000000E+00  0.38899277721E+03  0.38899277721E+03  0.00000000000E+00 0. -1.
          1   -1    0    0  501    0 -0.00000000000E+00 -0.00000000000E+00 -0.70529450959E+02  0.70529450959E+02  0.00000000000E+00 0.  1.
          2    1    1    2  501    0 -0.92031018454E+02  0.15706098155E+02  0.18626001491E+03  0.20834870537E+03  0.00000000000E+00 0. -1.
          1    1    1    2  502    0  0.36608210763E+02 -0.14222308115E+02 -0.23363861646E+02  0.45697977793E+02  0.00000000000E+00 0.  1.
         22    1    1    2    0    0  0.34808897170E+02  0.25983726757E+02  0.16437844148E+03  0.17002083814E+03  0.00000000000E+00 0.  1.
         22    1    1    2    0    0  0.20613910521E+02 -0.27467516798E+02 -0.88112684946E+01  0.35454706859E+02  0.00000000000E+00 0.  1.
</event>
<event>
 6    1  0.1726037E-005  0.7792415E+02  0.7818608E-02  0.1411882E+00
          2   -1    0    0  502    0  0.00000000000E+00  0.00000000000E+00  0.27336152547E+04  0.27336152547E+04  0.00000000000E+00 0. -1.
          1   -1    0    0  501    0 -0.00000000000E+00 -0.00000000000E+00 -0.86357516883E+02  0.86357516883E+02  0.00000000000E+00 0. -1.
          2    1    1    2  501    0 -0.93045867145E+02  0.12126908707E+02  0.26323886415E+04  0.26340604691E+04  0.00000000000E+00 0. -1.
          1    1    1    2  502    0  0.43443900984E+02 -0.31660812347E+01 -0.20033149783E+02  0.47945006970E+02  0.00000000000E+00 0. -1.
         22    1    1    2    0    0  0.27985007240E+02 -0.50906138640E+01 -0.46029452295E+02  0.54109014575E+02  0.00000000000E+00 0. -1.
         22    1    1    2    0    0  0.21616958921E+02 -0.38702136079E+01  0.80931698442E+02  0.83858280921E+02  0.00000000000E+00 0. -1.
</event>
<event>
 6    1  0.1726037E-005  0.7437844E+02  0.7818608E-02  0.1409254E+00
          2   -1    0    0  502    0  0.00000000000E+00  0.00000000000E+00  0.72679888318E+02  0.72679888318E+02  0.00000000000E+00 0. -1.
          1   -1    0    0  501    0 -0.00000000000E+00 -0.00000000000E+00 -0.26244075483E+03  0.26244075483E+03  0.00000000000E+00 0. -1.
          2    1    1    2  501    0 -0.75967132084E+01 -0.84152514280E+02 -0.80718578968E+02  0.11685394603E+03  0.00000000000E+00 0. -1.
          1    1    1    2  502    0  0.16552505888E+02  0.33383087613E+02 -0.66801698128E+02  0.76491063939E+02  0.00000000000E+00 0. -1.
         22    1    1    2    0    0 -0.14418250826E+02  0.25033246220E+02 -0.85996525944E+02  0.90719082048E+02  0.00000000000E+00 0. -1.
         22    1    1    2    0    0  0.54624581470E+01  0.25736180448E+02  0.43755936525E+02  0.51056551139E+02  0.00000000000E+00 0. -1.
</event>
<event>
 6    1  0.1726037E-005  0.1511680E+03  0.7818608E-02  0.1275174E+00
          2   -1    0    0  502    0  0.00000000000E+00  0.00000000000E+00  0.36697044154E+02  0.36697044154E+02  0.00000000000E+00 0.  1.
          1   -1    0    0  501    0 -0.00000000000E+00 -0.00000000000E+00 -0.74806554958E+03  0.74806554958E+03  0.00000000000E+00 0. -1.
          2    1    1    2  501    0  0.22566240679E+02  0.71243490834E+02 -0.12426582894E+03  0.14500643588E+03  0.00000000000E+00 0.  1.
          1    1    1    2  502    0  0.44434523184E+01 -0.85707821469E+02 -0.43548355755E+03  0.44385977946E+03  0.00000000000E+00 0. -1.
         22    1    1    2    0    0  0.34058954708E+01 -0.31741193068E+02  0.26265174415E+01  0.32031266837E+02  0.00000000000E+00 0.  1.
         22    1    1    2    0    0 -0.30415588468E+02  0.46205523703E+02 -0.15424563639E+03  0.16386511156E+03  0.00000000000E+00 0.  1.
</event>
<event>
 6    1  0.1726037E-005  0.1283071E+03  0.7818608E-02  0.1345705E+00
          2   -1    0    0  502    0  0.00000000000E+00  0.00000000000E+00  0.18668117967E+03  0.18668117967E+03  0.00000000000E+00 0.  1.
          1   -1    0    0  501    0 -0.00000000000E+00 -0.00000000000E+00 -0.13733768264E+03  0.13733768264E+03  0.00000000000E+00 0.  1.
          2    1    1    2  501    0  0.94005892435E+01  0.12148041174E+03  0.58431961821E+02  0.13513014348E+03  0.00000000000E+00 0.  1.
          1    1    1    2  502    0 -0.86768241988E+01 -0.36526384709E+02  0.17255535718E+01  0.37582463906E+02  0.00000000000E+00 0.  1.
         22    1    1    2    0    0  0.14464677154E+02 -0.11983481023E+01  0.46483472079E+02  0.48696777099E+02  0.00000000000E+00 0.  1.
         22    1    1    2    0    0 -0.15188442198E+02 -0.83755678928E+02 -0.57297490439E+02  0.10260947783E+03  0.00000000000E+00 0.  1.
</event>
<event>
 6    1  0.1726037E-005  0.5840430E+02  0.7818608E-02  0.1496560E+00
          2   -1    0    0  502    0  0.00000000000E+00  0.00000000000E+00  0.91497406977E+03  0.91497406977E+03  0.00000000000E+00 0. -1.
          1   -1    0    0  501    0 -0.00000000000E+00 -0.00000000000E+00 -0.85934069517E+02  0.85934069517E+02  0.00000000000E+00 0.  1.
          2    1    1    2  501    0  0.45008289574E+02  0.12100238583E+01  0.82517792321E+03  0.82640535770E+03  0.00000000000E+00 0. -1.
          1    1    1    2  502    0 -0.24440547930E+02  0.11396056905E+02 -0.32552316570E+02  0.42271311905E+02  0.00000000000E+00 0.  1.
         22    1    1    2    0    0 -0.16050580006E+02 -0.26986873143E+02 -0.41967366935E+02  0.52413474680E+02  0.00000000000E+00 0.  1.
         22    1    1    2    0    0 -0.45171616382E+01  0.14380792379E+02  0.78381760545E+02  0.79817994994E+02  0.00000000000E+00 0. -1.
</event>
<event>
 6    1  0.1726037E-005  0.8516831E+02  0.7818608E-02  0.1411496E+00
          2   -1    0    0  502    0  0.00000000000E+00  0.00000000000E+00  0.10466403140E+03  0.10466403140E+03  0.00000000000E+00 0.  1.
          1   -1    0    0  501    0 -0.00000000000E+00 -0.00000000000E+00 -0.12419411259E+03  0.12419411259E+03  0.00000000000E+00 0.  1.
          2    1    1    2  501    0 -0.24435157072E+02  0.18157999460E+02  0.44140403711E+02  0.53620565880E+02  0.00000000000E+00 0.  1.
          1    1    1    2  502    0 -0.14462374534E+02  0.18572726988E+02 -0.14120206045E+02  0.27449711905E+02  0.00000000000E+00 0.  1.
         22    1    1    2    0    0 -0.14119630362E+02 -0.93256457045E+01  0.38134175093E+02  0.41719862648E+02  0.00000000000E+00 0.  1.
         22    1    1    2    0    0  0.53017161967E+02 -0.27405080743E+02 -0.87684453956E+02  0.10606800356E+03  0.00000000000E+00 0.  1.
</event>
<event>
 6    1  0.1726037E-005  0.4196590E+02  0.7818608E-02  0.1538657E+00
          2   -1    0    0  502    0  0.00000000000E+00  0.00000000000E+00  0.52108976537E+02  0.52108976537E+02  0.00000000000E+00 0.  1.
          1   -1    0    0  501    0 -0.00000000000E+00 -0.00000000000E+00 -0.79619284315E+03  0.79619284315E+03  0.00000000000E+00 0.  1.
          2    1    1    2  501    0 -0.43029106782E+02 -0.57632840632E+02 -0.49733999295E+02  0.87444376810E+02  0.00000000000E+00 0.  1.
          1    1    1    2  502    0  0.21125375830E+01  0.60812992859E+02 -0.59022145963E+03  0.59334985828E+03  0.00000000000E+00 0.  1.
         22    1    1    2    0    0  0.14817501407E+02 -0.13633661722E+01  0.28592476029E+02  0.32232697695E+02  0.00000000000E+00 0. -1.
         22    1    1    2    0    0  0.26099067792E+02 -0.18167860543E+01 -0.13272088372E+03  0.13527488690E+03  0.00000000000E+00 0.  1.
</event>
<event>
 6    1  0.1726037E-005  0.5778075E+02  0.7818608E-02  0.1439023E+00
          2   -1    0    0  502    0  0.00000000000E+00  0.00000000000E+00  0.81759834867E+02  0.81759834867E+02  0.00000000000E+00 0. -1.
          1   -1    0    0  501    0 -0.00000000000E+00 -0.00000000000E+00 -0.31517478633E+03  0.31517478633E+03  0.00000000000E+00 0. -1.
          2    1    1    2  501    0  0.10184890041E+02  0.84851901446E+02 -0.83538854294E+02  0.11950864965E+03  0.00000000000E+00 0. -1.
          1    1    1    2  502    0 -0.14005077074E+02 -0.10057784314E+03 -0.94893757667E+02  0.13898514294E+03  0.00000000000E+00 0. -1.
         22    1    1    2    0    0  0.41615713437E+01 -0.22773256438E+02 -0.85961397014E+02  0.89024163357E+02  0.00000000000E+00 0.  1.
         22    1    1    2    0    0 -0.34138431018E+00  0.38499198129E+02  0.30979057514E+02  0.49416665249E+02  0.00000000000E+00 0. -1.
</event>
<event>
 6    1  0.1726037E-005  0.2194435E+03  0.7818608E-02  0.1180240E+00
          2   -1    0    0  502    0  0.00000000000E+00  0.00000000000E+00  0.68874118938E+03  0.68874118938E+03  0.00000000000E+00 0.  1.
          1   -1    0    0  501    0 -0.00000000000E+00 -0.00000000000E+00 -0.15405678408E+03  0.15405678408E+03  0.00000000000E+00 0. -1.
          2    1    1    2  501    0  0.16794879432E+03 -0.71696228087E+02  0.34772269727E+02  0.18589313430E+03  0.00000000000E+00 0.  1.
          1    1    1    2  502    0 -0.22228507281E+03  0.35859557796E+02  0.12489393592E+03  0.25747826454E+03  0.00000000000E+00 0. -1.
         22    1    1    2    0    0  0.74769100870E+02  0.42769556331E+01  0.33964961088E+03  0.34780823591E+03  0.00000000000E+00 0.  1.
         22    1    1    2    0    0 -0.20432822382E+02  0.31559714658E+02  0.35368588772E+02  0.51618338713E+02  0.00000000000E+00 0. -1.
</event>
<event>
 6    1  0.1726037E-005  0.3642684E+02  0.7818608E-02  0.1589402E+00
          2   -1    0    0  502    0  0.00000000000E+00  0.00000000000E+00  0.15977102888E+03  0.15977102888E+03  0.00000000000E+00 0. -1.
          1   -1    0    0  501    0 -0.00000000000E+00 -0.00000000000E+00 -0.14982904674E+03  0.14982904674E+03  0.00000000000E+00 0.  1.
          2    1    1    2  501    0  0.52216273136E+02 -0.31093800692E+02  0.10069531249E+03  0.11761339031E+03  0.00000000000E+00 0. -1.
          1    1    1    2  502    0 -0.29817234785E+02  0.60771923492E+01 -0.49718296710E+02  0.58291584168E+02  0.00000000000E+00 0.  1.
         22    1    1    2    0    0 -0.74105143616E+01  0.30284151071E+02  0.40227024915E+02  0.50894587754E+02  0.00000000000E+00 0. -1.
         22    1    1    2    0    0 -0.14988523989E+02 -0.52675427285E+01 -0.81262058555E+02  0.82800513395E+02  0.00000000000E+00 0. -1.
</event>
<event>
 6    1  0.1726037E-005  0.1359705E+03  0.7818608E-02  0.1296610E+00
          2   -1    0    0  502    0  0.00000000000E+00  0.00000000000E+00  0.12343985832E+04  0.12343985832E+04  0.00000000000E+00 0. -1.
          1   -1    0    0  501    0 -0.00000000000E+00 -0.00000000000E+00 -0.35870650931E+03  0.35870650931E+03  0.00000000000E+00 0.  1.
          2    1    1    2  501    0 -0.10978671159E+03 -0.86849771316E+02  0.11894697679E+04  0.11976787272E+04  0.00000000000E+00 0. -1.
          1    1    1    2  502    0  0.51672990706E+02  0.60884257243E+01 -0.17222750979E+03  0.17991520787E+03  0.00000000000E+00 0.  1.
         22    1    1    2    0    0  0.61575738139E+02  0.51682529226E+02 -0.16127693990E+03  0.18020240480E+03  0.00000000000E+00 0. -1.
         22    1    1    2    0    0 -0.34620172505E+01  0.29078816365E+02  0.19726755704E+02  0.35308752672E+02  0.00000000000E+00 0. -1.
</event>
<event>
 6    1  0.1726037E-005  0.4013915E+02  0.7818608E-02  0.1516459E+00
          2   -1    0    0  502    0  0.00000000000E+00  0.00000000000E+00  0.14774460287E+03  0.14774460287E+03  0.00000000000E+00 0. -1.
          1   -1    0    0  501    0 -0.00000000000E+00 -0.00000000000E+00 -0.15321388559E+03  0.15321388559E+03  0.00000000000E+00 0. -1.
          2    1    1    2  501    0  0.42634592940E+02  0.35683274504E+02  0.92123613710E+01  0.56354877309E+02  0.00000000000E+00 0. -1.
          1    1    1    2  502    0 -0.26815165965E+02  0.67364563399E+01 -0.85927605915E+02  0.90266197594E+02  0.00000000000E+00 0. -1.
         22    1    1    2    0    0 -0.89109381648E+01 -0.76895340168E+01 -0.37850355861E+02  0.39638153226E+02  0.00000000000E+00 0.  1.
         22    1    1    2    0    0 -0.69084888095E+01 -0.34730196827E+02  0.10909631768E+03  0.11469926033E+03  0.00000000000E+00 0. -1.
</event>
<event>
 6    1  0.1726037E-005  0.4021966E+02  0.7818608E-02  0.1514408E+00
          2   -1    0    0  502    0  0.00000000000E+00  0.00000000000E+00  0.11718073702E+03  0.11718073702E+03  0.00000000000E+00 0.  1.
          1   -1    0    0  501    0 -0.00000000000E+00 -0.00000000000E+00 -0.13019265304E+03  0.13019265304E+03  0.00000000000E+00 0.  1.
          2    1    1    2  501    0 -0.37538618236E+02  0.41832135050E+02  0.20012232593E+02  0.59662088761E+02  0.00000000000E+00 0.  1.
          1    1    1    2  502    0 -0.60488424846E+01 -0.21204379192E+02 -0.51053548850E+02  0.55611860628E+02  0.00000000000E+00 0.  1.
         22    1    1    2    0    0  0.67259372585E+01 -0.11250587996E+02 -0.51339932249E+02  0.52986815394E+02  0.00000000000E+00 0.  1.
         22    1    1    2    0    0  0.36861523463E+02 -0.93771678617E+01  0.69369332483E+02  0.79112625277E+02  0.00000000000E+00 0.  1.
</event>
<event>
 6    1  0.1726037E-005  0.8812783E+02  0.7818608E-02  0.1353012E+00
          2   -1    0    0  502    0  0.00000000000E+00  0.00000000000E+00  0.61241448936E+02  0.61241448936E+02  0.00000000000E+00 0.  1.
          1   -1    0    0  501    0 -0.00000000000E+00 -0.00000000000E+00 -0.27851679994E+03  0.27851679994E+03  0.00000000000E+00 0. -1.
          2    1    1    2  501    0 -0.27660527424E+02 -0.42929296781E+02  0.54185126097E+00  0.51071742699E+02  0.00000000000E+00 0.  1.
          1    1    1    2  502    0  0.27937377121E+02  0.23297648865E+02 -0.13031789469E+03  0.13529978256E+03  0.00000000000E+00 0. -1.
         22    1    1    2    0    0  0.35659435895E+02 -0.17076637067E+02  0.12076756772E+02  0.41340717895E+02  0.00000000000E+00 0. -1.
         22    1    1    2    0    0 -0.35936285592E+02  0.36708284983E+02 -0.99576064342E+02  0.11204600572E+03  0.00000000000E+00 0.  1.
</event>
<event>
 6    1  0.1726037E-005  0.7817206E+02  0.7818608E-02  0.1446583E+00
          2   -1    0    0  502    0  0.00000000000E+00  0.00000000000E+00  0.78157993743E+02  0.78157993743E+02  0.00000000000E+00 0. -1.
          1   -1    0    0  501    0 -0.00000000000E+00 -0.00000000000E+00 -0.14242191786E+03  0.14242191786E+03  0.00000000000E+00 0. -1.
          2    1    1    2  501    0  0.27647566113E+02 -0.42130096205E+02 -0.34862980666E+01  0.50512247944E+02  0.00000000000E+00 0. -1.
          1    1    1    2  502    0  0.97333664872E+01  0.23564491671E+02 -0.16322386397E+02  0.30272825910E+02  0.00000000000E+00 0. -1.
         22    1    1    2    0    0  0.64492399136E+01 -0.11108648909E+02  0.38949145694E+02  0.41012567907E+02  0.00000000000E+00 0. -1.
         22    1    1    2    0    0 -0.43830172513E+02  0.29674253443E+02 -0.83404385352E+02  0.98782269846E+02  0.00000000000E+00 0. -1.
</event>
<event>
 6    1  0.1726037E-005  0.2138423E+02  0.7818608E-02  0.1745324E+00
          2   -1    0    0  502    0  0.00000000000E+00  0.00000000000E+00  0.23356952651E+03  0.23356952651E+03  0.00000000000E+00 0. -1.
          1   -1    0    0  501    0 -0.00000000000E+00 -0.00000000000E+00 -0.91249514597E+02  0.91249514597E+02  0.00000000000E+00 0. -1.
          2    1    1    2  501    0  0.16530182862E+02  0.23382146132E+02  0.13380047182E+03  0.13683032545E+03  0.00000000000E+00 0. -1.
          1    1    1    2  502    0 -0.90856451713E+01 -0.33606461281E+02 -0.39696414280E+02  0.52799133466E+02  0.00000000000E+00 0. -1.
         22    1    1    2    0    0  0.10764241032E+02  0.86957084220E+01 -0.41440592709E+02  0.43689895331E+02  0.00000000000E+00 0. -1.
         22    1    1    2    0    0 -0.18208778723E+02  0.15286067275E+01  0.89656547083E+02  0.91499686862E+02  0.00000000000E+00 0. -1.
</event>
<event>
 6    1  0.1726037E-005  0.9913556E+02  0.7818608E-02  0.1388985E+00
          2   -1    0    0  502    0  0.00000000000E+00  0.00000000000E+00  0.66622888156E+02  0.66622888156E+02  0.00000000000E+00 0. -1.
          1   -1    0    0  501    0 -0.00000000000E+00 -0.00000000000E+00 -0.30306700501E+03  0.30306700501E+03  0.00000000000E+00 0.  1.
          2    1    1    2  501    0 -0.75519846763E+02  0.58408956277E+02 -0.31624360072E+02  0.10057312553E+03  0.00000000000E+00 0. -1.
          1    1    1    2  502    0  0.21282128242E+02 -0.26359185368E+01 -0.39927168476E+02  0.45321692726E+02  0.00000000000E+00 0.  1.
         22    1    1    2    0    0  0.12646507177E+02  0.86525413878E+01  0.19085229332E+02  0.24475428391E+02  0.00000000000E+00 0.  1.
         22    1    1    2    0    0  0.41591211344E+02 -0.64425579128E+02 -0.18397781764E+03  0.19931964652E+03  0.00000000000E+00 0.  1.
</event>
<event>
 6    1  0.1726037E-005  0.1034708E+03  0.7818608E-02  0.1388578E+00
          2   -1    0    0  502    0  0.00000000000E+00  0.00000000000E+00  0.12753802138E+03  0.12753802138E+03  0.00000000000E+00 0. -1.
          1   -1    0    0  501    0 -0.00000000000E+00 -0.00000000000E+00 -0.14104373455E+03  0.14104373455E+03  0.00000000000E+00 0.  1.
          2    1    1    2  501    0 -0.67842163771E+02 -0.39845694186E+02  0.45943490647E+02  0.91110059067E+02  0.00000000000E+00 0. -1.
          1    1    1    2  502    0  0.21473198327E+02  0.10488210670E+02  0.24740297459E+01  0.24025437200E+02  0.00000000000E+00 0.  1.
         22    1    1    2    0    0 -0.12584519137E+02 -0.50644016994E+01  0.33485887652E+02  0.36129253498E+02  0.00000000000E+00 0. -1.
         22    1    1    2    0    0  0.58953484580E+02  0.34421885216E+02 -0.95409121210E+02  0.11731700617E+03  0.00000000000E+00 0.  1.
</event>
<event>
 6    1  0.1726037E-005  0.9797764E+02  0.7818608E-02  0.1292293E+00
          2   -1    0    0  502    0  0.00000000000E+00  0.00000000000E+00  0.47632511736E+03  0.47632511736E+03  0.00000000000E+00 0.  1.
          1   -1    0    0  501    0 -0.00000000000E+00 -0.00000000000E+00 -0.11215547303E+03  0.11215547303E+03  0.00000000000E+00 0.  1.
          2    1    1    2  501    0 -0.62878309687E+02 -0.75484392588E+02  0.99849934302E+02  0.14007706712E+03  0.00000000000E+00 0.  1.
          1    1    1    2  502    0  0.93498444935E+02  0.57521618313E+01 -0.45917161621E+02  0.10432369003E+03  0.00000000000E+00 0.  1.
         22    1    1    2    0    0 -0.40309120486E+02  0.74620312847E+02  0.31903099327E+03  0.33011178554E+03  0.00000000000E+00 0.  1.
         22    1    1    2    0    0  0.96889852382E+01 -0.48880820909E+01 -0.87941216199E+01  0.13968047700E+02  0.00000000000E+00 0.  1.
</event>
<event>
 6    1  0.1726037E-005  0.9364249E+02  0.7818608E-02  0.1345010E+00
          2   -1    0    0  502    0  0.00000000000E+00  0.00000000000E+00  0.59175085318E+02  0.59175085318E+02  0.00000000000E+00 0.  1.
          1   -1    0    0  501    0 -0.00000000000E+00 -0.00000000000E+00 -0.76163488700E+03  0.76163488700E+03  0.00000000000E+00 0.  1.
          2    1    1    2  501    0 -0.52523439267E+02 -0.51325854039E+02 -0.27572551784E+01  0.73489165334E+02  0.00000000000E+00 0.  1.
          1    1    1    2  502    0  0.59645261177E+02  0.27345959848E+02 -0.54324342443E+03  0.54719171859E+03  0.00000000000E+00 0.  1.
         22    1    1    2    0    0  0.27333535860E+02  0.84719019308E+01 -0.15966468866E+03  0.16220884103E+03  0.00000000000E+00 0.  1.
         22    1    1    2    0    0 -0.34455357770E+02  0.15507992261E+02  0.32055665884E+01  0.37920247364E+02  0.00000000000E+00 0.  1.
</event>
<event>
 6    1  0.1726037E-005  0.4083507E+02  0.7818608E-02  0.1526050E+00
          2   -1    0    0  502    0  0.00000000000E+00  0.00000000000E+00  0.45256570865E+03  0.45256570865E+03  0.00000000000E+00 0. -1.
          1   -1    0    0  501    0 -0.00000000000E+00 -0.00000000000E+00 -0.44404764585E+03  0.44404764585E+03  0.00000000000E+00 0. -1.
          2    1    1    2  501    0  0.42740108555E+02 -0.24596722241E+02  0.38904083833E+03  0.39215365549E+03  0.00000000000E+00 0. -1.
          1    1    1    2  502    0 -0.78626460403E+02  0.15316019168E+01 -0.36687053812E+03  0.37520455463E+03  0.00000000000E+00 0. -1.
         22    1    1    2    0    0  0.13430701723E+02  0.12224063922E+02 -0.67507300790E+02  0.69907418401E+02  0.00000000000E+00 0. -1.
         22    1    1    2    0    0  0.22455650125E+02  0.10841056402E+02  0.53855063377E+02  0.59347725970E+02  0.00000000000E+00 0. -1.
</event>
<event>
 6    1  0.1726037E-005  0.6526046E+02  0.7818608E-02  0.1401194E+00
          2   -1    0    0  502    0  0.00000000000E+00  0.00000000000E+00  0.92570076149E+02  0.92570076149E+02  0.00000000000E+00 0.  1.
          1   -1    0    0  501    0 -0.00000000000E+00 -0.00000000000E+00 -0.40574953489E+03  0.40574953489E+03  0.00000000000E+00 0.  1.
          2    1    1    2  501    0 -0.55773100003E+02  0.23301849317E+02 -0.33993730364E+03  0.34526943866E+03  0.00000000000E+00 0.  1.
          1    1    1    2  502    0  0.15023629597E+02 -0.14850656269E+02  0.32858091949E+01  0.21378680501E+02  0.00000000000E+00 0.  1.
         22    1    1    2    0    0  0.81189722030E+02 -0.26312951311E+02  0.14856706791E+02  0.86630618760E+02  0.00000000000E+00 0.  1.
         22    1    1    2    0    0 -0.40440251624E+02  0.17861758263E+02  0.86153289086E+01  0.45040873125E+02  0.00000000000E+00 0. -1.
</event>
<event>
 6    1  0.1726037E-005  0.9949478E+02  0.7818608E-02  0.1342853E+00
          2   -1    0    0  502    0  0.00000000000E+00  0.00000000000E+00  0.18510408431E+03  0.18510408431E+03  0.00000000000E+00 0. -1.
          1   -1    0    0  501    0 -0.00000000000E+00 -0.00000000000E+00 -0.87525640719E+02  0.87525640719E+02  0.00000000000E+00 0.  1.
          2    1    1    2  501    0  0.47823801696E+01 -0.54662117942E+02  0.80635752125E+02  0.97534316108E+02  0.00000000000E+00 0. -1.
          1    1    1    2  502    0  0.35684665767E+02  0.23540048502E+02  0.46556870522E+01  0.43002379891E+02  0.00000000000E+00 0.  1.
         22    1    1    2    0    0 -0.15139836412E+02  0.51796350657E+02 -0.42230570376E+02  0.68523701464E+02  0.00000000000E+00 0.  1.
         22    1    1    2    0    0 -0.25327209524E+02 -0.20674281217E+02  0.54517574793E+02  0.63569327568E+02  0.00000000000E+00 0. -1.
</event>
<event>
 6    1  0.1726037E-005  0.9419155E+02  0.7818608E-02  0.1371579E+00
          2   -1    0    0  502    0  0.00000000000E+00  0.00000000000E+00  0.87969264810E+02  0.87969264810E+02  0.00000000000E+00 0.  1.
          1   -1    0    0  501    0 -0.00000000000E+00 -0.00000000000E+00 -0.17283848629E+03  0.17283848629E+03  0.00000000000E+00 0.  1.
          2    1    1    2  501    0  0.69886283192E+01  0.36953887967E+02  0.16953044638E+02  0.41253320887E+02  0.00000000000E+00 0.  1.
          1    1    1    2  502    0 -0.24623983330E+01  0.24654788351E+02 -0.76585202538E+02  0.80493572675E+02  0.00000000000E+00 0.  1.
         22    1    1    2    0    0  0.23208482014E+02 -0.49360174123E+01  0.41132869520E+02  0.47485901700E+02  0.00000000000E+00 0. -1.
         22    1    1    2    0    0 -0.27734712001E+02 -0.56672658906E+02 -0.66369933103E+02  0.91574955841E+02  0.00000000000E+00 0.  1.
</event>
<event>
 6    1  0.1726037E-005  0.3861144E+02  0.7818608E-02  0.1582124E+00
          2   -1    0    0  502    0  0.00000000000E+00  0.00000000000E+00  0.10102242485E+03  0.10102242485E+03  0.00000000000E+00 0. -1.
          1   -1    0    0  501    0 -0.00000000000E+00 -0.00000000000E+00 -0.45320543025E+03  0.45320543025E+03  0.00000000000E+00 0. -1.
          2    1    1    2  501    0  0.34089518020E+02 -0.33854013753E+02  0.61991927452E+02  0.78429513292E+02  0.00000000000E+00 0. -1.
          1    1    1    2  502    0 -0.49727156125E+02  0.26213554229E+02 -0.29015143483E+03  0.29554660481E+03  0.00000000000E+00 0. -1.
         22    1    1    2    0    0 -0.90802565524E+01 -0.96240845852E+01  0.24958827559E+02  0.28249197091E+02  0.00000000000E+00 0.  1.
         22    1    1    2    0    0  0.24717894658E+02  0.17264544110E+02 -0.14898232559E+03  0.15200253991E+03  0.00000000000E+00 0.  1.
</event>
<event>
 6    1  0.1726037E-005  0.7244908E+02  0.7818608E-02  0.1353858E+00
          2   -1    0    0  502    0  0.00000000000E+00  0.00000000000E+00  0.26187508702E+03  0.26187508702E+03  0.00000000000E+00 0.  1.
          1   -1    0    0  501    0 -0.00000000000E+00 -0.00000000000E+00 -0.61519328795E+02  0.61519328795E+02  0.00000000000E+00 0.  1.
          2    1    1    2  501    0 -0.42087839490E+02 -0.19221873551E+02  0.11720995749E+03  0.12601206605E+03  0.00000000000E+00 0.  1.
          1    1    1    2  502    0  0.25528769576E+02  0.73263620828E+01 -0.21317564384E+02  0.34056309381E+02  0.00000000000E+00 0.  1.
         22    1    1    2    0    0  0.28361685898E+02  0.31032583515E+02 -0.12784803725E+02  0.43941525609E+02  0.00000000000E+00 0. -1.
         22    1    1    2    0    0 -0.11802615984E+02 -0.19137072047E+02  0.11724816884E+03  0.11938451477E+03  0.00000000000E+00 0.  1.
</event>
<event>
 6    1  0.1726037E-005  0.5547719E+02  0.7818608E-02  0.1420435E+00
          2   -1    0    0  502    0  0.00000000000E+00  0.00000000000E+00  0.24588818449E+03  0.24588818449E+03  0.00000000000E+00 0. -1.
          1   -1    0    0  501    0 -0.00000000000E+00 -0.00000000000E+00 -0.76550209380E+03  0.76550209380E+03  0.00000000000E+00 0. -1.
          2    1    1    2  501    0 -0.49856456081E+02 -0.11322814348E+02 -0.64794091793E+03  0.64995484879E+03  0.00000000000E+00 0. -1.
          1    1    1    2  502    0  0.64024826687E+02 -0.36342819538E+02 -0.83018055561E+02  0.11095934622E+03  0.00000000000E+00 0. -1.
         22    1    1    2    0    0 -0.26653534917E+02  0.46176634125E+02  0.22539864097E+03  0.23161873805E+03  0.00000000000E+00 0. -1.
         22    1    1    2    0    0  0.12485164311E+02  0.14889997607E+01 -0.14053576793E+02  0.18857345222E+02  0.00000000000E+00 0. -1.
</event>
<event>
 6    1  0.1726037E-005  0.4166793E+02  0.7818608E-02  0.1527954E+00
          2   -1    0    0  502    0  0.00000000000E+00  0.00000000000E+00  0.39435944595E+03  0.39435944595E+03  0.00000000000E+00 0.  1.
          1   -1    0    0  501    0 -0.00000000000E+00 -0.00000000000E+00 -0.74985425792E+02  0.74985425792E+02  0.00000000000E+00 0. -1.
          2    1    1    2  501    0  0.42126947722E+02 -0.73322125402E+00  0.29767103443E+03  0.30063809153E+03  0.00000000000E+00 0.  1.
          1    1    1    2  502    0 -0.31220347853E+02 -0.23462209818E+02  0.62622279892E+01  0.39552508252E+02  0.00000000000E+00 0. -1.
         22    1    1    2    0    0 -0.38024765354E+02  0.22756054633E+02  0.61430170431E+02  0.75745538759E+02  0.00000000000E+00 0. -1.
         22    1    1    2    0    0  0.27118165485E+02  0.14393764386E+01 -0.45989412687E+02  0.53408733210E+02  0.00000000000E+00 0. -1.
</event>
<event>
 6    1  0.1726037E-005  0.6484047E+02  0.7818608E-02  0.1455358E+00
          2   -1    0    0  502    0  0.00000000000E+00  0.00000000000E+00  0.21675654322E+03  0.21675654322E+03  0.00000000000E+00 0. -1.
          1   -1    0    0  501    0 -0.00000000000E+00 -0.00000000000E+00 -0.14352886734E+03  0.14352886734E+03  0.00000000000E+00 0. -1.
          2    1    1    2  501    0 -0.51813431893E+02  0.43467806443E+02  0.15137807687E+03  0.16579928854E+03  0.00000000000E+00 0. -1.
          1    1    1    2  502    0  0.12502551084E+02  0.26300989525E+02 -0.32217830605E+01  0.29299073700E+02  0.00000000000E+00 0. -1.
         22    1    1    2    0    0  0.11885311110E+02 -0.15813854289E+02 -0.98326451636E+02  0.10029670832E+03  0.00000000000E+00 0. -1.
         22    1    1    2    0    0  0.27425569700E+02 -0.53954941680E+02  0.23397833702E+02  0.64890340013E+02  0.00000000000E+00 0. -1.
</event>
<event>
 6    1  0.1726037E-005  0.4065079E+02  0.7818608E-02  0.1565592E+00
          2   -1    0    0  502    0  0.00000000000E+00  0.00000000000E+00  0.23860222109E+03  0.23860222109E+03  0.00000000000E+00 0. -1.
          1   -1    0    0  501    0 -0.00000000000E+00 -0.00000000000E+00 -0.65687024497E+02  0.65687024497E+02  0.00000000000E+00 0. -1.
          2    1    1    2  501    0  0.25918949656E+02 -0.62418430007E+02  0.78878378713E+02  0.10387324479E+03  0.00000000000E+00 0. -1.
          1    1    1    2  502    0 -0.36677721335E+02  0.14084558063E+02  0.36566599543E+02  0.53672583507E+02  0.00000000000E+00 0. -1.
         22    1    1    2    0    0  0.49695266402E+01  0.14999543251E+02 -0.40298718206E+02  0.43285900496E+02  0.00000000000E+00 0. -1.
         22    1    1    2    0    0  0.57892450393E+01  0.33334328693E+02  0.97768936538E+02  0.10345751678E+03  0.00000000000E+00 0. -1.
</event>
<event>
 6    1  0.1726037E-005  0.8181014E+02  0.7818608E-02  0.1421174E+00
          2   -1    0    0  502    0  0.00000000000E+00  0.00000000000E+00  0.21739833145E+03  0.21739833145E+03  0.00000000000E+00 0.  1.
          1   -1    0    0  501    0 -0.00000000000E+00 -0.00000000000E+00 -0.10925435608E+03  0.10925435608E+03  0.00000000000E+00 0.  1.
          2    1    1    2  501    0 -0.67826788341E+02  0.35922009166E+01  0.13083019167E+03  0.14741070577E+03  0.00000000000E+00 0.  1.
          1    1    1    2  502    0  0.42570062510E+02 -0.78798245768E+01 -0.26451933650E+02  0.50734669125E+02  0.00000000000E+00 0.  1.
         22    1    1    2    0    0 -0.88226650091E+01  0.13869842931E+02  0.59915447921E+02  0.62129484630E+02  0.00000000000E+00 0.  1.
         22    1    1    2    0    0  0.34079390841E+02 -0.95822192710E+01 -0.56149730578E+02  0.66377828002E+02  0.00000000000E+00 0.  1.
</event>
<event>
 6    1  0.1726037E-005  0.1013183E+03  0.7818608E-02  0.1405834E+00
          2   -1    0    0  502    0  0.00000000000E+00  0.00000000000E+00  0.10587786323E+03  0.10587786323E+03  0.00000000000E+00 0.  1.
          1   -1    0    0  501    0 -0.00000000000E+00 -0.00000000000E+00 -0.24714259880E+03  0.24714259880E+03  0.00000000000E+00 0.  1.
          2    1    1    2  501    0  0.54836937882E+01  0.90047644372E+02  0.48390055924E+02  0.10237307589E+03  0.00000000000E+00 0.  1.
          1    1    1    2  502    0 -0.33880742444E+01 -0.23557457454E+02 -0.21368884982E+02  0.31985341865E+02  0.00000000000E+00 0.  1.
         22    1    1    2    0    0 -0.12505265878E+02 -0.69986921904E+02 -0.18526683027E+03  0.19843978762E+03  0.00000000000E+00 0.  1.
         22    1    1    2    0    0  0.10409646334E+02  0.34967349863E+01  0.16980923764E+02  0.20222256656E+02  0.00000000000E+00 0.  1.
</event>
<event>
 6    1  0.1726037E-005  0.1771472E+03  0.7818608E-02  0.1295142E+00
          2   -1    0    0  502    0  0.00000000000E+00  0.00000000000E+00  0.98752063458E+02  0.98752063458E+02  0.00000000000E+00 0.  1.
          1   -1    0    0  501    0 -0.00000000000E+00 -0.00000000000E+00 -0.58057690253E+03  0.58057690253E+03  0.00000000000E+00 0. -1.
          2    1    1    2  501    0 -0.57653742559E+02 -0.12083714329E+03  0.13285432837E+02  0.13454394061E+03  0.00000000000E+00 0.  1.
          1    1    1    2  502    0  0.54138979964E+02  0.11283722388E+02 -0.17154744444E+03  0.18024116410E+03  0.00000000000E+00 0. -1.
         22    1    1    2    0    0  0.34052790627E+01  0.12316103648E+03 -0.32788198776E+03  0.35026680506E+03  0.00000000000E+00 0. -1.
         22    1    1    2    0    0  0.10948353149E+00 -0.13607615582E+02  0.43191602919E+01  0.14277056212E+02  0.00000000000E+00 0. -1.
</event>
<event>
 6    1  0.1726037E-005  0.6270776E+02  0.7818608E-02  0.1489493E+00
          2   -1    0    0  502    0  0.00000000000E+00  0.00000000000E+00  0.54331472411E+02  0.54331472411E+02  0.00000000000E+00 0. -1.
          1   -1    0    0  501    0 -0.00000000000E+00 -0.00000000000E+00 -0.32233678032E+03  0.32233678032E+03  0.00000000000E+00 0.  1.
          2    1    1    2  501    0  0.40375694486E+02  0.39265873119E+02 -0.39285241029E+02  0.68668301710E+02  0.00000000000E+00 0. -1.
          1    1    1    2  502    0 -0.35781766467E+02 -0.26260832623E+02 -0.15748921705E+03  0.16362401911E+03  0.00000000000E+00 0.  1.
         22    1    1    2    0    0 -0.16714451096E+02 -0.72136827207E+01 -0.10576546397E+03  0.10732075038E+03  0.00000000000E+00 0.  1.
         22    1    1    2    0    0  0.12120523078E+02 -0.57913577749E+01  0.34534614140E+02  0.37055181532E+02  0.00000000000E+00 0. -1.
</event>
<event>
 6    1  0.1726037E-005  0.9145346E+02  0.7818608E-02  0.1330922E+00
          2   -1    0    0  502    0  0.00000000000E+00  0.00000000000E+00  0.13040827243E+03  0.13040827243E+03  0.00000000000E+00 0. -1.
          1   -1    0    0  501    0 -0.00000000000E+00 -0.00000000000E+00 -0.12732798204E+03  0.12732798204E+03  0.00000000000E+00 0. -1.
          2    1    1    2  501    0  0.43309145232E+02  0.46739953116E+02 -0.44326933656E+02  0.77622047933E+02  0.00000000000E+00 0. -1.
          1    1    1    2  502    0 -0.27275564524E+02 -0.44925552407E+02  0.15901955331E+02  0.54910234588E+02  0.00000000000E+00 0. -1.
         22    1    1    2    0    0 -0.67850032563E+02 -0.18093185335E+01  0.81310270051E+01  0.68359448158E+02  0.00000000000E+00 0. -1.
         22    1    1    2    0    0  0.51816451855E+02 -0.50821760931E-02  0.23374241711E+02  0.56844523784E+02  0.00000000000E+00 0. -1.
</event>
<event>
 6    1  0.1726037E-005  0.6137284E+03  0.7818608E-02  0.1097092E+00
          2   -1    0    0  502    0  0.00000000000E+00  0.00000000000E+00  0.12097946095E+03  0.12097946095E+03  0.00000000000E+00 0.  1.
          1   -1    0    0  501    0 -0.00000000000E+00 -0.00000000000E+00 -0.35354193471E+04  0.35354193471E+04  0.00000000000E+00 0.  1.
          2    1    1    2  501    0 -0.40377188072E+03  0.45982734418E+03 -0.16688598858E+04  0.17775168738E+04  0.00000000000E+00 0.  1.
          1    1    1    2  502    0  0.35663556303E+03 -0.40783638896E+03 -0.14834795178E+04  0.15793134346E+04  0.00000000000E+00 0.  1.
         22    1    1    2    0    0  0.50886012838E+02 -0.26634198170E+02 -0.26731108551E+03  0.27341174673E+03  0.00000000000E+00 0.  1.
         22    1    1    2    0    0 -0.37496951488E+01 -0.25356757048E+02  0.52106029610E+01  0.26156752951E+02  0.00000000000E+00 0.  1.
</event>
<event>
 6    1  0.1726037E-005  0.5300160E+02  0.7818608E-02  0.1511994E+00
          2   -1    0    0  502    0  0.00000000000E+00  0.00000000000E+00  0.20613417651E+03  0.20613417651E+03  0.00000000000E+00 0.  1.
          1   -1    0    0  501    0 -0.00000000000E+00 -0.00000000000E+00 -0.15874624499E+03  0.15874624499E+03  0.00000000000E+00 0. -1.
          2    1    1    2  501    0  0.62876895481E+02 -0.18682833307E+02  0.12793909613E+03  0.14377400517E+03  0.00000000000E+00 0.  1.
          1    1    1    2  502    0 -0.20612924251E+02  0.59830124743E+01 -0.88162773022E+02  0.90737884213E+02  0.00000000000E+00 0. -1.
         22    1    1    2    0    0 -0.27834088739E+02  0.50451594567E+01 -0.57048725750E+02  0.63676897220E+02  0.00000000000E+00 0. -1.
         22    1    1    2    0    0 -0.14429882491E+02  0.76546613758E+01  0.64660334166E+02  0.66691634887E+02  0.00000000000E+00 0.  1.
</event>
<event>
 6    1  0.1726037E-005  0.4948395E+02  0.7818608E-02  0.1470186E+00
          2   -1    0    0  502    0  0.00000000000E+00  0.00000000000E+00  0.40292596924E+02  0.40292596924E+02  0.00000000000E+00 0.  1.
          1   -1    0    0  501    0 -0.00000000000E+00 -0.00000000000E+00 -0.69641965636E+03  0.69641965636E+03  0.00000000000E+00 0.  1.
          2    1    1    2  501    0  0.29805260795E+02  0.36281715421E+02 -0.40179478231E+03  0.40452906390E+03  0.00000000000E+00 0.  1.
          1    1    1    2  502    0 -0.66071277882E+02  0.25677522308E+01 -0.13185801496E+03  0.14750777343E+03  0.00000000000E+00 0.  1.
         22    1    1    2    0    0 -0.20581499373E+01 -0.29706223926E+02  0.20643579792E+02  0.36233314888E+02  0.00000000000E+00 0.  1.
         22    1    1    2    0    0  0.38324167025E+02 -0.91432437259E+01 -0.14311784195E+03  0.14844210107E+03  0.00000000000E+00 0.  1.
</event>
<event>
 6    1  0.1726037E-005  0.4013817E+03  0.7818608E-02  0.1043456E+00
          2   -1    0    0  502    0  0.00000000000E+00  0.00000000000E+00  0.18571880018E+03  0.18571880018E+03  0.00000000000E+00 0. -1.
          1   -1    0    0  501    0 -0.00000000000E+00 -0.00000000000E+00 -0.11982054252E+04  0.11982054252E+04  0.00000000000E+00 0. -1.
          2    1    1    2  501    0  0.74840861478E+02 -0.35981887132E+03 -0.15222377146E+03  0.39779750037E+03  0.00000000000E+00 0. -1.
          1    1    1    2  502    0 -0.84601437293E+02  0.33045176261E+03 -0.70977235932E+03  0.78748496662E+03  0.00000000000E+00 0. -1.
         22    1    1    2    0    0  0.14484195168E+02  0.54504132621E+02 -0.16129970872E+03  0.17087448146E+03  0.00000000000E+00 0.  1.
         22    1    1    2    0    0 -0.47236193518E+01 -0.25137023909E+02  0.10809214475E+02  0.27767276934E+02  0.00000000000E+00 0.  1.
</event>
<event>
 6    1  0.1726037E-005  0.3850077E+02  0.7818608E-02  0.1524386E+00
          2   -1    0    0  502    0  0.00000000000E+00  0.00000000000E+00  0.54993753544E+03  0.54993753544E+03  0.00000000000E+00 0.  1.
          1   -1    0    0  501    0 -0.00000000000E+00 -0.00000000000E+00 -0.35376602728E+02  0.35376602728E+02  0.00000000000E+00 0.  1.
          2    1    1    2  501    0 -0.36706639284E+02 -0.15420516402E+02  0.32027035106E+03  0.32273559993E+03  0.00000000000E+00 0.  1.
          1    1    1    2  502    0  0.36391782208E+01  0.22976098121E+02 -0.80377554716E+01  0.24611993337E+02  0.00000000000E+00 0.  1.
         22    1    1    2    0    0 -0.51061662816E+01  0.15164587773E+02 -0.11415077665E+02  0.19655575660E+02  0.00000000000E+00 0.  1.
         22    1    1    2    0    0  0.38173627345E+02 -0.22720169492E+02  0.21374341479E+03  0.21831096924E+03  0.00000000000E+00 0.  1.
</event>
<event>
 6    1  0.1726037E-005  0.5196594E+02  0.7818608E-02  0.1505793E+00
          2   -1    0    0  502    0  0.00000000000E+00  0.00000000000E+00  0.42244379031E+02  0.42244379031E+02  0.00000000000E+00 0. -1.
          1   -1    0    0  501    0 -0.00000000000E+00 -0.00000000000E+00 -0.32112482078E+03  0.32112482078E+03  0.00000000000E+00 0. -1.
          2    1    1    2  501    0  0.36223222080E+02  0.34196573747E+02 -0.10704713846E+03  0.11807039140E+03  0.00000000000E+00 0. -1.
          1    1    1    2  502    0 -0.10178503946E+02 -0.26226631475E+02 -0.86000608390E+02  0.90485041772E+02  0.00000000000E+00 0. -1.
         22    1    1    2    0    0 -0.12378632403E+02 -0.20957322596E+02 -0.11639040676E+03  0.11890822805E+03  0.00000000000E+00 0. -1.
         22    1    1    2    0    0 -0.13666085732E+02  0.12987380325E+02  0.30557711864E+02  0.35905538588E+02  0.00000000000E+00 0. -1.
</event>
<event>
 6    1  0.1726037E-005  0.2014043E+03  0.7818608E-02  0.1149366E+00
          2   -1    0    0  502    0  0.00000000000E+00  0.00000000000E+00  0.72142849349E+03  0.72142849349E+03  0.00000000000E+00 0. -1.
          1   -1    0    0  501    0 -0.00000000000E+00 -0.00000000000E+00 -0.10032694572E+03  0.10032694572E+03  0.00000000000E+00 0. -1.
          2    1    1    2  501    0  0.86359997760E+02  0.93126818000E+02  0.35465086043E+03  0.37670663154E+03  0.00000000000E+00 0. -1.
          1    1    1    2  502    0 -0.98146918395E+02 -0.13542586171E+03  0.26189964926E+02  0.16928938500E+03  0.00000000000E+00 0. -1.
         22    1    1    2    0    0 -0.54105401852E+01 -0.29774970967E+02  0.70673534728E+01  0.31076845501E+02  0.00000000000E+00 0. -1.
         22    1    1    2    0    0  0.17197460820E+02  0.72074014680E+02  0.23319336894E+03  0.24468257716E+03  0.00000000000E+00 0. -1.
</event>
<event>
 6    1  0.1726037E-005  0.3092132E+02  0.7818608E-02  0.1624262E+00
          2   -1    0    0  502    0  0.00000000000E+00  0.00000000000E+00  0.13137668973E+03  0.13137668973E+03  0.00000000000E+00 0.  1.
          1   -1    0    0  501    0 -0.00000000000E+00 -0.00000000000E+00 -0.11476359369E+03  0.11476359369E+03  0.00000000000E+00 0.  1.
          2    1    1    2  501    0  0.31307837150E+02 -0.34390824449E+02  0.31649319072E+02  0.56254678659E+02  0.00000000000E+00 0.  1.
          1    1    1    2  502    0 -0.27711277971E+01  0.35789707332E+02 -0.48389267733E+02  0.60250340513E+02  0.00000000000E+00 0.  1.
         22    1    1    2    0    0 -0.10046048788E+02  0.99533612475E+01 -0.45606531011E+02  0.47748802783E+02  0.00000000000E+00 0.  1.
         22    1    1    2    0    0 -0.18490660565E+02 -0.11352244130E+02  0.78959575714E+02  0.81886461468E+02  0.00000000000E+00 0.  1.
</event>
<event>
 6    1  0.1726037E-005  0.5359567E+02  0.7818608E-02  0.1531282E+00
          2   -1    0    0  502    0  0.00000000000E+00  0.00000000000E+00  0.78755539252E+02  0.78755539252E+02  0.00000000000E+00 0. -1.
          1   -1    0    0  501    0 -0.00000000000E+00 -0.00000000000E+00 -0.41416348402E+03  0.41416348402E+03  0.00000000000E+00 0. -1.
          2    1    1    2  501    0 -0.26631087121E+02  0.27079705920E+01  0.16657242233E+02  0.31527949898E+02  0.00000000000E+00 0. -1.
          1    1    1    2  502    0  0.64089834654E+02  0.28803426290E+02 -0.31707947438E+03  0.32477151560E+03  0.00000000000E+00 0. -1.
         22    1    1    2    0    0 -0.26213297947E+02 -0.26748492321E+02 -0.80878919680E+02  0.89129223487E+02  0.00000000000E+00 0.  1.
         22    1    1    2    0    0 -0.11245449586E+02 -0.47629045603E+01  0.45893207061E+02  0.47490334286E+02  0.00000000000E+00 0. -1.
</event>
<event>
 6    1  0.1726037E-005  0.1842526E+03  0.7818608E-02  0.1276119E+00
          2   -1    0    0  502    0  0.00000000000E+00  0.00000000000E+00  0.51740815874E+02  0.51740815874E+02  0.00000000000E+00 0. -1.
          1   -1    0    0  501    0 -0.00000000000E+00 -0.00000000000E+00 -0.90139687412E+03  0.90139687412E+03  0.00000000000E+00 0. -1.
          2    1    1    2  501    0  0.88350697469E+02 -0.16678688384E+03 -0.31761427352E+03  0.36946249757E+03  0.00000000000E+00 0. -1.
          1    1    1    2  502    0 -0.30253956243E+02  0.36070364506E+02 -0.91109273231E+02  0.10255375533E+03  0.00000000000E+00 0. -1.
         22    1    1    2    0    0 -0.57736580114E+01  0.16322407757E+02  0.48099021327E+01  0.17969175839E+02  0.00000000000E+00 0. -1.
         22    1    1    2    0    0 -0.52323083214E+02  0.11439411158E+03 -0.44574241362E+03  0.46315226125E+03  0.00000000000E+00 0. -1.
</event>
<event>
 6    1  0.1726037E-005  0.1255315E+03  0.7818608E-02  0.1235943E+00
          2   -1    0    0  502    0  0.00000000000E+00  0.00000000000E+00  0.24932989061E+03  0.24932989061E+03  0.00000000000E+00 0.  1.
          1   -1    0    0  501    0 -0.00000000000E+00 -0.00000000000E+00 -0.15087590700E+03  0.15087590700E+03  0.00000000000E+00 0. -1.
          2    1    1    2  501    0 -0.56064696145E+02 -0.33461173440E+02  0.14202611045E+03  0.15631479882E+03  0.00000000000E+00 0.  1.
          1    1    1    2  502    0  0.73729124774E+02  0.55029649703E+02 -0.64715896790E+02  0.11248285862E+03  0.00000000000E+00 0. -1.
         22    1    1    2    0    0 -0.49001972270E+02 -0.17492425246E+02  0.61238005798E+02  0.80357150158E+02  0.00000000000E+00 0. -1.
         22    1    1    2    0    0  0.31337543641E+02 -0.40760510172E+01 -0.40094235839E+02  0.51050990009E+02  0.00000000000E+00 0.  1.
</event>
<event>
 6    1  0.1726037E-005  0.9000320E+02  0.7818608E-02  0.1424345E+00
          2   -1    0    0  502    0  0.00000000000E+00  0.00000000000E+00  0.20117716694E+03  0.20117716694E+03  0.00000000000E+00 0. -1.
          1   -1    0    0  501    0 -0.00000000000E+00 -0.00000000000E+00 -0.16109583539E+03  0.16109583539E+03  0.00000000000E+00 0. -1.
          2    1    1    2  501    0 -0.21649776796E+02 -0.38261186311E+02  0.60118410439E+02  0.74477207835E+02  0.00000000000E+00 0. -1.
          1    1    1    2  502    0  0.52837674645E+02  0.60368413746E+02 -0.10225964800E+03  0.12997384679E+03  0.00000000000E+00 0. -1.
         22    1    1    2    0    0 -0.26944223475E+02 -0.33074834600E+02  0.11518141751E+03  0.12282790726E+03  0.00000000000E+00 0. -1.
         22    1    1    2    0    0 -0.42436743740E+01  0.10967607166E+02 -0.32958848390E+02  0.34994040440E+02  0.00000000000E+00 0. -1.
</event>
<event>
 6    1  0.1726037E-005  0.2295769E+02  0.7818608E-02  0.1737891E+00
          2   -1    0    0  502    0  0.00000000000E+00  0.00000000000E+00  0.50537349245E+03  0.50537349245E+03  0.00000000000E+00 0. -1.
          1   -1    0    0  501    0 -0.00000000000E+00 -0.00000000000E+00 -0.49181726377E+02  0.49181726377E+02  0.00000000000E+00 0. -1.
          2    1    1    2  501    0  0.44248136999E+02 -0.20653948398E+01  0.37640531918E+03  0.37900280710E+03  0.00000000000E+00 0. -1.
          1    1    1    2  502    0 -0.23283264168E+02  0.66070456609E+01  0.62055956997E+01  0.24985452981E+02  0.00000000000E+00 0. -1.
         22    1    1    2    0    0 -0.22305993225E+01 -0.12266751427E+02 -0.36534059060E+02  0.38602930398E+02  0.00000000000E+00 0. -1.
         22    1    1    2    0    0 -0.18734273509E+02  0.77251006059E+01  0.11011491026E+03  0.11196402835E+03  0.00000000000E+00 0.  1.
</event>
<event>
 6    1  0.1726037E-005  0.1741533E+03  0.7818608E-02  0.1203480E+00
          2   -1    0    0  502    0  0.00000000000E+00  0.00000000000E+00  0.80545813643E+03  0.80545813643E+03  0.00000000000E+00 0.  1.
          1   -1    0    0  501    0 -0.00000000000E+00 -0.00000000000E+00 -0.59663627351E+02  0.59663627351E+02  0.00000000000E+00 0. -1.
          2    1    1    2  501    0 -0.13620012126E+03 -0.20343850053E+02  0.38795559590E+03  0.41167206567E+03  0.00000000000E+00 0.  1.
          1    1    1    2  502    0  0.58796083518E+01 -0.72819474066E+02  0.89673848551E+02  0.11566609145E+03  0.00000000000E+00 0. -1.
         22    1    1    2    0    0  0.10016048763E+03  0.85732035174E+01  0.77179365678E+02  0.12673704111E+03  0.00000000000E+00 0. -1.
         22    1    1    2    0    0  0.30160025272E+02  0.84590120602E+02  0.19098569895E+03  0.21104656556E+03  0.00000000000E+00 0. -1.
</event>
<event>
 6    1  0.1726037E-005  0.7339444E+02  0.7818608E-02  0.1396402E+00
          2   -1    0    0  502    0  0.00000000000E+00  0.00000000000E+00  0.12784821404E+03  0.12784821404E+03  0.00000000000E+00 0.  1.
          1   -1    0    0  501    0 -0.00000000000E+00 -0.00000000000E+00 -0.34669226530E+03  0.34669226530E+03  0.00000000000E+00 0. -1.
          2    1    1    2  501    0 -0.12568575046E+02  0.56464645780E+02  0.79010939459E+02  0.97923203869E+02  0.00000000000E+00 0.  1.
          1    1    1    2  502    0  0.29460189772E+02 -0.46099471995E+02 -0.22021462659E+03  0.22690867296E+03  0.00000000000E+00 0. -1.
         22    1    1    2    0    0 -0.21588349302E+02 -0.25661440333E+02 -0.10924936214E+03  0.11428031096E+03  0.00000000000E+00 0.  1.
         22    1    1    2    0    0  0.46967345757E+01  0.15296266548E+02  0.31608998016E+02  0.35428291542E+02  0.00000000000E+00 0.  1.
</event>
<event>
 6    1  0.1726037E-005  0.5892253E+02  0.7818608E-02  0.1498147E+00
          2   -1    0    0  502    0  0.00000000000E+00  0.00000000000E+00  0.10771962762E+03  0.10771962762E+03  0.00000000000E+00 0. -1.
          1   -1    0    0  501    0 -0.00000000000E+00 -0.00000000000E+00 -0.12376190068E+03  0.12376190068E+03  0.00000000000E+00 0. -1.
          2    1    1    2  501    0  0.50427131813E+02  0.23995557482E+02  0.17249760697E+02  0.58448581213E+02  0.00000000000E+00 0. -1.
          1    1    1    2  502    0 -0.20785765903E+02  0.65187382535E+01 -0.38611561939E+02  0.44332772618E+02  0.00000000000E+00 0. -1.
         22    1    1    2    0    0 -0.33164421038E+02 -0.16591566850E+02 -0.55200186801E+02  0.66499770948E+02  0.00000000000E+00 0. -1.
         22    1    1    2    0    0  0.35230551291E+01 -0.13922728886E+02  0.60519714976E+02  0.62200403518E+02  0.00000000000E+00 0. -1.
</event>
<event>
 6    1  0.1726037E-005  0.7504380E+02  0.7818608E-02  0.1450570E+00
          2   -1    0    0  502    0  0.00000000000E+00  0.00000000000E+00  0.12400821360E+03  0.12400821360E+03  0.00000000000E+00 0. -1.
          1   -1    0    0  501    0 -0.00000000000E+00 -0.00000000000E+00 -0.36236548937E+03  0.36236548937E+03  0.00000000000E+00 0. -1.
          2    1    1    2  501    0  0.86437275878E+02 -0.71161408450E+01  0.32604343877E+02  0.92655735718E+02  0.00000000000E+00 0. -1.
          1    1    1    2  502    0 -0.13658807134E+03 -0.18061228141E+02 -0.18357250554E+03  0.22952423399E+03  0.00000000000E+00 0. -1.
         22    1    1    2    0    0  0.47603970848E+02  0.35664687332E+02 -0.11777763897E+03  0.13194574720E+03  0.00000000000E+00 0. -1.
         22    1    1    2    0    0  0.25468246173E+01 -0.10487318347E+02  0.30388524862E+02  0.32247986062E+02  0.00000000000E+00 0.  1.
</event>
<event>
 6    1  0.1726037E-005  0.6808444E+02  0.7818608E-02  0.1421756E+00
          2   -1    0    0  502    0  0.00000000000E+00  0.00000000000E+00  0.18175088692E+03  0.18175088692E+03  0.00000000000E+00 0.  1.
          1   -1    0    0  501    0 -0.00000000000E+00 -0.00000000000E+00 -0.76075079735E+02  0.76075079735E+02  0.00000000000E+00 0.  1.
          2    1    1    2  501    0 -0.41610125790E+02 -0.25994342405E+02  0.26432124714E+02  0.55729396392E+02  0.00000000000E+00 0.  1.
          1    1    1    2  502    0  0.15303281401E+02  0.38405784234E+02 -0.98242070592E+01  0.42493643391E+02  0.00000000000E+00 0.  1.
         22    1    1    2    0    0 -0.11307486696E+01 -0.28242407177E+02  0.11515095247E+03  0.11856919503E+03  0.00000000000E+00 0.  1.
         22    1    1    2    0    0  0.27437593059E+02  0.15830965347E+02 -0.26083062938E+02  0.41033731842E+02  0.00000000000E+00 0. -1.
</event>
<event>
 6    1  0.1726037E-005  0.1025216E+03  0.7818608E-02  0.1282800E+00
          2   -1    0    0  502    0  0.00000000000E+00  0.00000000000E+00  0.25168866676E+03  0.25168866676E+03  0.00000000000E+00 0. -1.
          1   -1    0    0  501    0 -0.00000000000E+00 -0.00000000000E+00 -0.55030677930E+03  0.55030677930E+03  0.00000000000E+00 0.  1.
          2    1    1    2  501    0  0.10769619619E+02 -0.17463352255E+03  0.15006450387E+03  0.23050424557E+03  0.00000000000E+00 0. -1.
          1    1    1    2  502    0  0.12452949884E+02  0.14291894677E+03 -0.40569820151E+03  0.43031608384E+03  0.00000000000E+00 0.  1.
         22    1    1    2    0    0  0.38169614233E+02  0.34367658620E+02 -0.58448923936E+02  0.77809588863E+02  0.00000000000E+00 0. -1.
         22    1    1    2    0    0 -0.61392183736E+02 -0.26530828447E+01  0.15464509035E+02  0.63365527790E+02  0.00000000000E+00 0. -1.
</event>
<event>
 6    1  0.1726037E-005  0.1295880E+03  0.7818608E-02  0.1303689E+00
          2   -1    0    0  502    0  0.00000000000E+00  0.00000000000E+00  0.26428154524E+03  0.26428154524E+03  0.00000000000E+00 0.  1.
          1   -1    0    0  501    0 -0.00000000000E+00 -0.00000000000E+00 -0.37099825510E+03  0.37099825510E+03  0.00000000000E+00 0. -1.
          2    1    1    2  501    0 -0.10379926666E+03  0.22978888090E+02  0.16268044201E+03  0.19433796147E+03  0.00000000000E+00 0.  1.
          1    1    1    2  502    0  0.10580605740E+03 -0.38818630823E+01 -0.29290296221E+03  0.31145165903E+03  0.00000000000E+00 0. -1.
         22    1    1    2    0    0 -0.17448572905E+02  0.62610410512E+01  0.71054780717E+02  0.73433202260E+02  0.00000000000E+00 0.  1.
         22    1    1    2    0    0  0.15441782169E+02 -0.25358066059E+02 -0.47548970381E+02  0.56056977577E+02  0.00000000000E+00 0.  1.
</event>
<event>
 6    1  0.1726037E-005  0.4842343E+02  0.7818608E-02  0.1465924E+00
          2   -1    0    0  502    0  0.00000000000E+00  0.00000000000E+00  0.42395717397E+02  0.42395717397E+02  0.00000000000E+00 0. -1.
          1   -1    0    0  501    0 -0.00000000000E+00 -0.00000000000E+00 -0.89573993454E+03  0.89573993454E+03  0.00000000000E+00 0.  1.
          2    1    1    2  501    0 -0.57960508194E+02  0.33364340234E+02 -0.70543850571E+02  0.97206144676E+02  0.00000000000E+00 0. -1.
          1    1    1    2  502    0  0.62036489868E+02 -0.68750526855E+02 -0.64250266024E+03  0.64914160970E+03  0.00000000000E+00 0.  1.
         22    1    1    2    0    0  0.15699260636E+02  0.22932610594E+02 -0.15927610693E+03  0.16168255828E+03  0.00000000000E+00 0.  1.
         22    1    1    2    0    0 -0.19775242310E+02  0.12453576027E+02  0.18978400600E+02  0.30105339287E+02  0.00000000000E+00 0. -1.
</event>
<event>
 6    1  0.1726037E-005  0.6545349E+02  0.7818608E-02  0.1499667E+00
          2   -1    0    0  502    0  0.00000000000E+00  0.00000000000E+00  0.84165778563E+02  0.84165778563E+02  0.00000000000E+00 0. -1.
          1   -1    0    0  501    0 -0.00000000000E+00 -0.00000000000E+00 -0.96952868297E+02  0.96952868297E+02  0.00000000000E+00 0. -1.
          2    1    1    2  501    0  0.90821119789E+01  0.32914882799E+02 -0.13950286248E+01  0.34173386905E+02  0.00000000000E+00 0. -1.
          1    1    1    2  502    0  0.50538298750E+01 -0.22897436871E+02  0.13573147367E+01  0.23487786506E+02  0.00000000000E+00 0. -1.
         22    1    1    2    0    0 -0.16603257253E+02 -0.19976808639E+02 -0.65110371017E+02  0.70100652271E+02  0.00000000000E+00 0. -1.
         22    1    1    2    0    0  0.24673153988E+01  0.99593627110E+01  0.52360995172E+02  0.53356821178E+02  0.00000000000E+00 0. -1.
</event>
<event>
 6    1  0.1726037E-005  0.6019218E+03  0.7818608E-02  0.1081195E+00
          2   -1    0    0  502    0  0.00000000000E+00  0.00000000000E+00  0.76921778832E+03  0.76921778832E+03  0.00000000000E+00 0.  1.
          1   -1    0    0  501    0 -0.00000000000E+00 -0.00000000000E+00 -0.72687985547E+03  0.72687985547E+03  0.00000000000E+00 0.  1.
          2    1    1    2  501    0  0.24442715508E+03  0.42576905329E+02  0.35749816084E+03  0.43515785873E+03  0.00000000000E+00 0.  1.
          1    1    1    2  502    0 -0.28293192393E+03 -0.81629677767E+02 -0.64212984048E+03  0.70643089535E+03  0.00000000000E+00 0.  1.
         22    1    1    2    0    0  0.98579175729E+01  0.68929230427E+02  0.89179733669E+02  0.11314345869E+03  0.00000000000E+00 0.  1.
         22    1    1    2    0    0  0.28646851281E+02 -0.29876457989E+02  0.23778987881E+03  0.24136543103E+03  0.00000000000E+00 0. -1.
</event>
<event>
 6    1  0.1726037E-005  0.1748233E+03  0.7818608E-02  0.1236590E+00
          2   -1    0    0  502    0  0.00000000000E+00  0.00000000000E+00  0.43767410531E+03  0.43767410531E+03  0.00000000000E+00 0. -1.
          1   -1    0    0  501    0 -0.00000000000E+00 -0.00000000000E+00 -0.11778382415E+03  0.11778382415E+03  0.00000000000E+00 0. -1.
          2    1    1    2  501    0 -0.75423337896E+02  0.12148149360E+03  0.16517556464E+03  0.21847059377E+03  0.00000000000E+00 0. -1.
          1    1    1    2  502    0  0.10558326525E+03 -0.10436582155E+03  0.16634059681E+02  0.14938789291E+03  0.00000000000E+00 0. -1.
         22    1    1    2    0    0 -0.38866339521E+02  0.21243697648E+02  0.14135140776E+03  0.14812868565E+03  0.00000000000E+00 0. -1.
         22    1    1    2    0    0  0.87064121713E+01 -0.38359369701E+02 -0.32707509207E+01  0.39470757130E+02  0.00000000000E+00 0.  1.
</event>
<event>
 6    1  0.1726037E-005  0.7230051E+02  0.7818608E-02  0.1424300E+00
          2   -1    0    0  502    0  0.00000000000E+00  0.00000000000E+00  0.13886629636E+03  0.13886629636E+03  0.00000000000E+00 0.  1.
          1   -1    0    0  501    0 -0.00000000000E+00 -0.00000000000E+00 -0.29358266777E+03  0.29358266777E+03  0.00000000000E+00 0. -1.
          2    1    1    2  501    0 -0.55952727124E+02  0.51452588981E+02  0.51021892086E+02  0.91549495124E+02  0.00000000000E+00 0.  1.
          1    1    1    2  502    0  0.25775910889E+02 -0.54772212441E+02 -0.20811754922E+03  0.21674249037E+03  0.00000000000E+00 0. -1.
         22    1    1    2    0    0  0.20995183418E+02  0.86343211459E+01  0.60738031633E+02  0.64841789882E+02  0.00000000000E+00 0.  1.
         22    1    1    2    0    0  0.91816328172E+01 -0.53146976861E+01 -0.58358745908E+02  0.59315188752E+02  0.00000000000E+00 0. -1.
</event>
<event>
 6    1  0.1726037E-005  0.4279562E+02  0.7818608E-02  0.1518099E+00
          2   -1    0    0  502    0  0.00000000000E+00  0.00000000000E+00  0.88908650127E+02  0.88908650127E+02  0.00000000000E+00 0. -1.
          1   -1    0    0  501    0 -0.00000000000E+00 -0.00000000000E+00 -0.13622656890E+03  0.13622656890E+03  0.00000000000E+00 0. -1.
          2    1    1    2  501    0  0.21440351429E+02  0.77250282957E+01  0.26389642109E+02  0.34868007431E+02  0.00000000000E+00 0. -1.
          1    1    1    2  502    0 -0.27044278060E+02 -0.35967605456E+02 -0.38936331256E+02  0.59507138309E+02  0.00000000000E+00 0. -1.
         22    1    1    2    0    0 -0.12912404868E+02  0.25497992848E+02 -0.78312853038E+02  0.83365345257E+02  0.00000000000E+00 0.  1.
         22    1    1    2    0    0  0.18516331499E+02  0.27445843116E+01  0.43541623415E+02  0.47394728028E+02  0.00000000000E+00 0. -1.
</event>
<event>
 6    1  0.1726037E-005  0.1738352E+03  0.7818608E-02  0.1288766E+00
          2   -1    0    0  502    0  0.00000000000E+00  0.00000000000E+00  0.23818967198E+03  0.23818967198E+03  0.00000000000E+00 0. -1.
          1   -1    0    0  501    0 -0.00000000000E+00 -0.00000000000E+00 -0.19317549959E+03  0.19317549959E+03  0.00000000000E+00 0. -1.
          2    1    1    2  501    0  0.13903777487E+03 -0.71745372333E+02 -0.82260426894E+02  0.17676447359E+03  0.00000000000E+00 0. -1.
          1    1    1    2  502    0 -0.47919359089E+02  0.32062099554E+02  0.58662945589E+02  0.82253172513E+02  0.00000000000E+00 0. -1.
         22    1    1    2    0    0  0.97614080243E+01  0.12955470477E+02  0.65989613194E+02  0.67954090027E+02  0.00000000000E+00 0. -1.
         22    1    1    2    0    0 -0.10087982380E+03  0.26727802302E+02  0.26220405051E+01  0.10439343544E+03  0.00000000000E+00 0. -1.
</event>
<event>
 6    1  0.1726037E-005  0.1021906E+03  0.7818608E-02  0.1304750E+00
          2   -1    0    0  502    0  0.00000000000E+00  0.00000000000E+00  0.64690189332E+03  0.64690189332E+03  0.00000000000E+00 0.  1.
          1   -1    0    0  501    0 -0.00000000000E+00 -0.00000000000E+00 -0.16669098113E+03  0.16669098113E+03  0.00000000000E+00 0. -1.
          2    1    1    2  501    0  0.21039308790E+03 -0.15954368581E+03  0.17929196465E+03  0.31916304251E+03  0.00000000000E+00 0.  1.
          1    1    1    2  502    0 -0.23076288453E+03  0.99987008281E+02  0.21319851128E+03  0.32970064591E+03  0.00000000000E+00 0. -1.
         22    1    1    2    0    0  0.13292044998E+02  0.19712603225E+02  0.11401594228E+03  0.11646845186E+03  0.00000000000E+00 0.  1.
         22    1    1    2    0    0  0.70777516405E+01  0.39844074306E+02 -0.26295506017E+02  0.48260734166E+02  0.00000000000E+00 0.  1.
</event>
<event>
 6    1  0.1726037E-005  0.2235232E+03  0.7818608E-02  0.1190383E+00
          2   -1    0    0  502    0  0.00000000000E+00  0.00000000000E+00  0.32217596966E+03  0.32217596966E+03  0.00000000000E+00 0. -1.
          1   -1    0    0  501    0 -0.00000000000E+00 -0.00000000000E+00 -0.20417185352E+03  0.20417185352E+03  0.00000000000E+00 0. -1.
          2    1    1    2  501    0  0.82908291658E+02  0.18706123655E+03  0.59951985866E+01  0.20469888483E+03  0.00000000000E+00 0. -1.
          1    1    1    2  502    0 -0.33594251452E+02 -0.14601811734E+03  0.91379492525E+02  0.17549950420E+03  0.00000000000E+00 0. -1.
         22    1    1    2    0    0 -0.15282260809E+02 -0.86188821609E+02  0.59293970622E+01  0.87733791753E+02  0.00000000000E+00 0. -1.
         22    1    1    2    0    0 -0.34031779397E+02  0.45145702398E+02  0.14700027971E+02  0.58415642394E+02  0.00000000000E+00 0. -1.
</event>
<event>
 6    1  0.1726037E-005  0.1338529E+03  0.7818608E-02  0.1329192E+00
          2   -1    0    0  502    0  0.00000000000E+00  0.00000000000E+00  0.43592358843E+02  0.43592358843E+02  0.00000000000E+00 0. -1.
          1   -1    0    0  501    0 -0.00000000000E+00 -0.00000000000E+00 -0.55309642515E+03  0.55309642515E+03  0.00000000000E+00 0. -1.
          2    1    1    2  501    0 -0.92671186324E+02  0.85779629395E+01 -0.26665847816E+03  0.28243277819E+03  0.00000000000E+00 0. -1.
          1    1    1    2  502    0  0.31951362355E+02 -0.39706252208E+02 -0.40404641744E+02  0.65038535463E+02  0.00000000000E+00 0. -1.
         22    1    1    2    0    0  0.61984354514E+02  0.14138104841E+02 -0.21742446261E+03  0.22652890137E+03  0.00000000000E+00 0.  1.
         22    1    1    2    0    0 -0.12645305454E+01  0.16990184428E+02  0.14983516202E+02  0.22688568976E+02  0.00000000000E+00 0. -1.
</event>
<event>
 6    1  0.1726037E-005  0.5429629E+02  0.7818608E-02  0.1433606E+00
          2   -1    0    0  502    0  0.00000000000E+00  0.00000000000E+00  0.23373286805E+03  0.23373286805E+03  0.00000000000E+00 0.  1.
          1   -1    0    0  501    0 -0.00000000000E+00 -0.00000000000E+00 -0.72582369245E+02  0.72582369245E+02  0.00000000000E+00 0.  1.
          2    1    1    2  501    0  0.12464452854E+02 -0.31124697421E+02  0.58345960138E+02  0.67293093546E+02  0.00000000000E+00 0.  1.
          1    1    1    2  502    0  0.41374421543E+02  0.11196503425E+02 -0.28884950358E+02  0.51686988732E+02  0.00000000000E+00 0.  1.
         22    1    1    2    0    0 -0.10120051087E+02  0.39795484427E+01 -0.23191142146E+02  0.25614084287E+02  0.00000000000E+00 0.  1.
         22    1    1    2    0    0 -0.43718823311E+02  0.15948645553E+02  0.15488063117E+03  0.16172107073E+03  0.00000000000E+00 0.  1.
</event>
<event>
 6    1  0.1726037E-005  0.5378519E+02  0.7818608E-02  0.1530976E+00
          2   -1    0    0  502    0  0.00000000000E+00  0.00000000000E+00  0.14069884021E+03  0.14069884021E+03  0.00000000000E+00 0.  1.
          1   -1    0    0  501    0 -0.00000000000E+00 -0.00000000000E+00 -0.13676445295E+03  0.13676445295E+03  0.00000000000E+00 0. -1.
          2    1    1    2  501    0 -0.47655589727E+02  0.36354311748E+02  0.20131837108E+02  0.63229598134E+02  0.00000000000E+00 0.  1.
          1    1    1    2  502    0  0.54120483840E+02  0.22681506645E+02 -0.44523560810E+02  0.73660199443E+02  0.00000000000E+00 0. -1.
         22    1    1    2    0    0 -0.18392390167E+02 -0.56813195963E+02 -0.39547382131E+02  0.71624120832E+02  0.00000000000E+00 0.  1.
         22    1    1    2    0    0  0.11927496054E+02 -0.22226224293E+01  0.67873493102E+02  0.68949374750E+02  0.00000000000E+00 0.  1.
</event>
<event>
 6    1  0.1726037E-005  0.7764146E+02  0.7818608E-02  0.1409334E+00
          2   -1    0    0  502    0  0.00000000000E+00  0.00000000000E+00  0.98762365836E+02  0.98762365836E+02  0.00000000000E+00 0.  1.
          1   -1    0    0  501    0 -0.00000000000E+00 -0.00000000000E+00 -0.43897163717E+03  0.43897163717E+03  0.00000000000E+00 0. -1.
          2    1    1    2  501    0 -0.17386991841E+01 -0.71007552581E+02 -0.19200882026E+03  0.20472538351E+03  0.00000000000E+00 0.  1.
          1    1    1    2  502    0 -0.10997699970E+02  0.70545177737E+02 -0.19009660404E+03  0.20306228201E+03  0.00000000000E+00 0. -1.
         22    1    1    2    0    0 -0.78305462203E+01  0.10981664232E+02 -0.41381468461E+02  0.43524020212E+02  0.00000000000E+00 0.  1.
         22    1    1    2    0    0  0.20566945375E+02 -0.10519289387E+02  0.83277621428E+02  0.86422317268E+02  0.00000000000E+00 0.  1.
</event>
<event>
 6    1  0.2155338E-005  0.1333090E+03  0.7818608E-02  0.1224027E+00
          2   -1    0    0  502    0  0.00000000000E+00  0.00000000000E+00  0.48826922653E+03  0.48826922653E+03  0.00000000000E+00 0.  1.
          1   -1    0    0  501    0 -0.00000000000E+00 -0.00000000000E+00 -0.19620729222E+03  0.19620729222E+03  0.00000000000E+00 0.  1.
          2    1    1    2  501    0 -0.51828948621E+02  0.53720476093E+02  0.22790793027E+03  0.23982108779E+03  0.00000000000E+00 0.  1.
          1    1    1    2  502    0  0.96232974682E+02 -0.68486681070E+02 -0.15073571173E+03  0.19150056316E+03  0.00000000000E+00 0.  1.
         22    1    1    2    0    0  0.11337061280E+02  0.85956535981E-01 -0.13485234816E+02  0.17617829181E+02  0.00000000000E+00 0.  1.
         22    1    1    2    0    0 -0.55741087341E+02  0.14680248441E+02  0.22837495058E+03  0.23553703863E+03  0.00000000000E+00 0.  1.
</event>
<event>
 6    1  0.1726037E-005  0.9174201E+02  0.7818608E-02  0.1375797E+00
          2   -1    0    0  502    0  0.00000000000E+00  0.00000000000E+00  0.64687319268E+02  0.64687319268E+02  0.00000000000E+00 0.  1.
          1   -1    0    0  501    0 -0.00000000000E+00 -0.00000000000E+00 -0.65163464002E+03  0.65163464002E+03  0.00000000000E+00 0. -1.
          2    1    1    2  501    0 -0.20033549812E+02  0.88516427124E+02 -0.22649142050E+02  0.93538679831E+02  0.00000000000E+00 0.  1.
          1    1    1    2  502    0 -0.19434146094E+02 -0.51466145761E+02 -0.42113380521E+03  0.42471182240E+03  0.00000000000E+00 0. -1.
         22    1    1    2    0    0  0.16717471900E+02 -0.29544451377E+02 -0.16329126512E+03  0.16678245033E+03  0.00000000000E+00 0. -1.
         22    1    1    2    0    0  0.22750224006E+02 -0.75058299866E+01  0.20126891621E+02  0.31289006734E+02  0.00000000000E+00 0. -1.
</event>
<event>
 6    1  0.3287815E-005  0.5389501E+02  0.7818608E-02  0.1480628E+00
          2   -1    0    0  502    0  0.00000000000E+00  0.00000000000E+00  0.14814112417E+03  0.14814112417E+03  0.00000000000E+00 0.  1.
          1   -1    0    0  501    0 -0.00000000000E+00 -0.00000000000E+00 -0.71816362067E+03  0.71816362067E+03  0.00000000000E+00 0. -1.
          2    1    1    2  501    0  0.51039717268E+02 -0.72309958773E+02 -0.15146661496E+03  0.17543066529E+03  0.00000000000E+00 0.  1.
          1    1    1    2  502    0 -0.35092457447E+02  0.81848459412E+02 -0.51865141052E+03  0.52624132916E+03  0.00000000000E+00 0. -1.
         22    1    1    2    0    0 -0.29837932949E+02 -0.14346351682E+02  0.12847506928E+03  0.13267239153E+03  0.00000000000E+00 0.  1.
         22    1    1    2    0    0  0.13890673128E+02  0.48078510429E+01 -0.28379540291E+02  0.31960358864E+02  0.00000000000E+00 0.  1.
</event>
<event>
 6    1  0.1726037E-005  0.2485571E+03  0.7818608E-02  0.1217495E+00
          2   -1    0    0  502    0  0.00000000000E+00  0.00000000000E+00  0.75542630296E+03  0.75542630296E+03  0.00000000000E+00 0.  1.
          1   -1    0    0  501    0 -0.00000000000E+00 -0.00000000000E+00 -0.89511882395E+02  0.89511882395E+02  0.00000000000E+00 0.  1.
          2    1    1    2  501    0 -0.75923958984E+02 -0.19588814983E+03  0.30848804330E+03  0.37323114507E+03  0.00000000000E+00 0.  1.
          1    1    1    2  502    0  0.10801045291E+03  0.10549211106E+03  0.16977188161E+03  0.22719448765E+03  0.00000000000E+00 0.  1.
         22    1    1    2    0    0 -0.20680842604E+02 -0.98480938796E+01  0.12201954730E+03  0.12415092479E+03  0.00000000000E+00 0.  1.
         22    1    1    2    0    0 -0.11405651318E+02  0.10024413265E+03  0.65634948359E+02  0.12036162785E+03  0.00000000000E+00 0.  1.
</event>
<event>
 6    1  0.1726037E-005  0.2321391E+03  0.7818608E-02  0.1185168E+00
          2   -1    0    0  502    0  0.00000000000E+00  0.00000000000E+00  0.28362316166E+03  0.28362316166E+03  0.00000000000E+00 0. -1.
          1   -1    0    0  501    0 -0.00000000000E+00 -0.00000000000E+00 -0.56947738343E+03  0.56947738343E+03  0.00000000000E+00 0. -1.
          2    1    1    2  501    0 -0.20091328929E+03 -0.64755783521E+02  0.11524099007E+03  0.24049937028E+03  0.00000000000E+00 0. -1.
          1    1    1    2  502    0  0.21465028491E+03  0.25032369755E+02 -0.42315764010E+03  0.47514603305E+03  0.00000000000E+00 0. -1.
         22    1    1    2    0    0  0.18199456480E+02 -0.70781377552E+01 -0.45360992620E+02  0.49385624444E+02  0.00000000000E+00 0. -1.
         22    1    1    2    0    0 -0.31936452100E+02  0.46801551521E+02  0.67423420886E+02  0.88069517323E+02  0.00000000000E+00 0. -1.
</event>
<event>
 6    1  0.1726037E-005  0.6134844E+02  0.7818608E-02  0.1468950E+00
          2   -1    0    0  502    0  0.00000000000E+00  0.00000000000E+00  0.15418687386E+03  0.15418687386E+03  0.00000000000E+00 0.  1.
          1   -1    0    0  501    0 -0.00000000000E+00 -0.00000000000E+00 -0.31793424265E+03  0.31793424265E+03  0.00000000000E+00 0.  1.
          2    1    1    2  501    0 -0.10267020821E+03  0.38102494057E+02  0.46929322345E+02  0.11914416899E+03  0.00000000000E+00 0.  1.
          1    1    1    2  502    0  0.59476553669E+02 -0.59053343255E+02 -0.19728996718E+03  0.21435505344E+03  0.00000000000E+00 0.  1.
         22    1    1    2    0    0  0.34008972187E+02  0.13801504299E+02 -0.70956723406E+02  0.79887097248E+02  0.00000000000E+00 0.  1.
         22    1    1    2    0    0  0.91846823577E+01  0.71493448991E+01  0.57569999455E+02  0.58734796839E+02  0.00000000000E+00 0. -1.
</event>
<event>
 6    1  0.1726037E-005  0.1937029E+03  0.7818608E-02  0.1240266E+00
          2   -1    0    0  502    0  0.00000000000E+00  0.00000000000E+00  0.19071297516E+03  0.19071297516E+03  0.00000000000E+00 0.  1.
          1   -1    0    0  501    0 -0.00000000000E+00 -0.00000000000E+00 -0.24863517487E+03  0.24863517487E+03  0.00000000000E+00 0.  1.
          2    1    1    2  501    0  0.14383832394E+03 -0.10957562869E+03 -0.11908953117E+02  0.18121287206E+03  0.00000000000E+00 0.  1.
          1    1    1    2  502    0 -0.73968530216E+02  0.48611433903E+01 -0.79580307285E+01  0.74554036983E+02  0.00000000000E+00 0.  1.
         22    1    1    2    0    0 -0.27155939875E+02  0.13246364014E+02  0.44078301530E+02  0.53439759504E+02  0.00000000000E+00 0. -1.
         22    1    1    2    0    0 -0.42713853846E+02  0.91468121284E+02 -0.82133517397E+02  0.13014148148E+03  0.00000000000E+00 0.  1.
</event>
<event>
 6    1  0.1726037E-005  0.6815595E+02  0.7818608E-02  0.1367374E+00
          2   -1    0    0  502    0  0.00000000000E+00  0.00000000000E+00  0.34352828231E+03  0.34352828231E+03  0.00000000000E+00 0. -1.
          1   -1    0    0  501    0 -0.00000000000E+00 -0.00000000000E+00 -0.78129297015E+02  0.78129297015E+02  0.00000000000E+00 0. -1.
          2    1    1    2  501    0  0.45089210737E+02 -0.18548393483E+02  0.25693594790E+03  0.26152086179E+03  0.00000000000E+00 0. -1.
          1    1    1    2  502    0 -0.26760377340E+02  0.77800847177E+01 -0.15923009333E+02  0.32096568972E+02  0.00000000000E+00 0. -1.
         22    1    1    2    0    0  0.13798221441E+02 -0.11150730220E+02  0.67607560469E+02  0.69896437190E+02  0.00000000000E+00 0.  1.
         22    1    1    2    0    0 -0.32127054838E+02  0.21919038985E+02 -0.43221513741E+02  0.58143711377E+02  0.00000000000E+00 0. -1.
</event>
<event>
 6    1  0.1726037E-005  0.2774237E+03  0.7818608E-02  0.1240869E+00
          2   -1    0    0  502    0  0.00000000000E+00  0.00000000000E+00  0.42137740984E+03  0.42137740984E+03  0.00000000000E+00 0.  1.
          1   -1    0    0  501    0 -0.00000000000E+00 -0.00000000000E+00 -0.39473704070E+03  0.39473704070E+03  0.00000000000E+00 0. -1.
          2    1    1    2  501    0  0.19858020656E+03 -0.98923107051E+02  0.30818128373E+03  0.37973093525E+03  0.00000000000E+00 0.  1.
          1    1    1    2  502    0 -0.10638006638E+03 -0.44904556450E+02 -0.13799688148E+03  0.17993409074E+03  0.00000000000E+00 0. -1.
         22    1    1    2    0    0 -0.86716175072E+02  0.13527512829E+03 -0.16647293244E+03  0.23137046611E+03  0.00000000000E+00 0. -1.
         22    1    1    2    0    0 -0.54839651031E+01  0.85525352091E+01  0.22928899329E+02  0.25078958435E+02  0.00000000000E+00 0. -1.
</event>
<event>
 6    1  0.1726037E-005  0.2037082E+03  0.7818608E-02  0.1217226E+00
          2   -1    0    0  502    0  0.00000000000E+00  0.00000000000E+00  0.24406949188E+03  0.24406949188E+03  0.00000000000E+00 0. -1.
          1   -1    0    0  501    0 -0.00000000000E+00 -0.00000000000E+00 -0.84478886189E+03  0.84478886189E+03  0.00000000000E+00 0. -1.
          2    1    1    2  501    0 -0.19003492377E+03  0.25701445433E+02 -0.53898332782E+03  0.57208116926E+03  0.00000000000E+00 0. -1.
          1    1    1    2  502    0  0.20539616198E+03 -0.12513768785E+02 -0.22662070620E+03  0.30610639040E+03  0.00000000000E+00 0. -1.
         22    1    1    2    0    0 -0.36988027308E+02 -0.19572170389E+02  0.17916012805E+03  0.18398243259E+03  0.00000000000E+00 0. -1.
         22    1    1    2    0    0  0.21626789099E+02  0.63844937415E+01 -0.14275464035E+02  0.26688361517E+02  0.00000000000E+00 0.  1.
</event>
<event>
 6    1  0.1726037E-005  0.1595021E+03  0.7818608E-02  0.1287793E+00
          2   -1    0    0  502    0  0.00000000000E+00  0.00000000000E+00  0.12948546759E+03  0.12948546759E+03  0.00000000000E+00 0.  1.
          1   -1    0    0  501    0 -0.00000000000E+00 -0.00000000000E+00 -0.80100038625E+03  0.80100038625E+03  0.00000000000E+00 0. -1.
          2    1    1    2  501    0  0.14278907284E+03  0.66061700961E+02 -0.45302121154E+03  0.47956343247E+03  0.00000000000E+00 0.  1.
          1    1    1    2  502    0 -0.14007689446E+03 -0.36439822171E+02 -0.27473781358E+03  0.31053222572E+03  0.00000000000E+00 0. -1.
         22    1    1    2    0    0 -0.11345420947E+02 -0.10055596768E+02 -0.39488095344E+02  0.42298265647E+02  0.00000000000E+00 0. -1.
         22    1    1    2    0    0  0.86332425640E+01 -0.19566282022E+02  0.95732201802E+02  0.98091930001E+02  0.00000000000E+00 0.  1.
</event>
<event>
 6    1  0.1726037E-005  0.1183847E+03  0.7818608E-02  0.1331400E+00
          2   -1    0    0  502    0  0.00000000000E+00  0.00000000000E+00  0.76232292917E+02  0.76232292917E+02  0.00000000000E+00 0. -1.
          1   -1    0    0  501    0 -0.00000000000E+00 -0.00000000000E+00 -0.22054454946E+03  0.22054454946E+03  0.00000000000E+00 0. -1.
          2    1    1    2  501    0  0.32321106389E+02 -0.48774535073E+02 -0.82155359647E+02  0.10086184764E+03  0.00000000000E+00 0. -1.
          1    1    1    2  502    0  0.43538174271E+01  0.57231533058E+02 -0.91863260523E+01  0.58127383295E+02  0.00000000000E+00 0. -1.
         22    1    1    2    0    0 -0.56061866531E+02  0.51548794853E+01 -0.82532549755E+02  0.99905592589E+02  0.00000000000E+00 0. -1.
         22    1    1    2    0    0  0.19386942715E+02 -0.13611877470E+02  0.29561978908E+02  0.37882018862E+02  0.00000000000E+00 0. -1.
</event>
<event>
 6    1  0.1726037E-005  0.1919238E+03  0.7818608E-02  0.1273784E+00
          2   -1    0    0  502    0  0.00000000000E+00  0.00000000000E+00  0.58232037069E+02  0.58232037069E+02  0.00000000000E+00 0.  1.
          1   -1    0    0  501    0 -0.00000000000E+00 -0.00000000000E+00 -0.26174009055E+04  0.26174009055E+04  0.00000000000E+00 0.  1.
          2    1    1    2  501    0 -0.25033822469E+03  0.63378638723E+02 -0.81167537759E+03  0.85176463719E+03  0.00000000000E+00 0.  1.
          1    1    1    2  502    0  0.16038282471E+03  0.88565406969E+02 -0.14170064360E+04  0.14288014983E+04  0.00000000000E+00 0.  1.
         22    1    1    2    0    0  0.88634376196E+02 -0.16791047915E+03 -0.25513946063E+03  0.31803478744E+03  0.00000000000E+00 0.  1.
         22    1    1    2    0    0  0.13210237774E+01  0.15966433458E+02 -0.75347594227E+02  0.77032019686E+02  0.00000000000E+00 0. -1.
</event>
<event>
 6    1  0.1726037E-005  0.3544786E+02  0.7818608E-02  0.1608138E+00
          2   -1    0    0  502    0  0.00000000000E+00  0.00000000000E+00  0.71787466395E+02  0.71787466395E+02  0.00000000000E+00 0.  1.
          1   -1    0    0  501    0 -0.00000000000E+00 -0.00000000000E+00 -0.13444744144E+03  0.13444744144E+03  0.00000000000E+00 0. -1.
          2    1    1    2  501    0 -0.13772101838E+02  0.24994184746E+02 -0.47102677989E+01  0.28923462499E+02  0.00000000000E+00 0.  1.
          1    1    1    2  502    0  0.17613792017E+02 -0.12448439982E+02 -0.46528911750E+02  0.51284977877E+02  0.00000000000E+00 0. -1.
         22    1    1    2    0    0 -0.14514951636E+02 -0.70158872505E+01  0.55623690992E+02  0.57912878486E+02  0.00000000000E+00 0. -1.
         22    1    1    2    0    0  0.10673261457E+02 -0.55298575135E+01 -0.67044486494E+02  0.68113588978E+02  0.00000000000E+00 0. -1.
</event>
<event>
 6    1  0.1726037E-005  0.1010058E+03  0.7818608E-02  0.1353309E+00
          2   -1    0    0  502    0  0.00000000000E+00  0.00000000000E+00  0.41436032158E+03  0.41436032158E+03  0.00000000000E+00 0.  1.
          1   -1    0    0  501    0 -0.00000000000E+00 -0.00000000000E+00 -0.16682697362E+03  0.16682697362E+03  0.00000000000E+00 0.  1.
          2    1    1    2  501    0  0.47655297209E+02  0.10790450722E+03  0.26880093367E+03  0.29354446337E+03  0.00000000000E+00 0.  1.
          1    1    1    2  502    0 -0.20171400259E+02 -0.82610124520E+02 -0.10506089285E+03  0.13516326893E+03  0.00000000000E+00 0.  1.
         22    1    1    2    0    0 -0.49674502378E+01 -0.12038550669E+02 -0.31592981629E+02  0.34171900039E+02  0.00000000000E+00 0.  1.
         22    1    1    2    0    0 -0.22516446712E+02 -0.13255832028E+02  0.11538628877E+03  0.11830766286E+03  0.00000000000E+00 0.  1.
</event>
<event>
 6    1  0.1726037E-005  0.1904533E+03  0.7818608E-02  0.1223631E+00
          2   -1    0    0  502    0  0.00000000000E+00  0.00000000000E+00  0.10609624469E+03  0.10609624469E+03  0.00000000000E+00 0.  1.
          1   -1    0    0  501    0 -0.00000000000E+00 -0.00000000000E+00 -0.40389701747E+03  0.40389701747E+03  0.00000000000E+00 0. -1.
          2    1    1    2  501    0 -0.96392545033E+01  0.37929043312E+02 -0.82412789576E+01  0.39993077311E+02  0.00000000000E+00 0.  1.
          1    1    1    2  502    0 -0.16574911798E+02 -0.44425672441E+02 -0.33010154468E+03  0.33348972679E+03  0.00000000000E+00 0. -1.
         22    1    1    2    0    0  0.32401706163E+02  0.50834292500E+02 -0.17907922023E+02  0.62886322261E+02  0.00000000000E+00 0.  1.
         22    1    1    2    0    0 -0.61875398614E+01 -0.44337663371E+02  0.58449972876E+02  0.73624135798E+02  0.00000000000E+00 0.  1.
</event>
<event>
 6    1  0.1726037E-005  0.7532321E+02  0.7818608E-02  0.1423975E+00
          2   -1    0    0  502    0  0.00000000000E+00  0.00000000000E+00  0.18228582777E+03  0.18228582777E+03  0.00000000000E+00 0. -1.
          1   -1    0    0  501    0 -0.00000000000E+00 -0.00000000000E+00 -0.73264257962E+02  0.73264257962E+02  0.00000000000E+00 0. -1.
          2    1    1    2  501    0  0.33949212250E+02  0.53631546280E+02  0.30651505196E+02  0.70486924600E+02  0.00000000000E+00 0. -1.
          1    1    1    2  502    0 -0.27909346107E+02 -0.29397900199E+02  0.32248138819E+01  0.40664081950E+02  0.00000000000E+00 0. -1.
         22    1    1    2    0    0 -0.25747018677E+02 -0.19906618542E+02 -0.25753904217E+02  0.41502361559E+02  0.00000000000E+00 0. -1.
         22    1    1    2    0    0  0.19707152534E+02 -0.43270275397E+01  0.10089915494E+03  0.10289671762E+03  0.00000000000E+00 0. -1.
</event>
<event>
 6    1  0.1726037E-005  0.8990262E+02  0.7818608E-02  0.1355430E+00
          2   -1    0    0  502    0  0.00000000000E+00  0.00000000000E+00  0.37351536851E+03  0.37351536851E+03  0.00000000000E+00 0.  1.
          1   -1    0    0  501    0 -0.00000000000E+00 -0.00000000000E+00 -0.25311011417E+03  0.25311011417E+03  0.00000000000E+00 0.  1.
          2    1    1    2  501    0  0.12927823115E+03 -0.70314116970E+02  0.17063684859E+03  0.22533057980E+03  0.00000000000E+00 0.  1.
          1    1    1    2  502    0 -0.39078569164E+02  0.57348345340E+02 -0.18251777369E+03  0.19526572919E+03  0.00000000000E+00 0.  1.
         22    1    1    2    0    0 -0.26467416688E+02  0.46936574986E+01  0.13885001361E+03  0.14142800588E+03  0.00000000000E+00 0.  1.
         22    1    1    2    0    0 -0.63732245303E+02  0.82721141322E+01 -0.65638341682E+01  0.64601167811E+02  0.00000000000E+00 0. -1.
</event>
<event>
 6    1  0.1726037E-005  0.3067489E+02  0.7818608E-02  0.1633946E+00
          2   -1    0    0  502    0  0.00000000000E+00  0.00000000000E+00  0.54522325149E+03  0.54522325149E+03  0.00000000000E+00 0. -1.
          1   -1    0    0  501    0 -0.00000000000E+00 -0.00000000000E+00 -0.53291110647E+02  0.53291110647E+02  0.00000000000E+00 0.  1.
          2    1    1    2  501    0  0.21690392155E+02  0.25467656523E+01  0.33072353501E+03  0.33144383496E+03  0.00000000000E+00 0. -1.
          1    1    1    2  502    0 -0.55509166184E+01  0.25325361856E+02 -0.26520788606E+02  0.37088257666E+02  0.00000000000E+00 0.  1.
         22    1    1    2    0    0  0.13540379529E+02  0.14480875287E+01 -0.16580749310E+02  0.21456003425E+02  0.00000000000E+00 0.  1.
         22    1    1    2    0    0 -0.29679855066E+02 -0.29320215037E+02  0.20431014375E+03  0.20852626608E+03  0.00000000000E+00 0. -1.
</event>
<event>
 6    1  0.1726037E-005  0.2337632E+03  0.7818608E-02  0.1124267E+00
          2   -1    0    0  502    0  0.00000000000E+00  0.00000000000E+00  0.37800632419E+03  0.37800632419E+03  0.00000000000E+00 0. -1.
          1   -1    0    0  501    0 -0.00000000000E+00 -0.00000000000E+00 -0.14919068203E+03  0.14919068203E+03  0.00000000000E+00 0. -1.
          2    1    1    2  501    0  0.11820394672E+03 -0.13956561418E+03  0.22602847584E+02  0.18428679389E+03  0.00000000000E+00 0. -1.
          1    1    1    2  502    0 -0.73788102782E+02  0.10121962004E+03  0.13748480251E+03  0.18598969464E+03  0.00000000000E+00 0. -1.
         22    1    1    2    0    0  0.10132945613E+02 -0.39417839285E+02  0.41455007032E+02  0.58094408067E+02  0.00000000000E+00 0. -1.
         22    1    1    2    0    0 -0.54548789554E+02  0.77763833430E+02  0.27272985036E+02  0.98826109629E+02  0.00000000000E+00 0. -1.
</event>
<event>
 6    1  0.1726037E-005  0.7257377E+02  0.7818608E-02  0.1403572E+00
          2   -1    0    0  502    0  0.00000000000E+00  0.00000000000E+00  0.31776052098E+03  0.31776052098E+03  0.00000000000E+00 0.  1.
          1   -1    0    0  501    0 -0.00000000000E+00 -0.00000000000E+00 -0.25473995069E+03  0.25473995069E+03  0.00000000000E+00 0.  1.
          2    1    1    2  501    0  0.91542276418E+02  0.45655232550E+01  0.23485359077E+03  0.25210521905E+03  0.00000000000E+00 0.  1.
          1    1    1    2  502    0 -0.56830101593E+02  0.12716295075E+02 -0.17710567333E+03  0.18643439633E+03  0.00000000000E+00 0.  1.
         22    1    1    2    0    0 -0.22268087765E+02 -0.21512210627E+02  0.65429177041E+02  0.72385220501E+02  0.00000000000E+00 0. -1.
         22    1    1    2    0    0 -0.12444087060E+02  0.42303922969E+01 -0.60156524186E+02  0.61575635798E+02  0.00000000000E+00 0. -1.
</event>
<event>
 6    1  0.1726037E-005  0.7739858E+02  0.7818608E-02  0.1429708E+00
          2   -1    0    0  502    0  0.00000000000E+00  0.00000000000E+00  0.34116137918E+03  0.34116137918E+03  0.00000000000E+00 0.  1.
          1   -1    0    0  501    0 -0.00000000000E+00 -0.00000000000E+00 -0.26383423686E+03  0.26383423686E+03  0.00000000000E+00 0.  1.
          2    1    1    2  501    0 -0.52232662693E+02 -0.44548345419E+02  0.30981832687E+03  0.31733295100E+03  0.00000000000E+00 0.  1.
          1    1    1    2  502    0 -0.11495983615E+01  0.30756137633E+02 -0.77926630330E+02  0.83784373800E+02  0.00000000000E+00 0.  1.
         22    1    1    2    0    0  0.38965962549E+02  0.22880204843E+02 -0.17298168329E+03  0.17878622085E+03  0.00000000000E+00 0.  1.
         22    1    1    2    0    0  0.14416298505E+02 -0.90879970570E+01  0.18417129071E+02  0.25092070388E+02  0.00000000000E+00 0. -1.
</event>
<event>
 6    1  0.1726037E-005  0.1017479E+03  0.7818608E-02  0.1395480E+00
          2   -1    0    0  502    0  0.00000000000E+00  0.00000000000E+00  0.23700478289E+03  0.23700478289E+03  0.00000000000E+00 0. -1.
          1   -1    0    0  501    0 -0.00000000000E+00 -0.00000000000E+00 -0.41322493079E+03  0.41322493079E+03  0.00000000000E+00 0. -1.
          2    1    1    2  501    0 -0.33038096457E+02 -0.10724206317E+03  0.15145083708E+03  0.18849332079E+03  0.00000000000E+00 0. -1.
          1    1    1    2  502    0  0.24671245054E+02  0.83241660196E+02 -0.32005586085E+03  0.33162267472E+03  0.00000000000E+00 0. -1.
         22    1    1    2    0    0 -0.15736799012E+00  0.12771818911E+02  0.59846744867E+02  0.61194583046E+02  0.00000000000E+00 0. -1.
         22    1    1    2    0    0  0.85242193929E+01  0.11228584066E+02 -0.67461869000E+02  0.68919135117E+02  0.00000000000E+00 0. -1.
</event>
<event>
 6    1  0.1726037E-005  0.2990901E+02  0.7818608E-02  0.1631250E+00
          2   -1    0    0  502    0  0.00000000000E+00  0.00000000000E+00  0.45631659901E+02  0.45631659901E+02  0.00000000000E+00 0. -1.
          1   -1    0    0  501    0 -0.00000000000E+00 -0.00000000000E+00 -0.20273711516E+03  0.20273711516E+03  0.00000000000E+00 0. -1.
          2    1    1    2  501    0  0.19163962564E+02 -0.18091642717E+02 -0.45088554559E+02  0.52225881989E+02  0.00000000000E+00 0. -1.
          1    1    1    2  502    0 -0.29344834918E+02  0.13459111332E+02 -0.50975399751E+02  0.60338697317E+02  0.00000000000E+00 0. -1.
         22    1    1    2    0    0 -0.18960938790E+02  0.76988382708E+01  0.32152137855E+02  0.38112324505E+02  0.00000000000E+00 0. -1.
         22    1    1    2    0    0  0.29141811144E+02 -0.30663068860E+01 -0.93193638802E+02  0.97691871248E+02  0.00000000000E+00 0. -1.
</event>
<event>
 6    1  0.1726037E-005  0.7454203E+02  0.7818608E-02  0.1436096E+00
          2   -1    0    0  502    0  0.00000000000E+00  0.00000000000E+00  0.81687675690E+02  0.81687675690E+02  0.00000000000E+00 0.  1.
          1   -1    0    0  501    0 -0.00000000000E+00 -0.00000000000E+00 -0.27534109418E+03  0.27534109418E+03  0.00000000000E+00 0. -1.
          2    1    1    2  501    0 -0.23303476571E+01  0.67294253919E+02  0.13254133535E+02  0.68626665273E+02  0.00000000000E+00 0.  1.
          1    1    1    2  502    0  0.12058950862E+02 -0.49547609278E+02 -0.13707818071E+03  0.14625597940E+03  0.00000000000E+00 0. -1.
         22    1    1    2    0    0 -0.16973697386E+02  0.34614011763E+01  0.32802541193E+02  0.37095746518E+02  0.00000000000E+00 0.  1.
         22    1    1    2    0    0  0.72450941802E+01 -0.21208045817E+02 -0.10263191250E+03  0.10505037868E+03  0.00000000000E+00 0. -1.
</event>
<event>
 6    1  0.1726037E-005  0.3851688E+02  0.7818608E-02  0.1552878E+00
          2   -1    0    0  502    0  0.00000000000E+00  0.00000000000E+00  0.12159492619E+03  0.12159492619E+03  0.00000000000E+00 0.  1.
          1   -1    0    0  501    0 -0.00000000000E+00 -0.00000000000E+00 -0.12588938340E+03  0.12588938340E+03  0.00000000000E+00 0.  1.
          2    1    1    2  501    0 -0.25716805572E+02 -0.30197183702E+02 -0.13847796238E+02  0.42011729945E+02  0.00000000000E+00 0.  1.
          1    1    1    2  502    0  0.25372740422E+02  0.10539492231E+02 -0.58240962379E+02  0.64396168767E+02  0.00000000000E+00 0.  1.
         22    1    1    2    0    0  0.11191648206E+02 -0.27092630198E+01 -0.34205211248E+02  0.36091405795E+02  0.00000000000E+00 0.  1.
         22    1    1    2    0    0 -0.10847583056E+02  0.22366954491E+02  0.10199951265E+03  0.10498500508E+03  0.00000000000E+00 0.  1.
</event>
<event>
 6    1  0.1726037E-005  0.5187968E+02  0.7818608E-02  0.1439423E+00
          2   -1    0    0  502    0  0.00000000000E+00  0.00000000000E+00  0.88273452270E+02  0.88273452270E+02  0.00000000000E+00 0. -1.
          1   -1    0    0  501    0 -0.00000000000E+00 -0.00000000000E+00 -0.18620680025E+03  0.18620680025E+03  0.00000000000E+00 0. -1.
          2    1    1    2  501    0 -0.80509788439E+01  0.34703763847E+02 -0.11945373352E+03  0.12465297404E+03  0.00000000000E+00 0. -1.
          1    1    1    2  502    0 -0.11176742653E+02 -0.18119945575E+02  0.44782597896E+01  0.21755615705E+02  0.00000000000E+00 0. -1.
         22    1    1    2    0    0 -0.20736649639E+01  0.53404952121E+02  0.11752426252E+02  0.54722102667E+02  0.00000000000E+00 0. -1.
         22    1    1    2    0    0  0.21301386460E+02 -0.69988770394E+02  0.52896995028E+01  0.73349560103E+02  0.00000000000E+00 0. -1.
</event>
<event>
 6    1  0.1726037E-005  0.4295051E+03  0.7818608E-02  0.1172626E+00
          2   -1    0    0  502    0  0.00000000000E+00  0.00000000000E+00  0.29464095707E+03  0.29464095707E+03  0.00000000000E+00 0. -1.
          1   -1    0    0  501    0 -0.00000000000E+00 -0.00000000000E+00 -0.79668899652E+03  0.79668899652E+03  0.00000000000E+00 0. -1.
          2    1    1    2  501    0  0.41520447285E+03  0.56749241802E+02 -0.43985848811E+03  0.60752836994E+03  0.00000000000E+00 0. -1.
          1    1    1    2  502    0 -0.30344858596E+03 -0.57095939702E+02 -0.35437918683E+02  0.31080031649E+03  0.00000000000E+00 0. -1.
         22    1    1    2    0    0 -0.92482490077E+01 -0.74339441469E+01  0.45711634000E+02  0.47226550989E+02  0.00000000000E+00 0.  1.
         22    1    1    2    0    0 -0.10250763788E+03  0.77806420476E+01 -0.72463266648E+02  0.12577471617E+03  0.00000000000E+00 0.  1.
</event>
<event>
 6    1  0.1726037E-005  0.3323429E+02  0.7818608E-02  0.1567268E+00
          2   -1    0    0  502    0  0.00000000000E+00  0.00000000000E+00  0.87165846815E+02  0.87165846815E+02  0.00000000000E+00 0.  1.
          1   -1    0    0  501    0 -0.00000000000E+00 -0.00000000000E+00 -0.21875016625E+03  0.21875016625E+03  0.00000000000E+00 0.  1.
          2    1    1    2  501    0  0.41220149499E+02  0.32428466359E+02  0.27806457977E+02  0.59362490348E+02  0.00000000000E+00 0.  1.
          1    1    1    2  502    0 -0.45022542808E+02 -0.32902175429E+02 -0.91744335133E+02  0.10736203024E+03  0.00000000000E+00 0.  1.
         22    1    1    2    0    0  0.83501916717E+01 -0.17206258134E+02 -0.10012432427E+03  0.10193459340E+03  0.00000000000E+00 0.  1.
         22    1    1    2    0    0 -0.45477983624E+01  0.17679967204E+02  0.32477881992E+02  0.37256899079E+02  0.00000000000E+00 0.  1.
</event>
<event>
 6    1  0.1726037E-005  0.2534817E+02  0.7818608E-02  0.1687514E+00
          2   -1    0    0  502    0  0.00000000000E+00  0.00000000000E+00  0.12504609695E+03  0.12504609695E+03  0.00000000000E+00 0.  1.
          1   -1    0    0  501    0 -0.00000000000E+00 -0.00000000000E+00 -0.10898169847E+03  0.10898169847E+03  0.00000000000E+00 0. -1.
          2    1    1    2  501    0 -0.21401712963E+02  0.25363788135E+01  0.11600797676E+01  0.21582685660E+02  0.00000000000E+00 0.  1.
          1    1    1    2  502    0  0.30715535331E+02 -0.74429847645E+01 -0.58414830960E+02  0.66416373048E+02  0.00000000000E+00 0. -1.
         22    1    1    2    0    0 -0.10782065674E+01 -0.15182027652E+02 -0.33621655496E+02  0.36906262494E+02  0.00000000000E+00 0. -1.
         22    1    1    2    0    0 -0.82356158007E+01  0.20088633603E+02  0.10694080517E+03  0.10912247421E+03  0.00000000000E+00 0.  1.
</event>
<event>
 6    1  0.1726037E-005  0.8639524E+02  0.7818608E-02  0.1350591E+00
          2   -1    0    0  502    0  0.00000000000E+00  0.00000000000E+00  0.46448017222E+03  0.46448017222E+03  0.00000000000E+00 0.  1.
          1   -1    0    0  501    0 -0.00000000000E+00 -0.00000000000E+00 -0.83431650201E+02  0.83431650201E+02  0.00000000000E+00 0.  1.
          2    1    1    2  501    0  0.90299171520E+02 -0.26246300090E+02  0.17145420079E+03  0.19554884713E+03  0.00000000000E+00 0.  1.
          1    1    1    2  502    0 -0.28602132909E+02  0.81122040196E+02 -0.10124542853E+02  0.86610471541E+02  0.00000000000E+00 0.  1.
         22    1    1    2    0    0  0.14278110825E+02 -0.36508907611E+02  0.16683673277E+03  0.17138045450E+03  0.00000000000E+00 0.  1.
         22    1    1    2    0    0 -0.75975149436E+02 -0.18366832495E+02  0.52882131317E+02  0.94372049253E+02  0.00000000000E+00 0.  1.
</event>
<event>
 6    1  0.1726037E-005  0.1352153E+03  0.7818608E-02  0.1313819E+00
          2   -1    0    0  502    0  0.00000000000E+00  0.00000000000E+00  0.39041920309E+02  0.39041920309E+02  0.00000000000E+00 0.  1.
          1   -1    0    0  501    0 -0.00000000000E+00 -0.00000000000E+00 -0.26448874237E+04  0.26448874237E+04  0.00000000000E+00 0. -1.
          2    1    1    2  501    0  0.25288557566E+02  0.52034059955E+02 -0.84195947704E+02  0.10215680178E+03  0.00000000000E+00 0.  1.
          1    1    1    2  502    0 -0.28709562572E+02 -0.18954226472E+02 -0.24078549715E+04  0.24081007175E+04  0.00000000000E+00 0. -1.
         22    1    1    2    0    0  0.21665110819E+02 -0.21260104452E+02 -0.13790642247E+03  0.14120747298E+03  0.00000000000E+00 0.  1.
         22    1    1    2    0    0 -0.18244105813E+02 -0.11819729031E+02  0.24111838283E+02  0.32464351783E+02  0.00000000000E+00 0.  1.
</event>
<event>
 6    1  0.1726037E-005  0.5109552E+02  0.7818608E-02  0.1527023E+00
          2   -1    0    0  502    0  0.00000000000E+00  0.00000000000E+00  0.30961499671E+02  0.30961499671E+02  0.00000000000E+00 0. -1.
          1   -1    0    0  501    0 -0.00000000000E+00 -0.00000000000E+00 -0.54501433363E+03  0.54501433363E+03  0.00000000000E+00 0. -1.
          2    1    1    2  501    0  0.49444117962E+02 -0.24227212417E+02 -0.94735158454E+02  0.10957385121E+03  0.00000000000E+00 0. -1.
          1    1    1    2  502    0 -0.48825788947E+02 -0.15172749413E+02 -0.23356168682E+03  0.23909251670E+03  0.00000000000E+00 0. -1.
         22    1    1    2    0    0  0.16855057341E+01 -0.14550900897E+02  0.14072852091E+02  0.20312922302E+02  0.00000000000E+00 0. -1.
         22    1    1    2    0    0 -0.23038347496E+01  0.53950862727E+02 -0.19982884078E+03  0.20699654308E+03  0.00000000000E+00 0. -1.
</event>
<event>
 6    1  0.1726037E-005  0.2070671E+03  0.7818608E-02  0.1221783E+00
          2   -1    0    0  502    0  0.00000000000E+00  0.00000000000E+00  0.33893453625E+03  0.33893453625E+03  0.00000000000E+00 0. -1.
          1   -1    0    0  501    0 -0.00000000000E+00 -0.00000000000E+00 -0.30348532087E+03  0.30348532087E+03  0.00000000000E+00 0. -1.
          2    1    1    2  501    0 -0.15878326533E+03  0.13958100552E+03 -0.13918054794E+03  0.25311303280E+03  0.00000000000E+00 0. -1.
          1    1    1    2  502    0  0.12089665983E+03 -0.11039981003E+03 -0.74240390608E+01  0.16388787865E+03  0.00000000000E+00 0. -1.
         22    1    1    2    0    0  0.19076482542E+01 -0.25139563724E+02 -0.12066906880E+02  0.27950796549E+02  0.00000000000E+00 0.  1.
         22    1    1    2    0    0  0.35978957245E+02 -0.40416317627E+01  0.19412070926E+03  0.19746814912E+03  0.00000000000E+00 0. -1.
</event>
<event>
 6    1  0.1726037E-005  0.5848343E+02  0.7818608E-02  0.1427895E+00
          2   -1    0    0  502    0  0.00000000000E+00  0.00000000000E+00  0.96256600457E+02  0.96256600457E+02  0.00000000000E+00 0. -1.
          1   -1    0    0  501    0 -0.00000000000E+00 -0.00000000000E+00 -0.31267143072E+03  0.31267143072E+03  0.00000000000E+00 0. -1.
          2    1    1    2  501    0 -0.28111981985E+01  0.10104890276E+03 -0.12787702396E+03  0.16300710672E+03  0.00000000000E+00 0. -1.
          1    1    1    2  502    0  0.60223037378E+01 -0.54961515426E+02  0.36477599809E+02  0.66239350903E+02  0.00000000000E+00 0. -1.
         22    1    1    2    0    0  0.29778335695E+02 -0.12457505555E+02  0.12274518391E+02  0.34534077708E+02  0.00000000000E+00 0.  1.
         22    1    1    2    0    0 -0.32989441234E+02 -0.33629881776E+02 -0.13728992450E+03  0.14514749585E+03  0.00000000000E+00 0. -1.
</event>
<event>
 6    1  0.1726037E-005  0.2691683E+02  0.7818608E-02  0.1639184E+00
          2   -1    0    0  502    0  0.00000000000E+00  0.00000000000E+00  0.20344509349E+03  0.20344509349E+03  0.00000000000E+00 0. -1.
          1   -1    0    0  501    0 -0.00000000000E+00 -0.00000000000E+00 -0.14574433905E+03  0.14574433905E+03  0.00000000000E+00 0.  1.
          2    1    1    2  501    0 -0.26771728178E+02 -0.19913382414E+02  0.15364763517E+03  0.15722869974E+03  0.00000000000E+00 0. -1.
          1    1    1    2  502    0  0.27022698265E+02  0.42802141278E+01 -0.52261796628E+02  0.58990184279E+02  0.00000000000E+00 0.  1.
         22    1    1    2    0    0 -0.15275999353E+02  0.87898275500E+01  0.42084752467E+02  0.45626128641E+02  0.00000000000E+00 0.  1.
         22    1    1    2    0    0  0.15025029265E+02  0.68433407365E+01 -0.85769836578E+02  0.87344419876E+02  0.00000000000E+00 0.  1.
</event>
<event>
 6    1  0.1726037E-005  0.4821822E+02  0.7818608E-02  0.1558353E+00
          2   -1    0    0  502    0  0.00000000000E+00  0.00000000000E+00  0.14491255912E+03  0.14491255912E+03  0.00000000000E+00 0.  1.
          1   -1    0    0  501    0 -0.00000000000E+00 -0.00000000000E+00 -0.10534229272E+03  0.10534229272E+03  0.00000000000E+00 0. -1.
          2    1    1    2  501    0  0.29512072574E+02 -0.29229051152E+02  0.74456777024E+02  0.85259084582E+02  0.00000000000E+00 0.  1.
          1    1    1    2  502    0 -0.19742460775E+02  0.63070628346E+01 -0.28757568404E+02  0.35447729681E+02  0.00000000000E+00 0. -1.
         22    1    1    2    0    0 -0.20101019190E+02  0.17187295346E+02 -0.64647673335E+02  0.69848233775E+02  0.00000000000E+00 0. -1.
         22    1    1    2    0    0  0.10331407391E+02  0.57346929717E+01  0.58518731121E+02  0.59699803803E+02  0.00000000000E+00 0.  1.
</event>
<event>
 6    1  0.1726037E-005  0.6352004E+02  0.7818608E-02  0.1426548E+00
          2   -1    0    0  502    0  0.00000000000E+00  0.00000000000E+00  0.12195453529E+03  0.12195453529E+03  0.00000000000E+00 0.  1.
          1   -1    0    0  501    0 -0.00000000000E+00 -0.00000000000E+00 -0.19335043435E+03  0.19335043435E+03  0.00000000000E+00 0. -1.
          2    1    1    2  501    0  0.39532934120E+02  0.22558870085E+02 -0.26798694427E+02  0.52819745575E+02  0.00000000000E+00 0.  1.
          1    1    1    2  502    0 -0.40665197470E+02 -0.43192346279E+02 -0.10310863628E+03  0.11895641192E+03  0.00000000000E+00 0. -1.
         22    1    1    2    0    0 -0.14518431429E+02 -0.76763673361E+01 -0.38184064379E+02  0.41566022652E+02  0.00000000000E+00 0.  1.
         22    1    1    2    0    0  0.15650694778E+02  0.28309843530E+02  0.96695496032E+02  0.10196278949E+03  0.00000000000E+00 0.  1.
</event>
<event>
 6    1  0.1726037E-005  0.2115071E+03  0.7818608E-02  0.1141089E+00
          2   -1    0    0  502    0  0.00000000000E+00  0.00000000000E+00  0.33835986090E+03  0.33835986090E+03  0.00000000000E+00 0. -1.
          1   -1    0    0  501    0 -0.00000000000E+00 -0.00000000000E+00 -0.57911183253E+03  0.57911183253E+03  0.00000000000E+00 0.  1.
          2    1    1    2  501    0 -0.11305927306E+03  0.15527134156E+03  0.25206044876E+03  0.31690070774E+03  0.00000000000E+00 0. -1.
          1    1    1    2  502    0  0.91079725950E+02 -0.14757202854E+03 -0.41628928219E+03  0.45096539397E+03  0.00000000000E+00 0.  1.
         22    1    1    2    0    0  0.34513191097E+02 -0.15041903929E+02 -0.10830466429E+03  0.11466176146E+03  0.00000000000E+00 0. -1.
         22    1    1    2    0    0 -0.12533643991E+02  0.73425909043E+01  0.31781526100E+02  0.34943830272E+02  0.00000000000E+00 0. -1.
</event>
<event>
 6    1  0.1726037E-005  0.4170807E+02  0.7818608E-02  0.1525544E+00
          2   -1    0    0  502    0  0.00000000000E+00  0.00000000000E+00  0.66306461434E+02  0.66306461434E+02  0.00000000000E+00 0. -1.
          1   -1    0    0  501    0 -0.00000000000E+00 -0.00000000000E+00 -0.13485003485E+03  0.13485003485E+03  0.00000000000E+00 0.  1.
          2    1    1    2  501    0  0.60228103497E+01  0.22998347137E+02  0.25762323825E+01  0.23913075687E+02  0.00000000000E+00 0. -1.
          1    1    1    2  502    0 -0.17773599536E+02 -0.10596711383E+02 -0.37368244025E+02  0.42715065189E+02  0.00000000000E+00 0.  1.
         22    1    1    2    0    0  0.26504205994E+02  0.88940277687E+01  0.44247480020E+02  0.52339432108E+02  0.00000000000E+00 0. -1.
         22    1    1    2    0    0 -0.14753416808E+02 -0.21295663522E+02 -0.77999041798E+02  0.82188923303E+02  0.00000000000E+00 0.  1.
</event>
<event>
 6    1  0.1726037E-005  0.3578095E+02  0.7818608E-02  0.1609862E+00
          2   -1    0    0  502    0  0.00000000000E+00  0.00000000000E+00  0.67895193481E+02  0.67895193481E+02  0.00000000000E+00 0. -1.
          1   -1    0    0  501    0 -0.00000000000E+00 -0.00000000000E+00 -0.21703157777E+03  0.21703157777E+03  0.00000000000E+00 0. -1.
          2    1    1    2  501    0  0.60064592456E+02 -0.35003039679E+02 -0.87660858408E+02  0.11188116084E+03  0.00000000000E+00 0. -1.
          1    1    1    2  502    0 -0.33857559393E+02  0.63380477422E+01 -0.11987678961E+02  0.36472038936E+02  0.00000000000E+00 0. -1.
         22    1    1    2    0    0 -0.22022809321E+02  0.17078060474E+02 -0.90007164455E+02  0.94222894953E+02  0.00000000000E+00 0. -1.
         22    1    1    2    0    0 -0.41842237422E+01  0.11586931463E+02  0.40519317532E+02  0.42350676527E+02  0.00000000000E+00 0.  1.
</event>
<event>
 6    1  0.1726037E-005  0.1885264E+03  0.7818608E-02  0.1290029E+00
          2   -1    0    0  502    0  0.00000000000E+00  0.00000000000E+00  0.14356483988E+03  0.14356483988E+03  0.00000000000E+00 0. -1.
          1   -1    0    0  501    0 -0.00000000000E+00 -0.00000000000E+00 -0.46478646890E+03  0.46478646890E+03  0.00000000000E+00 0. -1.
          2    1    1    2  501    0 -0.11764299029E+03 -0.12771673278E+03 -0.28456405425E+03  0.33335887264E+03  0.00000000000E+00 0. -1.
          1    1    1    2  502    0  0.11111325735E+03  0.81521367456E+02 -0.47051231247E+02  0.14562179669E+03  0.00000000000E+00 0. -1.
         22    1    1    2    0    0  0.17186604339E+02  0.52572639750E+02 -0.45805816163E+02  0.71815281197E+02  0.00000000000E+00 0. -1.
         22    1    1    2    0    0 -0.10656871397E+02 -0.63772744275E+01  0.56199472640E+02  0.57555358240E+02  0.00000000000E+00 0. -1.
</event>
<event>
 6    1  0.1726037E-005  0.9266804E+02  0.7818608E-02  0.1307661E+00
          2   -1    0    0  502    0  0.00000000000E+00  0.00000000000E+00  0.13398075814E+03  0.13398075814E+03  0.00000000000E+00 0.  1.
          1   -1    0    0  501    0 -0.00000000000E+00 -0.00000000000E+00 -0.50438668602E+03  0.50438668602E+03  0.00000000000E+00 0.  1.
          2    1    1    2  501    0  0.19941867401E+02  0.18977902476E+03 -0.12344187509E+03  0.22726999986E+03  0.00000000000E+00 0.  1.
          1    1    1    2  502    0 -0.44421653240E+01 -0.11164583134E+03 -0.23548212036E+03  0.26064603104E+03  0.00000000000E+00 0.  1.
         22    1    1    2    0    0 -0.41421026455E+02 -0.24937684913E+02 -0.57763318894E+02  0.75327223307E+02  0.00000000000E+00 0.  1.
         22    1    1    2    0    0  0.25921324378E+02 -0.53195508508E+02  0.46281386456E+02  0.75124189947E+02  0.00000000000E+00 0.  1.
</event>
<event>
 6    1  0.1726037E-005  0.2826354E+02  0.7818608E-02  0.1659917E+00
          2   -1    0    0  502    0  0.00000000000E+00  0.00000000000E+00  0.74653057781E+02  0.74653057781E+02  0.00000000000E+00 0.  1.
          1   -1    0    0  501    0 -0.00000000000E+00 -0.00000000000E+00 -0.14168115160E+03  0.14168115160E+03  0.00000000000E+00 0.  1.
          2    1    1    2  501    0 -0.38173381792E+02 -0.20813588355E+02 -0.61178727021E+01  0.43907185108E+02  0.00000000000E+00 0.  1.
          1    1    1    2  502    0  0.23574977052E+02  0.13873686123E+02 -0.33225298267E+02  0.43036951037E+02  0.00000000000E+00 0.  1.
         22    1    1    2    0    0  0.10131536891E+02  0.19379473795E+02 -0.76112246615E+02  0.79191452375E+02  0.00000000000E+00 0.  1.
         22    1    1    2    0    0  0.44668678487E+01 -0.12439571563E+02  0.48427323767E+02  0.50198620860E+02  0.00000000000E+00 0.  1.
</event>
<event>
 6    1  0.1726037E-005  0.8635911E+02  0.7818608E-02  0.1374806E+00
          2   -1    0    0  502    0  0.00000000000E+00  0.00000000000E+00  0.13859840643E+03  0.13859840643E+03  0.00000000000E+00 0.  1.
          1   -1    0    0  501    0 -0.00000000000E+00 -0.00000000000E+00 -0.29857880941E+03  0.29857880941E+03  0.00000000000E+00 0. -1.
          2    1    1    2  501    0  0.73575737378E+02 -0.37926804430E+02  0.89546870476E+02  0.12194455149E+03  0.00000000000E+00 0.  1.
          1    1    1    2  502    0  0.26779703820E+02  0.16636791345E+02 -0.26568019206E+02  0.41228570282E+02  0.00000000000E+00 0. -1.
         22    1    1    2    0    0  0.14300190472E+02 -0.25450253020E+02 -0.78450858281E+02  0.83706319901E+02  0.00000000000E+00 0. -1.
         22    1    1    2    0    0 -0.11465563167E+03  0.46740266105E+02 -0.14450839597E+03  0.19029777418E+03  0.00000000000E+00 0. -1.
</event>
<event>
 6    1  0.1726037E-005  0.9906790E+02  0.7818608E-02  0.1292487E+00
          2   -1    0    0  502    0  0.00000000000E+00  0.00000000000E+00  0.10436386807E+03  0.10436386807E+03  0.00000000000E+00 0. -1.
          1   -1    0    0  501    0 -0.00000000000E+00 -0.00000000000E+00 -0.62205958567E+03  0.62205958567E+03  0.00000000000E+00 0. -1.
          2    1    1    2  501    0 -0.15800636761E+03 -0.49512421788E+02 -0.10656319159E+03  0.19690913112E+03  0.00000000000E+00 0. -1.
          1    1    1    2  502    0  0.73403244350E+02 -0.46943026950E+01 -0.34895374591E+03  0.35662135318E+03  0.00000000000E+00 0. -1.
         22    1    1    2    0    0  0.68647321481E+02  0.44383018367E+02  0.23606100468E+02  0.85085574837E+02  0.00000000000E+00 0. -1.
         22    1    1    2    0    0  0.15955801778E+02  0.98237061151E+01 -0.85784880572E+02  0.87807394603E+02  0.00000000000E+00 0. -1.
</event>
<event>
 6    1  0.1726037E-005  0.1340310E+03  0.7818608E-02  0.1222331E+00
          2   -1    0    0  502    0  0.00000000000E+00  0.00000000000E+00  0.17025375566E+03  0.17025375566E+03  0.00000000000E+00 0.  1.
          1   -1    0    0  501    0 -0.00000000000E+00 -0.00000000000E+00 -0.21935121776E+03  0.21935121776E+03  0.00000000000E+00 0.  1.
          2    1    1    2  501    0 -0.38169361790E+02  0.95037634563E+02  0.76263307150E+02  0.12769159792E+03  0.00000000000E+00 0.  1.
          1    1    1    2  502    0  0.24732824404E+02 -0.90582635724E+02 -0.10156340770E+03  0.13831866209E+03  0.00000000000E+00 0.  1.
         22    1    1    2    0    0  0.26823735287E+02 -0.27556400325E+02 -0.64395047017E+02  0.75003933590E+02  0.00000000000E+00 0.  1.
         22    1    1    2    0    0 -0.13387197901E+02  0.23101401487E+02  0.40597685468E+02  0.48590779822E+02  0.00000000000E+00 0.  1.
</event>
<event>
 6    1  0.1726037E-005  0.4667650E+02  0.7818608E-02  0.1502750E+00
          2   -1    0    0  502    0  0.00000000000E+00  0.00000000000E+00  0.12284404985E+03  0.12284404985E+03  0.00000000000E+00 0. -1.
          1   -1    0    0  501    0 -0.00000000000E+00 -0.00000000000E+00 -0.31815297561E+03  0.31815297561E+03  0.00000000000E+00 0. -1.
          2    1    1    2  501    0 -0.10379483967E+01  0.32026535949E+02  0.65863544290E+02  0.73244677679E+02  0.00000000000E+00 0. -1.
          1    1    1    2  502    0  0.20494284250E+02 -0.30651027798E+02 -0.23940203558E+03  0.24222476305E+03  0.00000000000E+00 0. -1.
         22    1    1    2    0    0 -0.22843761209E+02 -0.14618117564E+02 -0.70173250159E+02  0.75231720871E+02  0.00000000000E+00 0. -1.
         22    1    1    2    0    0  0.33874253552E+01  0.13242609413E+02  0.48402815694E+02  0.50295863863E+02  0.00000000000E+00 0. -1.
</event>
<event>
 6    1  0.1726037E-005  0.1185980E+03  0.7818608E-02  0.1330474E+00
          2   -1    0    0  502    0  0.00000000000E+00  0.00000000000E+00  0.16769058200E+03  0.16769058200E+03  0.00000000000E+00 0. -1.
          1   -1    0    0  501    0 -0.00000000000E+00 -0.00000000000E+00 -0.71758424122E+03  0.71758424122E+03  0.00000000000E+00 0. -1.
          2    1    1    2  501    0  0.12611592904E+03 -0.12860746371E+03 -0.49891824587E+03  0.53043804855E+03  0.00000000000E+00 0. -1.
          1    1    1    2  502    0 -0.76097156342E+02  0.18077532960E+03  0.17585247875E+02  0.19692571680E+03  0.00000000000E+00 0. -1.
         22    1    1    2    0    0 -0.63189394559E+02 -0.44109059216E+02 -0.97999193219E+02  0.12466896391E+03  0.00000000000E+00 0. -1.
         22    1    1    2    0    0  0.13170621856E+02 -0.80588066721E+01  0.29438531996E+02  0.33242093964E+02  0.00000000000E+00 0.  1.
</event>
<event>
 6    1  0.1726037E-005  0.3921048E+02  0.7818608E-02  0.1589520E+00
          2   -1    0    0  502    0  0.00000000000E+00  0.00000000000E+00  0.11691271842E+03  0.11691271842E+03  0.00000000000E+00 0.  1.
          1   -1    0    0  501    0 -0.00000000000E+00 -0.00000000000E+00 -0.27039001101E+03  0.27039001101E+03  0.00000000000E+00 0. -1.
          2    1    1    2  501    0 -0.21808071339E+02  0.24008154598E+02  0.55102888152E+02  0.63939907299E+02  0.00000000000E+00 0.  1.
          1    1    1    2  502    0  0.26494769487E+02  0.31275665127E+02 -0.17539871141E+03  0.18012453471E+03  0.00000000000E+00 0. -1.
         22    1    1    2    0    0 -0.76466398092E+00 -0.14888316939E+02  0.49196270566E+02  0.51405444555E+02  0.00000000000E+00 0.  1.
         22    1    1    2    0    0 -0.39220341674E+01 -0.40395502786E+02 -0.82377739900E+02  0.91832842863E+02  0.00000000000E+00 0.  1.
</event>
<event>
 6    1  0.1726037E-005  0.3533262E+02  0.7818608E-02  0.1554489E+00
          2   -1    0    0  502    0  0.00000000000E+00  0.00000000000E+00  0.11446685416E+03  0.11446685416E+03  0.00000000000E+00 0. -1.
          1   -1    0    0  501    0 -0.00000000000E+00 -0.00000000000E+00 -0.11519187884E+03  0.11519187884E+03  0.00000000000E+00 0.  1.
          2    1    1    2  501    0  0.21705711740E+02 -0.36699964498E+02  0.21301889625E+02  0.47663359280E+02  0.00000000000E+00 0. -1.
          1    1    1    2  502    0 -0.43806009946E+02  0.17381837867E+02 -0.78053218914E+00  0.47134955452E+02  0.00000000000E+00 0.  1.
         22    1    1    2    0    0  0.23679092525E+02 -0.98795355037E+01  0.50907028868E+02  0.57007282278E+02  0.00000000000E+00 0. -1.
         22    1    1    2    0    0 -0.15787943184E+01  0.29197662135E+02 -0.72153410990E+02  0.77853135988E+02  0.00000000000E+00 0.  1.
</event>
<event>
 6    1  0.3460692E-005  0.2652209E+02  0.7818608E-02  0.1677775E+00
          2   -1    0    0  502    0  0.00000000000E+00  0.00000000000E+00  0.83262723655E+03  0.83262723655E+03  0.00000000000E+00 0.  1.
          1   -1    0    0  501    0 -0.00000000000E+00 -0.00000000000E+00 -0.10993951702E+03  0.10993951702E+03  0.00000000000E+00 0. -1.
          2    1    1    2  501    0  0.10243175009E+01 -0.43989089352E+02  0.69936914218E+03  0.70075194344E+03  0.00000000000E+00 0.  1.
          1    1    1    2  502    0 -0.23913777937E+02  0.10883468250E+02  0.89481936243E+02  0.93259506594E+02  0.00000000000E+00 0. -1.
         22    1    1    2    0    0  0.11826463147E+02  0.21434042365E+02 -0.10431704395E+03  0.10715096388E+03  0.00000000000E+00 0. -1.
         22    1    1    2    0    0  0.11062997289E+02  0.11671578737E+02  0.38153685057E+02  0.41404339660E+02  0.00000000000E+00 0. -1.
</event>
<event>
 6    1  0.1726037E-005  0.2883551E+02  0.7818608E-02  0.1675146E+00
          2   -1    0    0  502    0  0.00000000000E+00  0.00000000000E+00  0.18306728706E+03  0.18306728706E+03  0.00000000000E+00 0.  1.
          1   -1    0    0  501    0 -0.00000000000E+00 -0.00000000000E+00 -0.10143355900E+03  0.10143355900E+03  0.00000000000E+00 0.  1.
          2    1    1    2  501    0  0.38838341673E+02 -0.19252368112E+02  0.10932032345E+03  0.11760103563E+03  0.00000000000E+00 0.  1.
          1    1    1    2  502    0 -0.28096910821E+02 -0.15768181892E+02 -0.98126275598E+01  0.33680255603E+02  0.00000000000E+00 0.  1.
         22    1    1    2    0    0 -0.30809882666E+01  0.25277263624E+02 -0.72689263890E+02  0.77020527328E+02  0.00000000000E+00 0.  1.
         22    1    1    2    0    0 -0.76604425854E+01  0.97432863799E+01  0.54815296055E+02  0.56199027497E+02  0.00000000000E+00 0.  1.
</event>
<event>
 6    1  0.1726037E-005  0.4057423E+02  0.7818608E-02  0.1608865E+00
          2   -1    0    0  502    0  0.00000000000E+00  0.00000000000E+00  0.74889478251E+02  0.74889478251E+02  0.00000000000E+00 0. -1.
          1   -1    0    0  501    0 -0.00000000000E+00 -0.00000000000E+00 -0.21914263176E+03  0.21914263176E+03  0.00000000000E+00 0.  1.
          2    1    1    2  501    0 -0.39149920455E+02  0.15784751202E+02  0.68663793427E+01  0.42767064517E+02  0.00000000000E+00 0. -1.
          1    1    1    2  502    0  0.47322874774E+02  0.14852328925E+02 -0.10589434393E+03  0.11693441849E+03  0.00000000000E+00 0.  1.
         22    1    1    2    0    0 -0.17588237360E+02 -0.35631315432E+02 -0.84638387480E+02  0.93501836174E+02  0.00000000000E+00 0.  1.
         22    1    1    2    0    0  0.94152830405E+01  0.49942353040E+01  0.39413198551E+02  0.40828790835E+02  0.00000000000E+00 0. -1.
</event>
<event>
 6    1  0.1726037E-005  0.8481679E+02  0.7818608E-02  0.1432534E+00
          2   -1    0    0  502    0  0.00000000000E+00  0.00000000000E+00  0.56609037316E+02  0.56609037316E+02  0.00000000000E+00 0. -1.
          1   -1    0    0  501    0 -0.00000000000E+00 -0.00000000000E+00 -0.54398777307E+03  0.54398777307E+03  0.00000000000E+00 0. -1.
          2    1    1    2  501    0  0.40320112288E+02  0.58234920057E+02 -0.36736761796E+02  0.79791021025E+02  0.00000000000E+00 0. -1.
          1    1    1    2  502    0 -0.14171789345E+02 -0.59145675864E+02 -0.35512938585E+03  0.36029977974E+03  0.00000000000E+00 0. -1.
         22    1    1    2    0    0 -0.36607723072E+01  0.11855388287E+02  0.30032219291E+02  0.32494394607E+02  0.00000000000E+00 0. -1.
         22    1    1    2    0    0 -0.22487550636E+02 -0.10944632480E+02 -0.12554480740E+03  0.12801161501E+03  0.00000000000E+00 0.  1.
</event>
<event>
 6    1  0.1726037E-005  0.3485645E+02  0.7818608E-02  0.1627812E+00
          2   -1    0    0  502    0  0.00000000000E+00  0.00000000000E+00  0.44821922821E+02  0.44821922821E+02  0.00000000000E+00 0. -1.
          1   -1    0    0  501    0 -0.00000000000E+00 -0.00000000000E+00 -0.87040049888E+03  0.87040049888E+03  0.00000000000E+00 0.  1.
          2    1    1    2  501    0 -0.17972751645E+02  0.11404852946E+02 -0.51206279127E+01  0.21893179363E+02  0.00000000000E+00 0. -1.
          1    1    1    2  502    0  0.24153725834E+02 -0.27080271370E+02 -0.75283659257E+03  0.75371060672E+03  0.00000000000E+00 0.  1.
         22    1    1    2    0    0 -0.83938953211E+01  0.28946344927E+02 -0.10006003133E+03  0.10450051786E+03  0.00000000000E+00 0. -1.
         22    1    1    2    0    0  0.22129211320E+01 -0.13270926503E+02  0.32438675754E+02  0.35118117758E+02  0.00000000000E+00 0. -1.
</event>
<event>
 6    1  0.1726037E-005  0.7190674E+02  0.7818608E-02  0.1455334E+00
          2   -1    0    0  502    0  0.00000000000E+00  0.00000000000E+00  0.82055661333E+03  0.82055661333E+03  0.00000000000E+00 0. -1.
          1   -1    0    0  501    0 -0.00000000000E+00 -0.00000000000E+00 -0.71231496320E+02  0.71231496320E+02  0.00000000000E+00 0.  1.
          2    1    1    2  501    0 -0.51812663285E+02  0.18330243898E+01  0.73928889401E+03  0.74110456811E+03  0.00000000000E+00 0. -1.
          1    1    1    2  502    0  0.27320470790E+02  0.25712343512E+00 -0.30314069950E+01  0.27489337297E+02  0.00000000000E+00 0.  1.
         22    1    1    2    0    0  0.37346952465E+02  0.46396339883E+01 -0.47677050007E+02  0.60740613755E+02  0.00000000000E+00 0.  1.
         22    1    1    2    0    0 -0.12854759971E+02 -0.67297818132E+01  0.60744679999E+02  0.62453590492E+02  0.00000000000E+00 0. -1.
</event>
<event>
 6    1  0.1726037E-005  0.9658704E+02  0.7818608E-02  0.1323725E+00
          2   -1    0    0  502    0  0.00000000000E+00  0.00000000000E+00  0.43815091887E+03  0.43815091887E+03  0.00000000000E+00 0.  1.
          1   -1    0    0  501    0 -0.00000000000E+00 -0.00000000000E+00 -0.79424987042E+02  0.79424987042E+02  0.00000000000E+00 0.  1.
          2    1    1    2  501    0 -0.83557394872E+02  0.36887157299E+01  0.11283591964E+03  0.14045422608E+03  0.00000000000E+00 0.  1.
          1    1    1    2  502    0  0.29409838691E+02  0.86015311127E+01 -0.44716084459E+02  0.54207500945E+02  0.00000000000E+00 0.  1.
         22    1    1    2    0    0  0.42168017998E+02  0.26772936574E+02  0.27448060177E+03  0.27898840948E+03  0.00000000000E+00 0. -1.
         22    1    1    2    0    0  0.11979538183E+02 -0.39063183416E+02  0.16125494878E+02  0.43925769415E+02  0.00000000000E+00 0.  1.
</event>
<event>
 6    1  0.1726037E-005  0.5003048E+02  0.7818608E-02  0.1562091E+00
          2   -1    0    0  502    0  0.00000000000E+00  0.00000000000E+00  0.12034152601E+03  0.12034152601E+03  0.00000000000E+00 0.  1.
          1   -1    0    0  501    0 -0.00000000000E+00 -0.00000000000E+00 -0.20680784358E+03  0.20680784358E+03  0.00000000000E+00 0. -1.
          2    1    1    2  501    0 -0.20471601676E+02  0.36726326946E+02  0.60982333035E+02  0.74072629955E+02  0.00000000000E+00 0.  1.
          1    1    1    2  502    0  0.22096788878E+02 -0.13756471582E+02 -0.12367561962E+03  0.12638499704E+03  0.00000000000E+00 0. -1.
         22    1    1    2    0    0 -0.10005181145E+02 -0.12953327948E+01  0.49140109231E+02  0.50165046318E+02  0.00000000000E+00 0. -1.
         22    1    1    2    0    0  0.83799939437E+01 -0.21674522570E+02 -0.72913140211E+02  0.76526696273E+02  0.00000000000E+00 0. -1.
</event>
<event>
 6    1  0.1726037E-005  0.7889976E+02  0.7818608E-02  0.1429507E+00
          2   -1    0    0  502    0  0.00000000000E+00  0.00000000000E+00  0.54114317339E+03  0.54114317339E+03  0.00000000000E+00 0.  1.
          1   -1    0    0  501    0 -0.00000000000E+00 -0.00000000000E+00 -0.27636088862E+03  0.27636088862E+03  0.00000000000E+00 0.  1.
          2    1    1    2  501    0  0.63326879655E+02  0.19524179328E+02  0.45995034791E+03  0.46469969853E+03  0.00000000000E+00 0.  1.
          1    1    1    2  502    0 -0.50490755891E+02 -0.15733202167E+02 -0.21754531316E+03  0.22388124834E+03  0.00000000000E+00 0.  1.
         22    1    1    2    0    0 -0.20630372113E+02  0.10338463363E+02 -0.49841125223E+02  0.54923891357E+02  0.00000000000E+00 0. -1.
         22    1    1    2    0    0  0.77942483495E+01 -0.14129440524E+02  0.72218375251E+02  0.73999223784E+02  0.00000000000E+00 0.  1.
</event>
<event>
 6    1  0.1726037E-005  0.8742835E+02  0.7818608E-02  0.1352619E+00
          2   -1    0    0  502    0  0.00000000000E+00  0.00000000000E+00  0.86010283451E+02  0.86010283451E+02  0.00000000000E+00 0.  1.
          1   -1    0    0  501    0 -0.00000000000E+00 -0.00000000000E+00 -0.42037169328E+03  0.42037169328E+03  0.00000000000E+00 0.  1.
          2    1    1    2  501    0  0.19414109765E+02  0.49271107617E+02 -0.19150425021E+02  0.56314194323E+02  0.00000000000E+00 0.  1.
          1    1    1    2  502    0 -0.47238371283E+02 -0.41803037506E+02 -0.31280991230E+03  0.31910656355E+03  0.00000000000E+00 0.  1.
         22    1    1    2    0    0 -0.90188704754E+01 -0.24914952702E+02 -0.56979508290E+02  0.62839153859E+02  0.00000000000E+00 0. -1.
         22    1    1    2    0    0  0.36843131993E+02  0.17446882592E+02  0.54578435783E+02  0.68122064999E+02  0.00000000000E+00 0.  1.
</event>
<event>
 6    1  0.1726037E-005  0.1426251E+03  0.7818608E-02  0.1271855E+00
          2   -1    0    0  502    0  0.00000000000E+00  0.00000000000E+00  0.60802855516E+03  0.60802855516E+03  0.00000000000E+00 0.  1.
          1   -1    0    0  501    0 -0.00000000000E+00 -0.00000000000E+00 -0.38098346652E+02  0.38098346652E+02  0.00000000000E+00 0.  1.
          2    1    1    2  501    0  0.30614062846E+02 -0.13773157008E+02 -0.81450057633E+01  0.34543621941E+02  0.00000000000E+00 0.  1.
          1    1    1    2  502    0  0.88464798077E+01  0.55708321460E+02  0.24393908233E+03  0.25037562416E+03  0.00000000000E+00 0.  1.
         22    1    1    2    0    0  0.40462965658E+02 -0.20504094334E+01  0.16537558962E+03  0.17026609003E+03  0.00000000000E+00 0. -1.
         22    1    1    2    0    0 -0.79923508312E+02 -0.39884755019E+02  0.16876054232E+03  0.19094156569E+03  0.00000000000E+00 0.  1.
</event>
<event>
 6    1  0.1726037E-005  0.7039589E+02  0.7818608E-02  0.1444034E+00
          2   -1    0    0  502    0  0.00000000000E+00  0.00000000000E+00  0.57954714187E+03  0.57954714187E+03  0.00000000000E+00 0.  1.
          1   -1    0    0  501    0 -0.00000000000E+00 -0.00000000000E+00 -0.44387022530E+02  0.44387022530E+02  0.00000000000E+00 0.  1.
          2    1    1    2  501    0  0.40496368914E+02  0.31792754109E+02  0.45047147690E+03  0.45340410960E+03  0.00000000000E+00 0.  1.
          1    1    1    2  502    0 -0.17893804930E+02 -0.12149558984E+02  0.12507149175E+02  0.24984571617E+02  0.00000000000E+00 0.  1.
         22    1    1    2    0    0  0.15999178517E+02 -0.88156151036E+01  0.96793463312E+02  0.98502098063E+02  0.00000000000E+00 0.  1.
         22    1    1    2    0    0 -0.38601742501E+02 -0.10827580022E+02 -0.24611970046E+02  0.47043385112E+02  0.00000000000E+00 0.  1.
</event>
<event>
 6    1  0.1726037E-005  0.1281808E+03  0.7818608E-02  0.1273989E+00
          2   -1    0    0  502    0  0.00000000000E+00  0.00000000000E+00  0.18800258084E+03  0.18800258084E+03  0.00000000000E+00 0. -1.
          1   -1    0    0  501    0 -0.00000000000E+00 -0.00000000000E+00 -0.18402429792E+03  0.18402429792E+03  0.00000000000E+00 0. -1.
          2    1    1    2  501    0  0.58384345637E+02 -0.12448251399E+03  0.79646858798E+02  0.15889697990E+03  0.00000000000E+00 0. -1.
          1    1    1    2  502    0 -0.15794583995E+02  0.36258372526E+02 -0.12853060936E+02  0.41585329591E+02  0.00000000000E+00 0. -1.
         22    1    1    2    0    0  0.10581462545E+02  0.81725168913E+02 -0.80433943422E+02  0.11515463446E+03  0.00000000000E+00 0. -1.
         22    1    1    2    0    0 -0.53171224187E+02  0.64989725557E+01  0.17618428477E+02  0.56389934810E+02  0.00000000000E+00 0.  1.
</event>
<event>
 6    1  0.1726037E-005  0.2019439E+03  0.7818608E-02  0.1284983E+00
          2   -1    0    0  502    0  0.00000000000E+00  0.00000000000E+00  0.38668001802E+03  0.38668001802E+03  0.00000000000E+00 0.  1.
          1   -1    0    0  501    0 -0.00000000000E+00 -0.00000000000E+00 -0.58437003985E+03  0.58437003985E+03  0.00000000000E+00 0. -1.
          2    1    1    2  501    0 -0.17003522967E+03 -0.88382400804E+02  0.29207969518E+03  0.34933361767E+03  0.00000000000E+00 0.  1.
          1    1    1    2  502    0  0.14709206059E+03  0.76827028209E+02 -0.46864720798E+03  0.49716060996E+03  0.00000000000E+00 0. -1.
         22    1    1    2    0    0  0.33686418703E+02  0.87223234769E+01 -0.67996485907E+02  0.76383086005E+02  0.00000000000E+00 0.  1.
         22    1    1    2    0    0 -0.10743249627E+02  0.28330491189E+01  0.46873976865E+02  0.48172744233E+02  0.00000000000E+00 0. -1.
</event>
<event>
 6    1  0.1726037E-005  0.5498267E+02  0.7818608E-02  0.1424591E+00
          2   -1    0    0  502    0  0.00000000000E+00  0.00000000000E+00  0.23148094752E+03  0.23148094752E+03  0.00000000000E+00 0. -1.
          1   -1    0    0  501    0 -0.00000000000E+00 -0.00000000000E+00 -0.26195203811E+03  0.26195203811E+03  0.00000000000E+00 0. -1.
          2    1    1    2  501    0 -0.13574139960E+02  0.53751407561E+02  0.18228581402E+03  0.19052975905E+03  0.00000000000E+00 0. -1.
          1    1    1    2  502    0 -0.12929542313E+02 -0.31072575487E+02 -0.15357829094E+03  0.15722267477E+03  0.00000000000E+00 0. -1.
         22    1    1    2    0    0 -0.21195595357E+02 -0.35578720553E+01 -0.85347634725E+02  0.88012104107E+02  0.00000000000E+00 0. -1.
         22    1    1    2    0    0  0.47699277630E+02 -0.19120960019E+02  0.26169021058E+02  0.57668447713E+02  0.00000000000E+00 0. -1.
</event>
<event>
 6    1  0.1726037E-005  0.7000405E+02  0.7818608E-02  0.1388353E+00
          2   -1    0    0  502    0  0.00000000000E+00  0.00000000000E+00  0.80960176414E+02  0.80960176414E+02  0.00000000000E+00 0.  1.
          1   -1    0    0  501    0 -0.00000000000E+00 -0.00000000000E+00 -0.23115997942E+03  0.23115997942E+03  0.00000000000E+00 0. -1.
          2    1    1    2  501    0 -0.43344538574E+02 -0.25798182312E+02 -0.73023729354E+01  0.50966850847E+02  0.00000000000E+00 0.  1.
          1    1    1    2  502    0  0.43490637887E+02  0.75643454575E+01 -0.12890158301E+03  0.13625077250E+03  0.00000000000E+00 0. -1.
         22    1    1    2    0    0  0.24924124496E+02 -0.17880783267E+02 -0.56157838917E+02  0.63989352739E+02  0.00000000000E+00 0.  1.
         22    1    1    2    0    0 -0.25070223809E+02  0.36114620122E+02  0.42161991859E+02  0.60913179738E+02  0.00000000000E+00 0.  1.
</event>
<event>
 6    1  0.1726037E-005  0.2124783E+02  0.7818608E-02  0.1737071E+00
          2   -1    0    0  502    0  0.00000000000E+00  0.00000000000E+00  0.83049128768E+02  0.83049128768E+02  0.00000000000E+00 0.  1.
          1   -1    0    0  501    0 -0.00000000000E+00 -0.00000000000E+00 -0.20614575518E+03  0.20614575518E+03  0.00000000000E+00 0. -1.
          2    1    1    2  501    0  0.24691239802E+02 -0.28680500732E+02 -0.16463980655E+02  0.41270947459E+02  0.00000000000E+00 0.  1.
          1    1    1    2  502    0 -0.23077359924E+02  0.85479190182E+01 -0.12109303722E+03  0.12356842285E+03  0.00000000000E+00 0. -1.
         22    1    1    2    0    0  0.11371897212E+02  0.13260147414E+02 -0.52745223748E+02  0.55562668978E+02  0.00000000000E+00 0. -1.
         22    1    1    2    0    0 -0.12985777090E+02  0.68724342994E+01  0.67205615218E+02  0.68792844662E+02  0.00000000000E+00 0.  1.
</event>
<event>
 6    1  0.1726037E-005  0.1491486E+03  0.7818608E-02  0.1304366E+00
          2   -1    0    0  502    0  0.00000000000E+00  0.00000000000E+00  0.81734463230E+02  0.81734463230E+02  0.00000000000E+00 0.  1.
          1   -1    0    0  501    0 -0.00000000000E+00 -0.00000000000E+00 -0.41732147616E+03  0.41732147616E+03  0.00000000000E+00 0.  1.
          2    1    1    2  501    0 -0.13805884340E+03  0.12920559491E+02 -0.21366482849E+03  0.25471522144E+03  0.00000000000E+00 0.  1.
          1    1    1    2  502    0  0.42584725747E+02  0.22642420058E+02 -0.23302755474E+02  0.53564507519E+02  0.00000000000E+00 0.  1.
         22    1    1    2    0    0  0.92509305654E+01 -0.16862487677E+02  0.29500417261E+02  0.35216442545E+02  0.00000000000E+00 0.  1.
         22    1    1    2    0    0  0.86223187089E+02 -0.18700491872E+02 -0.12811984623E+03  0.15555976789E+03  0.00000000000E+00 0.  1.
</event>
<event>
 6    1  0.1726037E-005  0.1316604E+03  0.7818608E-02  0.1272533E+00
          2   -1    0    0  502    0  0.00000000000E+00  0.00000000000E+00  0.52130210557E+03  0.52130210557E+03  0.00000000000E+00 0. -1.
          1   -1    0    0  501    0 -0.00000000000E+00 -0.00000000000E+00 -0.16705693582E+03  0.16705693582E+03  0.00000000000E+00 0. -1.
          2    1    1    2  501    0  0.96563427415E+02  0.19151474886E+02  0.32118507538E+03  0.33593321829E+03  0.00000000000E+00 0. -1.
          1    1    1    2  502    0 -0.93805549127E+02 -0.95691437847E+02 -0.89141868893E+02  0.16094286289E+03  0.00000000000E+00 0. -1.
         22    1    1    2    0    0  0.14625003089E+02  0.28769006811E+02  0.13521123740E+03  0.13900944280E+03  0.00000000000E+00 0. -1.
         22    1    1    2    0    0 -0.17382881377E+02  0.47770956150E+02 -0.13009274135E+02  0.52473517415E+02  0.00000000000E+00 0. -1.
</event>
<event>
 6    1  0.1726037E-005  0.1175433E+03  0.7818608E-02  0.1340328E+00
          2   -1    0    0  502    0  0.00000000000E+00  0.00000000000E+00  0.64763305971E+02  0.64763305971E+02  0.00000000000E+00 0.  1.
          1   -1    0    0  501    0 -0.00000000000E+00 -0.00000000000E+00 -0.39539502013E+03  0.39539502013E+03  0.00000000000E+00 0.  1.
          2    1    1    2  501    0 -0.69715567304E+02 -0.72121895341E+02 -0.55940429720E+02  0.11485277441E+03  0.00000000000E+00 0.  1.
          1    1    1    2  502    0  0.55267199839E+02  0.48569419877E+02 -0.15162164956E+03  0.16853063977E+03  0.00000000000E+00 0.  1.
         22    1    1    2    0    0  0.15898276884E+02  0.44213673564E+02 -0.14147105456E+03  0.14906932420E+03  0.00000000000E+00 0. -1.
         22    1    1    2    0    0 -0.14499094187E+01 -0.20661198100E+02  0.18401419691E+02  0.27705587720E+02  0.00000000000E+00 0.  1.
</event>
<event>
 6    1  0.1726037E-005  0.2982907E+02  0.7818608E-02  0.1655139E+00
          2   -1    0    0  502    0  0.00000000000E+00  0.00000000000E+00  0.25474660374E+03  0.25474660374E+03  0.00000000000E+00 0. -1.
          1   -1    0    0  501    0 -0.00000000000E+00 -0.00000000000E+00 -0.88735033944E+02  0.88735033944E+02  0.00000000000E+00 0.  1.
          2    1    1    2  501    0 -0.32042505126E+02 -0.23017590863E+02  0.13586763330E+03  0.14147984098E+03  0.00000000000E+00 0. -1.
          1    1    1    2  502    0  0.36112145715E+02  0.67017795324E+01 -0.40486045908E+02  0.54663706701E+02  0.00000000000E+00 0.  1.
         22    1    1    2    0    0 -0.14077026108E+02  0.13771526759E+02  0.10737697566E+03  0.10916790973E+03  0.00000000000E+00 0. -1.
         22    1    1    2    0    0  0.10007385520E+02  0.25442845710E+01 -0.36746993255E+02  0.38170180275E+02  0.00000000000E+00 0.  1.
</event>
<event>
 6    1  0.1726037E-005  0.1046767E+03  0.7818608E-02  0.1355796E+00
          2   -1    0    0  502    0  0.00000000000E+00  0.00000000000E+00  0.62094114254E+03  0.62094114254E+03  0.00000000000E+00 0.  1.
          1   -1    0    0  501    0 -0.00000000000E+00 -0.00000000000E+00 -0.47038031946E+02  0.47038031946E+02  0.00000000000E+00 0.  1.
          2    1    1    2  501    0  0.54172945704E+02 -0.65564783970E+02  0.42752869854E+03  0.43590622503E+03  0.00000000000E+00 0.  1.
          1    1    1    2  502    0 -0.10586855923E+02  0.35614060153E+02  0.30948270713E+01  0.37282982090E+02  0.00000000000E+00 0.  1.
         22    1    1    2    0    0  0.21021200627E+02  0.80399662714E+01  0.12092150031E+03  0.12299813482E+03  0.00000000000E+00 0. -1.
         22    1    1    2    0    0 -0.64607290407E+02  0.21910757545E+02  0.22358084680E+02  0.71791832547E+02  0.00000000000E+00 0.  1.
</event>
<event>
 6    1  0.1726037E-005  0.5895043E+02  0.7818608E-02  0.1509656E+00
          2   -1    0    0  502    0  0.00000000000E+00  0.00000000000E+00  0.89725248004E+02  0.89725248004E+02  0.00000000000E+00 0.  1.
          1   -1    0    0  501    0 -0.00000000000E+00 -0.00000000000E+00 -0.30118873067E+03  0.30118873067E+03  0.00000000000E+00 0.  1.
          2    1    1    2  501    0 -0.43496262131E+02 -0.49822819997E+02  0.45136646706E+02  0.80072186730E+02  0.00000000000E+00 0.  1.
          1    1    1    2  502    0  0.26884633045E+02  0.15644589201E+02 -0.12187397656E+03  0.12578077289E+03  0.00000000000E+00 0.  1.
         22    1    1    2    0    0  0.29583554002E+01  0.11891058273E+02  0.22530533797E+02  0.25647106790E+02  0.00000000000E+00 0.  1.
         22    1    1    2    0    0  0.13653273686E+02  0.22287172523E+02 -0.15725668661E+03  0.15941391227E+03  0.00000000000E+00 0.  1.
</event>
<event>
 6    1  0.1726037E-005  0.5865583E+02  0.7818608E-02  0.1458301E+00
          2   -1    0    0  502    0  0.00000000000E+00  0.00000000000E+00  0.15912472797E+04  0.15912472797E+04  0.00000000000E+00 0.  1.
          1   -1    0    0  501    0 -0.00000000000E+00 -0.00000000000E+00 -0.80828232173E+02  0.80828232173E+02  0.00000000000E+00 0.  1.
          2    1    1    2  501    0 -0.11829414463E+02  0.37024099705E+02  0.14439823988E+04  0.14445054126E+04  0.00000000000E+00 0.  1.
          1    1    1    2  502    0  0.23294152571E+02 -0.22598413038E+02 -0.48019824538E+02  0.57958686705E+02  0.00000000000E+00 0.  1.
         22    1    1    2    0    0  0.13215866074E+02 -0.21222319158E+02 -0.20448912981E+02  0.32298668527E+02  0.00000000000E+00 0.  1.
         22    1    1    2    0    0 -0.24680604182E+02  0.67966324906E+01  0.13490538620E+03  0.13731274398E+03  0.00000000000E+00 0.  1.
</event>
<event>
 6    1  0.1726037E-005  0.1384871E+03  0.7818608E-02  0.1261195E+00
          2   -1    0    0  502    0  0.00000000000E+00  0.00000000000E+00  0.57776441152E+03  0.57776441152E+03  0.00000000000E+00 0.  1.
          1   -1    0    0  501    0 -0.00000000000E+00 -0.00000000000E+00 -0.61986060175E+02  0.61986060175E+02  0.00000000000E+00 0. -1.
          2    1    1    2  501    0 -0.10591394192E+03  0.14146120255E+02  0.12127105622E+03  0.16163089089E+03  0.00000000000E+00 0.  1.
          1    1    1    2  502    0  0.11746451119E+03 -0.18571976033E+02  0.85796049061E+02  0.14664171206E+03  0.00000000000E+00 0. -1.
         22    1    1    2    0    0  0.40696557871E+02  0.19764126009E+02  0.51428886735E+02  0.68496429763E+02  0.00000000000E+00 0. -1.
         22    1    1    2    0    0 -0.52247127134E+02 -0.15338270231E+02  0.25728235933E+03  0.26298143899E+03  0.00000000000E+00 0.  1.
</event>
<event>
 6    1  0.1726037E-005  0.9481628E+02  0.7818608E-02  0.1328911E+00
          2   -1    0    0  502    0  0.00000000000E+00  0.00000000000E+00  0.34268384671E+03  0.34268384671E+03  0.00000000000E+00 0. -1.
          1   -1    0    0  501    0 -0.00000000000E+00 -0.00000000000E+00 -0.34192251747E+03  0.34192251747E+03  0.00000000000E+00 0. -1.
          2    1    1    2  501    0  0.23362380370E+03  0.15485428127E+03 -0.11274121087E+02  0.28051209580E+03  0.00000000000E+00 0. -1.
          1    1    1    2  502    0 -0.21559923217E+03 -0.13035856840E+03 -0.60881193235E+02  0.25919665306E+03  0.00000000000E+00 0. -1.
         22    1    1    2    0    0 -0.36315299229E+01 -0.33822553899E+02 -0.27055867835E+02  0.43464619475E+02  0.00000000000E+00 0. -1.
         22    1    1    2    0    0 -0.14393041613E+02  0.93268410286E+01  0.99972511401E+02  0.10143299585E+03  0.00000000000E+00 0. -1.
</event>
<event>
 6    1  0.1726037E-005  0.7086087E+02  0.7818608E-02  0.1417173E+00
          2   -1    0    0  502    0  0.00000000000E+00  0.00000000000E+00  0.24568100980E+03  0.24568100980E+03  0.00000000000E+00 0. -1.
          1   -1    0    0  501    0 -0.00000000000E+00 -0.00000000000E+00 -0.28112084304E+03  0.28112084304E+03  0.00000000000E+00 0. -1.
          2    1    1    2  501    0  0.53331546871E+02 -0.11892753536E+03  0.16440505778E+03  0.20980237268E+03  0.00000000000E+00 0. -1.
          1    1    1    2  502    0 -0.11090272418E+02  0.88915353482E+02 -0.14506578980E+03  0.17050811593E+03  0.00000000000E+00 0. -1.
         22    1    1    2    0    0  0.45275970840E-01  0.16859977316E+02  0.39161056786E+02  0.42636243427E+02  0.00000000000E+00 0.  1.
         22    1    1    2    0    0 -0.42286550424E+02  0.13152204561E+02 -0.93940158001E+02  0.10385512080E+03  0.00000000000E+00 0.  1.
</event>
<event>
 6    1  0.1726037E-005  0.1008458E+03  0.7818608E-02  0.1282331E+00
          2   -1    0    0  502    0  0.00000000000E+00  0.00000000000E+00  0.72104624800E+03  0.72104624800E+03  0.00000000000E+00 0. -1.
          1   -1    0    0  501    0 -0.00000000000E+00 -0.00000000000E+00 -0.13681440469E+03  0.13681440469E+03  0.00000000000E+00 0.  1.
          2    1    1    2  501    0 -0.73190446340E+02 -0.19244326457E+02  0.59787867279E+03  0.60264922875E+03  0.00000000000E+00 0. -1.
          1    1    1    2  502    0  0.60003182811E+02  0.40866295834E+02 -0.83583065621E+02  0.11070937151E+03  0.00000000000E+00 0.  1.
         22    1    1    2    0    0 -0.13159827114E+02 -0.11466649638E+02  0.10101487098E+03  0.10251180061E+03  0.00000000000E+00 0. -1.
         22    1    1    2    0    0  0.26347090643E+02 -0.10155319739E+02 -0.31078634841E+02  0.41990251821E+02  0.00000000000E+00 0.  1.
</event>
<event>
 6    1  0.1726037E-005  0.6293913E+02  0.7818608E-02  0.1509712E+00
          2   -1    0    0  502    0  0.00000000000E+00  0.00000000000E+00  0.45976314346E+02  0.45976314346E+02  0.00000000000E+00 0. -1.
          1   -1    0    0  501    0 -0.00000000000E+00 -0.00000000000E+00 -0.33478698763E+03  0.33478698763E+03  0.00000000000E+00 0.  1.
          2    1    1    2  501    0  0.10796562654E+02 -0.33076782735E+02  0.82255598325E+00  0.34803964136E+02  0.00000000000E+00 0. -1.
          1    1    1    2  502    0 -0.37473177109E+02 -0.28962022654E+02 -0.57480023645E+02  0.74478123480E+02  0.00000000000E+00 0.  1.
         22    1    1    2    0    0 -0.13341191807E+01 -0.99719305348E+01  0.11845127016E+02  0.15541116646E+02  0.00000000000E+00 0. -1.
         22    1    1    2    0    0  0.28010733636E+02  0.72010735924E+02 -0.24399833263E+03  0.25594009771E+03  0.00000000000E+00 0.  1.
</event>
<event>
 6    1  0.1726037E-005  0.1019340E+03  0.7818608E-02  0.1362158E+00
          2   -1    0    0  502    0  0.00000000000E+00  0.00000000000E+00  0.14873461297E+03  0.14873461297E+03  0.00000000000E+00 0.  1.
          1   -1    0    0  501    0 -0.00000000000E+00 -0.00000000000E+00 -0.16305934345E+03  0.16305934345E+03  0.00000000000E+00 0.  1.
          2    1    1    2  501    0  0.61823950211E+02 -0.64384766869E+02 -0.91478280024E+02  0.12781187246E+03  0.00000000000E+00 0.  1.
          1    1    1    2  502    0 -0.14999916110E+02  0.22022484043E+02  0.23152937898E+02  0.35299374216E+02  0.00000000000E+00 0.  1.
         22    1    1    2    0    0 -0.82274273381E+01  0.20292871469E+02  0.89279554586E+02  0.91925676827E+02  0.00000000000E+00 0.  1.
         22    1    1    2    0    0 -0.38596606762E+02  0.22069411357E+02 -0.35278942938E+02  0.56757032921E+02  0.00000000000E+00 0.  1.
</event>
<event>
 6    1  0.1726037E-005  0.2136851E+03  0.7818608E-02  0.1229217E+00
          2   -1    0    0  502    0  0.00000000000E+00  0.00000000000E+00  0.11799552038E+03  0.11799552038E+03  0.00000000000E+00 0.  1.
          1   -1    0    0  501    0 -0.00000000000E+00 -0.00000000000E+00 -0.47388497465E+03  0.47388497465E+03  0.00000000000E+00 0.  1.
          2    1    1    2  501    0  0.15129464814E+03 -0.14526136050E+03 -0.19169270188E+03  0.28414261448E+03  0.00000000000E+00 0.  1.
          1    1    1    2  502    0 -0.47585464142E+02  0.45234468930E+02 -0.22167504478E+02  0.69295972695E+02  0.00000000000E+00 0.  1.
         22    1    1    2    0    0  0.62219658442E+01  0.27529082016E+02  0.16233263002E+02  0.32558901138E+02  0.00000000000E+00 0. -1.
         22    1    1    2    0    0 -0.10993114984E+03  0.72497809557E+02 -0.15826251091E+03  0.20588300672E+03  0.00000000000E+00 0.  1.
</event>
<event>
 6    1  0.1726037E-005  0.9024382E+02  0.7818608E-02  0.1327725E+00
          2   -1    0    0  502    0  0.00000000000E+00  0.00000000000E+00  0.90552870800E+03  0.90552870800E+03  0.00000000000E+00 0.  1.
          1   -1    0    0  501    0 -0.00000000000E+00 -0.00000000000E+00 -0.41021388307E+02  0.41021388307E+02  0.00000000000E+00 0.  1.
          2    1    1    2  501    0  0.54136651587E+01  0.27356616614E+02  0.55082587771E+03  0.55153135885E+03  0.00000000000E+00 0.  1.
          1    1    1    2  502    0 -0.70327984768E+02 -0.18428408980E+02  0.29465849035E+02  0.78446593032E+02  0.00000000000E+00 0.  1.
         22    1    1    2    0    0  0.56932647736E+02  0.36786369274E+01  0.29350318691E+03  0.29899662118E+03  0.00000000000E+00 0.  1.
         22    1    1    2    0    0  0.79816718734E+01 -0.12606844562E+02 -0.92875939639E+01  0.17575523245E+02  0.00000000000E+00 0. -1.
</event>
<event>
 6    1  0.1726037E-005  0.6855079E+02  0.7818608E-02  0.1368224E+00
          2   -1    0    0  502    0  0.00000000000E+00  0.00000000000E+00  0.77752753317E+03  0.77752753317E+03  0.00000000000E+00 0.  1.
          1   -1    0    0  501    0 -0.00000000000E+00 -0.00000000000E+00 -0.43180936650E+03  0.43180936650E+03  0.00000000000E+00 0.  1.
          2    1    1    2  501    0 -0.13573813890E+03  0.13026853406E+03  0.57860118580E+03  0.60841931719E+03  0.00000000000E+00 0.  1.
          1    1    1    2  502    0  0.11524685066E+03 -0.15513154921E+03 -0.36491227147E+03  0.41292687006E+03  0.00000000000E+00 0.  1.
         22    1    1    2    0    0 -0.70436300344E+01  0.25149146672E+02 -0.20371430600E+02  0.33122311016E+02  0.00000000000E+00 0.  1.
         22    1    1    2    0    0  0.27534918273E+02 -0.28613151955E+00  0.15240068294E+03  0.15486840141E+03  0.00000000000E+00 0.  1.
</event>
<event>
 6    1  0.1726037E-005  0.1036254E+03  0.7818608E-02  0.1332130E+00
          2   -1    0    0  502    0  0.00000000000E+00  0.00000000000E+00  0.19985769729E+03  0.19985769729E+03  0.00000000000E+00 0. -1.
          1   -1    0    0  501    0 -0.00000000000E+00 -0.00000000000E+00 -0.15844239228E+03  0.15844239228E+03  0.00000000000E+00 0.  1.
          2    1    1    2  501    0  0.65332819237E+02  0.51036368738E+02  0.10757530993E+03  0.13581434207E+03  0.00000000000E+00 0. -1.
          1    1    1    2  502    0 -0.75588287462E+02 -0.27389323471E+02 -0.49871266988E+02  0.94609235874E+02  0.00000000000E+00 0.  1.
         22    1    1    2    0    0  0.23488364232E+02  0.86149679239E+01  0.48345774036E+02  0.54435602264E+02  0.00000000000E+00 0. -1.
         22    1    1    2    0    0 -0.13232896007E+02 -0.32262013191E+02 -0.64634511973E+02  0.73440909375E+02  0.00000000000E+00 0.  1.
</event>
<event>
 6    1  0.1726037E-005  0.1251077E+03  0.7818608E-02  0.1326722E+00
          2   -1    0    0  502    0  0.00000000000E+00  0.00000000000E+00  0.26736830569E+03  0.26736830569E+03  0.00000000000E+00 0. -1.
          1   -1    0    0  501    0 -0.00000000000E+00 -0.00000000000E+00 -0.19078439180E+03  0.19078439180E+03  0.00000000000E+00 0. -1.
          2    1    1    2  501    0 -0.65097722575E+02  0.57543137753E+02  0.14385417600E+03  0.16805638976E+03  0.00000000000E+00 0. -1.
          1    1    1    2  502    0  0.50949810192E+02 -0.73947488028E+01 -0.13275657753E+03  0.14238986742E+03  0.00000000000E+00 0. -1.
         22    1    1    2    0    0 -0.19695930134E+02 -0.93331782328E+01  0.87590770723E+02  0.90261736055E+02  0.00000000000E+00 0. -1.
         22    1    1    2    0    0  0.33843842517E+02 -0.40815210717E+02 -0.22104455305E+02  0.57444704251E+02  0.00000000000E+00 0. -1.
</event>
<event>
 6    1  0.1726037E-005  0.2110919E+02  0.7818608E-02  0.1725064E+00
          2   -1    0    0  502    0  0.00000000000E+00  0.00000000000E+00  0.82520885925E+02  0.82520885925E+02  0.00000000000E+00 0.  1.
          1   -1    0    0  501    0 -0.00000000000E+00 -0.00000000000E+00 -0.15110708561E+03  0.15110708561E+03  0.00000000000E+00 0. -1.
          2    1    1    2  501    0 -0.45170788125E+01 -0.19489019469E+02 -0.16238138799E+02  0.25766315850E+02  0.00000000000E+00 0.  1.
          1    1    1    2  502    0 -0.16826224315E+02  0.24810716321E+02 -0.76066974124E+02  0.81761103353E+02  0.00000000000E+00 0. -1.
         22    1    1    2    0    0  0.14396403565E+02  0.11068160393E+02 -0.48464309283E+02  0.51754708813E+02  0.00000000000E+00 0. -1.
         22    1    1    2    0    0  0.69468995628E+01 -0.16389857246E+02  0.72183222524E+02  0.74345843515E+02  0.00000000000E+00 0.  1.
</event>
<event>
 6    1  0.1726037E-005  0.6341254E+02  0.7818608E-02  0.1442174E+00
          2   -1    0    0  502    0  0.00000000000E+00  0.00000000000E+00  0.26616951730E+03  0.26616951730E+03  0.00000000000E+00 0.  1.
          1   -1    0    0  501    0 -0.00000000000E+00 -0.00000000000E+00 -0.14408035564E+03  0.14408035564E+03  0.00000000000E+00 0. -1.
          2    1    1    2  501    0 -0.38132184538E+02  0.76395473035E+02  0.17595987683E+03  0.19558172218E+03  0.00000000000E+00 0.  1.
          1    1    1    2  502    0 -0.37044841772E+01 -0.60722697855E+02 -0.56326909839E+02  0.82907719845E+02  0.00000000000E+00 0. -1.
         22    1    1    2    0    0  0.54760057596E+02  0.19981476101E+01 -0.50462290176E+02  0.74492276322E+02  0.00000000000E+00 0. -1.
         22    1    1    2    0    0 -0.12923388882E+02 -0.17670922790E+02  0.52918484842E+02  0.57268154592E+02  0.00000000000E+00 0.  1.
</event>
<event>
 6    1  0.1726037E-005  0.1558911E+03  0.7818608E-02  0.1254657E+00
          2   -1    0    0  502    0  0.00000000000E+00  0.00000000000E+00  0.29021346493E+03  0.29021346493E+03  0.00000000000E+00 0.  1.
          1   -1    0    0  501    0 -0.00000000000E+00 -0.00000000000E+00 -0.10248592308E+03  0.10248592308E+03  0.00000000000E+00 0.  1.
          2    1    1    2  501    0  0.89678763180E+02 -0.28404137822E+02 -0.19637208130E+02  0.96097323345E+02  0.00000000000E+00 0.  1.
          1    1    1    2  502    0 -0.44959856146E+02  0.61228197836E+02  0.62108652002E+02  0.98121177778E+02  0.00000000000E+00 0.  1.
         22    1    1    2    0    0 -0.13268392632E+02 -0.62772154877E+02  0.22046043822E+02  0.67841150633E+02  0.00000000000E+00 0.  1.
         22    1    1    2    0    0 -0.31450514401E+02  0.29948094863E+02  0.12321005416E+03  0.13063973625E+03  0.00000000000E+00 0.  1.
</event>
<event>
 6    1  0.1726037E-005  0.5724610E+02  0.7818608E-02  0.1502639E+00
          2   -1    0    0  502    0  0.00000000000E+00  0.00000000000E+00  0.10098157362E+03  0.10098157362E+03  0.00000000000E+00 0.  1.
          1   -1    0    0  501    0 -0.00000000000E+00 -0.00000000000E+00 -0.18890759221E+03  0.18890759221E+03  0.00000000000E+00 0. -1.
          2    1    1    2  501    0  0.40202909099E+02 -0.49042326375E+02  0.40988702117E+02  0.75508260327E+02  0.00000000000E+00 0.  1.
          1    1    1    2  502    0 -0.20031982104E+02  0.94423169753E+01 -0.56427495874E+02  0.60617653761E+02  0.00000000000E+00 0. -1.
         22    1    1    2    0    0  0.31138807971E+01  0.14390586103E+02  0.36576005173E+02  0.39428281429E+02  0.00000000000E+00 0.  1.
         22    1    1    2    0    0 -0.23284807792E+02  0.25209423296E+02 -0.10906323001E+03  0.11433497031E+03  0.00000000000E+00 0. -1.
</event>
<event>
 6    1  0.1726037E-005  0.1088122E+03  0.7818608E-02  0.1386079E+00
          2   -1    0    0  502    0  0.00000000000E+00  0.00000000000E+00  0.20424857425E+03  0.20424857425E+03  0.00000000000E+00 0.  1.
          1   -1    0    0  501    0 -0.00000000000E+00 -0.00000000000E+00 -0.28664367605E+03  0.28664367605E+03  0.00000000000E+00 0.  1.
          2    1    1    2  501    0 -0.93128698629E+02 -0.11342257574E+02  0.10704904627E+03  0.14234148946E+03  0.00000000000E+00 0.  1.
          1    1    1    2  502    0  0.88495056097E+02  0.42500102153E+01 -0.19966708840E+03  0.21844080143E+03  0.00000000000E+00 0.  1.
         22    1    1    2    0    0  0.12181516676E+02  0.16605797290E+02 -0.57619357054E+02  0.61189314096E+02  0.00000000000E+00 0.  1.
         22    1    1    2    0    0 -0.75478741439E+01 -0.95135499312E+01  0.67842297378E+02  0.68920645310E+02  0.00000000000E+00 0.  1.
</event>
<event>
 6    1  0.1726037E-005  0.8928189E+02  0.7818608E-02  0.1364768E+00
          2   -1    0    0  502    0  0.00000000000E+00  0.00000000000E+00  0.19755543721E+03  0.19755543721E+03  0.00000000000E+00 0. -1.
          1   -1    0    0  501    0 -0.00000000000E+00 -0.00000000000E+00 -0.10241801907E+03  0.10241801907E+03  0.00000000000E+00 0. -1.
          2    1    1    2  501    0  0.34351467794E+02 -0.54793425346E+02  0.20569559510E+02  0.67863462771E+02  0.00000000000E+00 0. -1.
          1    1    1    2  502    0 -0.21948660933E+02  0.52094983011E+02 -0.31803034196E+02  0.64861883689E+02  0.00000000000E+00 0. -1.
         22    1    1    2    0    0 -0.39176178706E+02  0.18711357652E+02 -0.11831216574E+02  0.44998506295E+02  0.00000000000E+00 0. -1.
         22    1    1    2    0    0  0.26773371845E+02 -0.16012915316E+02  0.11820210940E+03  0.12224960353E+03  0.00000000000E+00 0. -1.
</event>
<event>
 6    1  0.1726037E-005  0.9013841E+02  0.7818608E-02  0.1348960E+00
          2   -1    0    0  502    0  0.00000000000E+00  0.00000000000E+00  0.35484835812E+02  0.35484835812E+02  0.00000000000E+00 0.  1.
          1   -1    0    0  501    0 -0.00000000000E+00 -0.00000000000E+00 -0.63227006275E+03  0.63227006275E+03  0.00000000000E+00 0.  1.
          2    1    1    2  501    0 -0.66195308879E+02 -0.25859313528E+02 -0.64251617673E+02  0.95806019578E+02  0.00000000000E+00 0.  1.
          1    1    1    2  502    0  0.57142080509E+02  0.13657953342E+02 -0.31488839577E+03  0.32032242951E+03  0.00000000000E+00 0.  1.
         22    1    1    2    0    0  0.25134497000E+02 -0.23976359289E+02 -0.20799612256E+03  0.21087673116E+03  0.00000000000E+00 0.  1.
         22    1    1    2    0    0 -0.16081268630E+02  0.36177719475E+02 -0.96490909341E+01  0.40749718318E+02  0.00000000000E+00 0.  1.
</event>
<event>
 6    1  0.1726037E-005  0.5388460E+02  0.7818608E-02  0.1430282E+00
          2   -1    0    0  502    0  0.00000000000E+00  0.00000000000E+00  0.17692981574E+03  0.17692981574E+03  0.00000000000E+00 0.  1.
          1   -1    0    0  501    0 -0.00000000000E+00 -0.00000000000E+00 -0.10961891799E+03  0.10961891799E+03  0.00000000000E+00 0. -1.
          2    1    1    2  501    0  0.84321033129E+01 -0.34517541550E+02  0.85750846681E+02  0.92821165407E+02  0.00000000000E+00 0.  1.
          1    1    1    2  502    0 -0.37128490050E+02 -0.26335365516E+01 -0.42201996605E+02  0.56271385318E+02  0.00000000000E+00 0. -1.
         22    1    1    2    0    0 -0.12162705263E+02  0.82183306558E+01 -0.47865546552E+02  0.50065785770E+02  0.00000000000E+00 0. -1.
         22    1    1    2    0    0  0.40859092001E+02  0.28932747446E+02  0.71627594225E+02  0.87390397232E+02  0.00000000000E+00 0. -1.
</event>
<event>
 6    1  0.1726037E-005  0.1240116E+03  0.7818608E-02  0.1278783E+00
          2   -1    0    0  502    0  0.00000000000E+00  0.00000000000E+00  0.21394450576E+02  0.21394450576E+02  0.00000000000E+00 0. -1.
          1   -1    0    0  501    0 -0.00000000000E+00 -0.00000000000E+00 -0.16100646133E+04  0.16100646133E+04  0.00000000000E+00 0. -1.
          2    1    1    2  501    0 -0.53070460983E+02 -0.35281804503E+02 -0.40575965243E+03  0.41073370339E+03  0.00000000000E+00 0. -1.
          1    1    1    2  502    0  0.61666473537E+02  0.40765452753E+02 -0.97053665221E+03  0.97334781521E+03  0.00000000000E+00 0. -1.
         22    1    1    2    0    0  0.43863228689E+02 -0.18149991085E+02 -0.17601904334E+03  0.18230773057E+03  0.00000000000E+00 0. -1.
         22    1    1    2    0    0 -0.52459241243E+02  0.12666342835E+02 -0.36354814776E+02  0.65069814738E+02  0.00000000000E+00 0. -1.
</event>
<event>
 6    1  0.1726037E-005  0.6264186E+02  0.7818608E-02  0.1451056E+00
          2   -1    0    0  502    0  0.00000000000E+00  0.00000000000E+00  0.18300404219E+03  0.18300404219E+03  0.00000000000E+00 0. -1.
          1   -1    0    0  501    0 -0.00000000000E+00 -0.00000000000E+00 -0.74170327456E+02  0.74170327456E+02  0.00000000000E+00 0. -1.
          2    1    1    2  501    0  0.15218860569E+02 -0.45386556930E+02 -0.83845256450E+01  0.48598904692E+02  0.00000000000E+00 0. -1.
          1    1    1    2  502    0 -0.17441803189E+02  0.13899025423E+02 -0.10248289249E+02  0.24544385076E+02  0.00000000000E+00 0. -1.
         22    1    1    2    0    0 -0.23368359569E+02 -0.20147693344E-02  0.13970699071E+03  0.14164788557E+03  0.00000000000E+00 0. -1.
         22    1    1    2    0    0  0.25591302190E+02  0.31489546276E+02 -0.12240461081E+02  0.42383194310E+02  0.00000000000E+00 0. -1.
</event>
<event>
 6    1  0.1726037E-005  0.5012066E+02  0.7818608E-02  0.1523347E+00
          2   -1    0    0  502    0  0.00000000000E+00  0.00000000000E+00  0.70939543778E+02  0.70939543778E+02  0.00000000000E+00 0.  1.
          1   -1    0    0  501    0 -0.00000000000E+00 -0.00000000000E+00 -0.22464734732E+03  0.22464734732E+03  0.00000000000E+00 0.  1.
          2    1    1    2  501    0  0.17992679832E+02  0.29267512278E+02  0.22149922584E+01  0.34427169404E+02  0.00000000000E+00 0.  1.
          1    1    1    2  502    0 -0.12288115631E+02 -0.36255933541E+02 -0.13122913639E+03  0.13669885421E+03  0.00000000000E+00 0.  1.
         22    1    1    2    0    0 -0.94316789106E+01 -0.91749274170E+01 -0.72590323163E+02  0.73773239573E+02  0.00000000000E+00 0.  1.
         22    1    1    2    0    0  0.37271147097E+01  0.16163348680E+02  0.47896663756E+02  0.50687627915E+02  0.00000000000E+00 0.  1.
</event>
<event>
 6    1  0.1726037E-005  0.1021226E+03  0.7818608E-02  0.1277695E+00
          2   -1    0    0  502    0  0.00000000000E+00  0.00000000000E+00  0.83914419980E+03  0.83914419980E+03  0.00000000000E+00 0.  1.
          1   -1    0    0  501    0 -0.00000000000E+00 -0.00000000000E+00 -0.47038941416E+02  0.47038941416E+02  0.00000000000E+00 0.  1.
          2    1    1    2  501    0 -0.99870230978E+02  0.30455118735E+02  0.36149148156E+03  0.37626808067E+03  0.00000000000E+00 0.  1.
          1    1    1    2  502    0  0.75087508076E+02  0.50502365971E+02  0.53382737166E+02  0.10506350206E+03  0.00000000000E+00 0.  1.
         22    1    1    2    0    0  0.15889994636E+02 -0.97378248437E+02  0.37283162992E+03  0.38566622806E+03  0.00000000000E+00 0.  1.
         22    1    1    2    0    0  0.88927282656E+01  0.16420763732E+02  0.43994097443E+01  0.19185330428E+02  0.00000000000E+00 0. -1.
</event>
<event>
 6    1  0.1726037E-005  0.3648134E+02  0.7818608E-02  0.1548458E+00
          2   -1    0    0  502    0  0.00000000000E+00  0.00000000000E+00  0.71423712039E+02  0.71423712039E+02  0.00000000000E+00 0. -1.
          1   -1    0    0  501    0 -0.00000000000E+00 -0.00000000000E+00 -0.35968565749E+03  0.35968565749E+03  0.00000000000E+00 0. -1.
          2    1    1    2  501    0  0.72387057516E+02 -0.11107726821E+02 -0.76245157167E+02  0.10571940069E+03  0.00000000000E+00 0. -1.
          1    1    1    2  502    0 -0.58973482789E+02 -0.10660935981E+02 -0.17915804396E+03  0.18891567416E+03  0.00000000000E+00 0. -1.
         22    1    1    2    0    0 -0.18645473031E+02  0.16328664318E+00  0.48590826299E+02  0.52045640812E+02  0.00000000000E+00 0. -1.
         22    1    1    2    0    0  0.52318983036E+01  0.21605376158E+02 -0.81449570626E+02  0.84428653868E+02  0.00000000000E+00 0. -1.
</event>
<event>
 6    1  0.1726037E-005  0.6950831E+02  0.7818608E-02  0.1365173E+00
          2   -1    0    0  502    0  0.00000000000E+00  0.00000000000E+00  0.14851654476E+03  0.14851654476E+03  0.00000000000E+00 0.  1.
          1   -1    0    0  501    0 -0.00000000000E+00 -0.00000000000E+00 -0.86433243445E+02  0.86433243445E+02  0.00000000000E+00 0.  1.
          2    1    1    2  501    0  0.42846904341E+02 -0.14189495417E+02  0.62064100408E+02  0.76740807601E+02  0.00000000000E+00 0.  1.
          1    1    1    2  502    0 -0.22106388766E+02  0.66816218223E+01 -0.12129518997E+02  0.26085661302E+02  0.00000000000E+00 0.  1.
         22    1    1    2    0    0 -0.40239832218E+02  0.70689337947E+00 -0.51412403273E+02  0.65291492596E+02  0.00000000000E+00 0.  1.
         22    1    1    2    0    0  0.19499316643E+02  0.68009802154E+01  0.63561123175E+02  0.66831826705E+02  0.00000000000E+00 0.  1.
</event>
<event>
 6    1  0.1726037E-005  0.5988788E+02  0.7818608E-02  0.1516623E+00
          2   -1    0    0  502    0  0.00000000000E+00  0.00000000000E+00  0.19162093531E+03  0.19162093531E+03  0.00000000000E+00 0.  1.
          1   -1    0    0  501    0 -0.00000000000E+00 -0.00000000000E+00 -0.21375611965E+03  0.21375611965E+03  0.00000000000E+00 0. -1.
          2    1    1    2  501    0 -0.24928174878E+02 -0.61252406931E+02  0.14638689710E+03  0.16063123887E+03  0.00000000000E+00 0.  1.
          1    1    1    2  502    0  0.15356433899E+02  0.31096953320E+02 -0.88821512197E+02  0.95352512274E+02  0.00000000000E+00 0. -1.
         22    1    1    2    0    0 -0.38746223436E+00  0.10631106163E+02  0.32952896334E+02  0.34627502394E+02  0.00000000000E+00 0. -1.
         22    1    1    2    0    0  0.99592032126E+01  0.19524347447E+02 -0.11265346557E+03  0.11476580143E+03  0.00000000000E+00 0. -1.
</event>
<event>
 6    1  0.1726037E-005  0.1085980E+03  0.7818608E-02  0.1301714E+00
          2   -1    0    0  502    0  0.00000000000E+00  0.00000000000E+00  0.16256106259E+03  0.16256106259E+03  0.00000000000E+00 0.  1.
          1   -1    0    0  501    0 -0.00000000000E+00 -0.00000000000E+00 -0.55182775035E+03  0.55182775035E+03  0.00000000000E+00 0. -1.
          2    1    1    2  501    0 -0.14452265837E+03 -0.14122638648E+03 -0.28041464431E+02  0.20400493805E+03  0.00000000000E+00 0.  1.
          1    1    1    2  502    0  0.13062319416E+03  0.45754067997E+02 -0.31480516461E+03  0.34388682041E+03  0.00000000000E+00 0. -1.
         22    1    1    2    0    0 -0.19184233410E+01  0.32569467406E+02  0.44273837256E+02  0.54996574626E+02  0.00000000000E+00 0.  1.
         22    1    1    2    0    0  0.15817887554E+02  0.62902851079E+02 -0.90693895977E+02  0.11150047986E+03  0.00000000000E+00 0. -1.
</event>
<event>
 6    1  0.1726037E-005  0.6827913E+02  0.7818608E-02  0.1369546E+00
          2   -1    0    0  502    0  0.00000000000E+00  0.00000000000E+00  0.40292154162E+02  0.40292154162E+02  0.00000000000E+00 0. -1.
          1   -1    0    0  501    0 -0.00000000000E+00 -0.00000000000E+00 -0.70453060535E+03  0.70453060535E+03  0.00000000000E+00 0.  1.
          2    1    1    2  501    0  0.45352347485E+02  0.34304940419E+02 -0.33930387351E+02  0.66218845847E+02  0.00000000000E+00 0. -1.
          1    1    1    2  502    0 -0.37536475711E+02  0.19288158953E+02 -0.46611839906E+03  0.46802498013E+03  0.00000000000E+00 0.  1.
         22    1    1    2    0    0  0.11008471976E+02 -0.69426448669E+02 -0.33997752610E+02  0.78083707728E+02  0.00000000000E+00 0. -1.
         22    1    1    2    0    0 -0.18824343751E+02  0.15833349297E+02 -0.13019191217E+03  0.13249522581E+03  0.00000000000E+00 0.  1.
</event>
<event>
 6    1  0.1726037E-005  0.2660456E+03  0.7818608E-02  0.1199508E+00
          2   -1    0    0  502    0  0.00000000000E+00  0.00000000000E+00  0.93920408140E+03  0.93920408140E+03  0.00000000000E+00 0. -1.
          1   -1    0    0  501    0 -0.00000000000E+00 -0.00000000000E+00 -0.49380283261E+02  0.49380283261E+02  0.00000000000E+00 0.  1.
          2    1    1    2  501    0 -0.34743389342E+02  0.12368280229E+03  0.28708825043E+03  0.31452218081E+03  0.00000000000E+00 0. -1.
          1    1    1    2  502    0  0.27712538895E+02  0.19287939714E+02  0.37176178502E+03  0.37329188879E+03  0.00000000000E+00 0.  1.
         22    1    1    2    0    0 -0.21343302953E+02  0.17267212730E+02  0.52505607194E+02  0.59249742643E+02  0.00000000000E+00 0.  1.
         22    1    1    2    0    0  0.28374153400E+02 -0.16023795473E+03  0.17846815549E+03  0.24152055242E+03  0.00000000000E+00 0.  1.
</event>
<event>
 6    1  0.1726037E-005  0.1847174E+03  0.7818608E-02  0.1285468E+00
          2   -1    0    0  502    0  0.00000000000E+00  0.00000000000E+00  0.16891071592E+03  0.16891071592E+03  0.00000000000E+00 0.  1.
          1   -1    0    0  501    0 -0.00000000000E+00 -0.00000000000E+00 -0.39480218189E+03  0.39480218189E+03  0.00000000000E+00 0.  1.
          2    1    1    2  501    0  0.82858707077E+02 -0.11414371916E+03 -0.26669770067E+03  0.30169855403E+03  0.00000000000E+00 0.  1.
          1    1    1    2  502    0 -0.20756841083E+01  0.92559754596E+02 -0.26332137266E+02  0.96254860077E+02  0.00000000000E+00 0.  1.
         22    1    1    2    0    0 -0.94374822166E+02  0.26295999207E+02  0.89683649292E+00  0.97973929945E+02  0.00000000000E+00 0.  1.
         22    1    1    2    0    0  0.13591799197E+02 -0.47120346429E+01  0.66241535479E+02  0.67785553759E+02  0.00000000000E+00 0.  1.
</event>
<event>
 6    1  0.1726037E-005  0.4660993E+02  0.7818608E-02  0.1490230E+00
          2   -1    0    0  502    0  0.00000000000E+00  0.00000000000E+00  0.21065083114E+03  0.21065083114E+03  0.00000000000E+00 0. -1.
          1   -1    0    0  501    0 -0.00000000000E+00 -0.00000000000E+00 -0.30861630720E+03  0.30861630720E+03  0.00000000000E+00 0.  1.
          2    1    1    2  501    0  0.46991596403E+02 -0.69900644807E+02  0.47907514365E+02  0.96899123884E+02  0.00000000000E+00 0. -1.
          1    1    1    2  502    0 -0.75668951748E+02  0.33036443695E+02 -0.24130739371E+03  0.25504206541E+03  0.00000000000E+00 0.  1.
         22    1    1    2    0    0  0.15243402394E+02  0.23051525969E+02  0.12720321125E+03  0.13017062310E+03  0.00000000000E+00 0. -1.
         22    1    1    2    0    0  0.13433952950E+02  0.13812675143E+02 -0.31768807971E+02  0.37155325949E+02  0.00000000000E+00 0. -1.
</event>
<event>
 6    1  0.1726037E-005  0.1182817E+03  0.7818608E-02  0.1271262E+00
          2   -1    0    0  502    0  0.00000000000E+00  0.00000000000E+00  0.20667585140E+03  0.20667585140E+03  0.00000000000E+00 0.  1.
          1   -1    0    0  501    0 -0.00000000000E+00 -0.00000000000E+00 -0.21579007020E+03  0.21579007020E+03  0.00000000000E+00 0.  1.
          2    1    1    2  501    0 -0.82451946491E+02  0.13767232684E+03 -0.56437129550E+02  0.17010920801E+03  0.00000000000E+00 0.  1.
          1    1    1    2  502    0  0.35594715407E+02 -0.22843734567E+02 -0.35664766336E+02  0.55324456904E+02  0.00000000000E+00 0.  1.
         22    1    1    2    0    0  0.17728955109E+02 -0.11002648555E+03  0.11031039710E+03  0.15680729281E+03  0.00000000000E+00 0.  1.
         22    1    1    2    0    0  0.29128275975E+02 -0.48021067216E+01 -0.27322720004E+02  0.40224963874E+02  0.00000000000E+00 0.  1.
</event>
<event>
 6    1  0.1726037E-005  0.3708938E+02  0.7818608E-02  0.1637315E+00
          2   -1    0    0  502    0  0.00000000000E+00  0.00000000000E+00  0.75503861806E+02  0.75503861806E+02  0.00000000000E+00 0.  1.
          1   -1    0    0  501    0 -0.00000000000E+00 -0.00000000000E+00 -0.16705930509E+03  0.16705930509E+03  0.00000000000E+00 0.  1.
          2    1    1    2  501    0 -0.16533035654E+02  0.20430319781E+02  0.44406473840E+01  0.26654428966E+02  0.00000000000E+00 0.  1.
          1    1    1    2  502    0  0.70682246649E+01 -0.22545827292E+02 -0.81563214283E+02  0.84916618235E+02  0.00000000000E+00 0.  1.
         22    1    1    2    0    0 -0.22130967487E+01  0.97594361211E+01  0.57171211766E+02  0.58040432850E+02  0.00000000000E+00 0.  1.
         22    1    1    2    0    0  0.11677907738E+02 -0.76439286101E+01 -0.71604088154E+02  0.72951686849E+02  0.00000000000E+00 0.  1.
</event>
<event>
 6    1  0.1726037E-005  0.7800396E+02  0.7818608E-02  0.1369202E+00
          2   -1    0    0  502    0  0.00000000000E+00  0.00000000000E+00  0.58726196746E+03  0.58726196746E+03  0.00000000000E+00 0. -1.
          1   -1    0    0  501    0 -0.00000000000E+00 -0.00000000000E+00 -0.55914556169E+02  0.55914556169E+02  0.00000000000E+00 0.  1.
          2    1    1    2  501    0  0.50157305089E+02  0.10322706406E+03  0.31072290166E+03  0.33124055251E+03  0.00000000000E+00 0. -1.
          1    1    1    2  502    0 -0.53710022902E+02 -0.73408795936E+02  0.10548987780E+03  0.13929010087E+03  0.00000000000E+00 0.  1.
         22    1    1    2    0    0  0.24405078320E+02 -0.53667389678E+02  0.62967670949E+01  0.59291195286E+02  0.00000000000E+00 0. -1.
         22    1    1    2    0    0 -0.20852360508E+02  0.23849121551E+02  0.10883786473E+03  0.11335467497E+03  0.00000000000E+00 0.  1.
</event>
<event>
 6    1  0.1726037E-005  0.3103609E+02  0.7818608E-02  0.1644702E+00
          2   -1    0    0  502    0  0.00000000000E+00  0.00000000000E+00  0.96432474589E+02  0.96432474589E+02  0.00000000000E+00 0.  1.
          1   -1    0    0  501    0 -0.00000000000E+00 -0.00000000000E+00 -0.46334890316E+03  0.46334890316E+03  0.00000000000E+00 0. -1.
          2    1    1    2  501    0 -0.23252153890E+02 -0.35087715558E+02  0.21382241860E+02  0.47212399966E+02  0.00000000000E+00 0.  1.
          1    1    1    2  502    0 -0.24484225608E+02  0.21368225130E+02 -0.37315468837E+03  0.37456708318E+03  0.00000000000E+00 0. -1.
         22    1    1    2    0    0  0.13978356149E+02  0.71418990679E+01  0.56441187488E+02  0.58583349238E+02  0.00000000000E+00 0.  1.
         22    1    1    2    0    0  0.33758023349E+02  0.65775913601E+01 -0.71585169548E+02  0.79418545364E+02  0.00000000000E+00 0.  1.
</event>
<event>
 6    1  0.1726037E-005  0.1651923E+03  0.7818608E-02  0.1290470E+00
          2   -1    0    0  502    0  0.00000000000E+00  0.00000000000E+00  0.83775668478E+02  0.83775668478E+02  0.00000000000E+00 0.  1.
          1   -1    0    0  501    0 -0.00000000000E+00 -0.00000000000E+00 -0.33018624420E+03  0.33018624420E+03  0.00000000000E+00 0. -1.
          2    1    1    2  501    0 -0.85519094450E+02 -0.76171974575E+02 -0.78904142659E+02  0.13907389746E+03  0.00000000000E+00 0.  1.
          1    1    1    2  502    0  0.63985171852E+02  0.25512657115E+02 -0.15112600411E+02  0.70522255928E+02  0.00000000000E+00 0. -1.
         22    1    1    2    0    0 -0.18300570853E+02  0.55276865059E+00  0.15937850673E+02  0.24274091761E+02  0.00000000000E+00 0. -1.
         22    1    1    2    0    0  0.39834493452E+02  0.50106548809E+02 -0.16833168332E+03  0.18009166753E+03  0.00000000000E+00 0. -1.
</event>
<event>
 6    1  0.1726037E-005  0.2184287E+03  0.7818608E-02  0.1277325E+00
          2   -1    0    0  502    0  0.00000000000E+00  0.00000000000E+00  0.14537458011E+03  0.14537458011E+03  0.00000000000E+00 0. -1.
          1   -1    0    0  501    0 -0.00000000000E+00 -0.00000000000E+00 -0.13703921693E+04  0.13703921693E+04  0.00000000000E+00 0.  1.
          2    1    1    2  501    0  0.19753579613E+03 -0.54143276303E+02  0.25386301609E+02  0.20638883068E+03  0.00000000000E+00 0. -1.
          1    1    1    2  502    0 -0.16817106148E+03  0.35829972928E+02 -0.10793221756E+04  0.10929325924E+04  0.00000000000E+00 0.  1.
         22    1    1    2    0    0  0.94526082416E+01 -0.37103717531E+01  0.18811849750E+02  0.21377660118E+02  0.00000000000E+00 0. -1.
         22    1    1    2    0    0 -0.38817342892E+02  0.22023675128E+02 -0.18989356490E+03  0.19506766612E+03  0.00000000000E+00 0.  1.
</event>
<event>
 6    1  0.1726037E-005  0.9231572E+02  0.7818608E-02  0.1325835E+00
          2   -1    0    0  502    0  0.00000000000E+00  0.00000000000E+00  0.71701243599E+02  0.71701243599E+02  0.00000000000E+00 0. -1.
          1   -1    0    0  501    0 -0.00000000000E+00 -0.00000000000E+00 -0.49550730747E+03  0.49550730747E+03  0.00000000000E+00 0. -1.
          2    1    1    2  501    0 -0.35876861092E+02 -0.50554142989E+02  0.32793352007E+02  0.70130410458E+02  0.00000000000E+00 0. -1.
          1    1    1    2  502    0 -0.14877410501E+02  0.58663695104E+02 -0.16239830078E+03  0.17330889926E+03  0.00000000000E+00 0. -1.
         22    1    1    2    0    0  0.60965921956E+00 -0.30962286750E+02 -0.75581447650E+01  0.31877271487E+02  0.00000000000E+00 0. -1.
         22    1    1    2    0    0  0.50144612373E+02  0.22852734635E+02 -0.28664297033E+03  0.29189196986E+03  0.00000000000E+00 0. -1.
</event>
<event>
 6    1  0.1726037E-005  0.1368469E+03  0.7818608E-02  0.1294265E+00
          2   -1    0    0  502    0  0.00000000000E+00  0.00000000000E+00  0.32234754920E+03  0.32234754920E+03  0.00000000000E+00 0.  1.
          1   -1    0    0  501    0 -0.00000000000E+00 -0.00000000000E+00 -0.66592305317E+02  0.66592305317E+02  0.00000000000E+00 0.  1.
          2    1    1    2  501    0 -0.84928246025E+02 -0.32192191436E+02  0.50443918999E+02  0.10389289257E+03  0.00000000000E+00 0.  1.
          1    1    1    2  502    0  0.48819680266E+02 -0.49888801906E+01  0.96498223814E+02  0.10825967535E+03  0.00000000000E+00 0.  1.
         22    1    1    2    0    0  0.62093158123E+02  0.52181335552E+02  0.20702112222E+02  0.83708001506E+02  0.00000000000E+00 0. -1.
         22    1    1    2    0    0 -0.25984592364E+02 -0.15000263925E+02  0.88110988848E+02  0.93079285096E+02  0.00000000000E+00 0.  1.
</event>
<event>
 6    1  0.1726037E-005  0.7773966E+02  0.7818608E-02  0.1458084E+00
          2   -1    0    0  502    0  0.00000000000E+00  0.00000000000E+00  0.18884964530E+03  0.18884964530E+03  0.00000000000E+00 0. -1.
          1   -1    0    0  501    0 -0.00000000000E+00 -0.00000000000E+00 -0.14664178995E+03  0.14664178995E+03  0.00000000000E+00 0. -1.
          2    1    1    2  501    0 -0.51994830165E+02 -0.39799747392E+02  0.11720531872E+03  0.13425561066E+03  0.00000000000E+00 0. -1.
          1    1    1    2  502    0  0.34246090486E+02  0.10447662371E+02 -0.54751993555E+02  0.65419638954E+02  0.00000000000E+00 0. -1.
         22    1    1    2    0    0 -0.10763305575E+02 -0.24147054210E+01  0.51317447787E+02  0.52489617988E+02  0.00000000000E+00 0. -1.
         22    1    1    2    0    0  0.28512045254E+02  0.31766790441E+02 -0.71562917604E+02  0.83326567645E+02  0.00000000000E+00 0. -1.
</event>
<event>
 6    1  0.1726037E-005  0.9653490E+02  0.7818608E-02  0.1400103E+00
          2   -1    0    0  502    0  0.00000000000E+00  0.00000000000E+00  0.64746845436E+02  0.64746845436E+02  0.00000000000E+00 0.  1.
          1   -1    0    0  501    0 -0.00000000000E+00 -0.00000000000E+00 -0.31338514068E+03  0.31338514068E+03  0.00000000000E+00 0.  1.
          2    1    1    2  501    0 -0.22126577534E+02  0.37613114525E+02  0.30693830924E+02  0.53352067199E+02  0.00000000000E+00 0.  1.
          1    1    1    2  502    0 -0.72938188880E+01  0.25627982516E+02 -0.39918757013E+02  0.47994796002E+02  0.00000000000E+00 0.  1.
         22    1    1    2    0    0  0.16137323604E+02 -0.59157489534E+02 -0.25119215763E+03  0.25856821506E+03  0.00000000000E+00 0.  1.
         22    1    1    2    0    0  0.13283072818E+02 -0.40836075064E+01  0.11778788480E+02  0.18216907855E+02  0.00000000000E+00 0.  1.
</event>
<event>
 6    1  0.1726037E-005  0.7633006E+02  0.7818608E-02  0.1425639E+00
          2   -1    0    0  502    0  0.00000000000E+00  0.00000000000E+00  0.12437446223E+03  0.12437446223E+03  0.00000000000E+00 0. -1.
          1   -1    0    0  501    0 -0.00000000000E+00 -0.00000000000E+00 -0.19456116579E+03  0.19456116579E+03  0.00000000000E+00 0. -1.
          2    1    1    2  501    0  0.99686087507E+01  0.74622000787E+02  0.13619464396E+02  0.76506901469E+02  0.00000000000E+00 0. -1.
          1    1    1    2  502    0 -0.51214639390E+02  0.18322572812E+02 -0.63075680279E+02  0.83289839746E+02  0.00000000000E+00 0. -1.
         22    1    1    2    0    0  0.35452742965E+02 -0.74952195635E+02  0.42480056083E+02  0.93162673744E+02  0.00000000000E+00 0. -1.
         22    1    1    2    0    0  0.57932876747E+01 -0.17992377964E+02 -0.63210543765E+02  0.65976213062E+02  0.00000000000E+00 0. -1.
</event>
<event>
 6    1  0.1726037E-005  0.5740608E+02  0.7818608E-02  0.1409359E+00
          2   -1    0    0  502    0  0.00000000000E+00  0.00000000000E+00  0.23266053864E+03  0.23266053864E+03  0.00000000000E+00 0.  1.
          1   -1    0    0  501    0 -0.00000000000E+00 -0.00000000000E+00 -0.24554982179E+03  0.24554982179E+03  0.00000000000E+00 0.  1.
          2    1    1    2  501    0 -0.12205845578E+03  0.87103045635E+02  0.10590168271E+03  0.18357661503E+03  0.00000000000E+00 0.  1.
          1    1    1    2  502    0  0.11188259566E+03 -0.69561552123E+02 -0.10329717547E+03  0.16741215967E+03  0.00000000000E+00 0.  1.
         22    1    1    2    0    0 -0.12504948212E+02 -0.18657516885E+02  0.51660435805E+02  0.56331849727E+02  0.00000000000E+00 0. -1.
         22    1    1    2    0    0  0.22680808328E+02  0.11160233726E+01 -0.67154226197E+02  0.70889736004E+02  0.00000000000E+00 0. -1.
</event>
<event>
 6    1  0.1726037E-005  0.9341116E+02  0.7818608E-02  0.1311028E+00
          2   -1    0    0  502    0  0.00000000000E+00  0.00000000000E+00  0.24941602950E+04  0.24941602950E+04  0.00000000000E+00 0.  1.
          1   -1    0    0  501    0 -0.00000000000E+00 -0.00000000000E+00 -0.39017524078E+02  0.39017524078E+02  0.00000000000E+00 0.  1.
          2    1    1    2  501    0 -0.42258615224E+02 -0.10464465034E+03  0.22340838048E+04  0.22369324398E+04  0.00000000000E+00 0.  1.
          1    1    1    2  502    0  0.38198035951E+02  0.27930801885E+02  0.39761750653E+02  0.61807899652E+02  0.00000000000E+00 0.  1.
         22    1    1    2    0    0 -0.31952174595E+02  0.61546107692E+02  0.18261526619E+03  0.19533868096E+03  0.00000000000E+00 0.  1.
         22    1    1    2    0    0  0.36012753868E+02  0.15167740766E+02 -0.13180506904E+01  0.39098798687E+02  0.00000000000E+00 0.  1.
</event>
<event>
 6    1  0.1726037E-005  0.6779248E+02  0.7818608E-02  0.1369550E+00
          2   -1    0    0  502    0  0.00000000000E+00  0.00000000000E+00  0.29831398935E+03  0.29831398935E+03  0.00000000000E+00 0. -1.
          1   -1    0    0  501    0 -0.00000000000E+00 -0.00000000000E+00 -0.11097761515E+03  0.11097761515E+03  0.00000000000E+00 0. -1.
          2    1    1    2  501    0  0.45195774689E+02  0.25056399621E+02  0.21593143673E+03  0.22202897689E+03  0.00000000000E+00 0. -1.
          1    1    1    2  502    0 -0.33184777808E+02 -0.19272049249E+02 -0.47986009841E+02  0.61443457755E+02  0.00000000000E+00 0. -1.
         22    1    1    2    0    0 -0.15790115087E+02 -0.21449618711E+02 -0.48883492193E+02  0.55668749638E+02  0.00000000000E+00 0. -1.
         22    1    1    2    0    0  0.37791182061E+01  0.15665268338E+02  0.68274439502E+02  0.70150420212E+02  0.00000000000E+00 0. -1.
</event>
<event>
 6    1  0.1726037E-005  0.2529763E+02  0.7818608E-02  0.1697861E+00
          2   -1    0    0  502    0  0.00000000000E+00  0.00000000000E+00  0.10157926148E+03  0.10157926148E+03  0.00000000000E+00 0.  1.
          1   -1    0    0  501    0 -0.00000000000E+00 -0.00000000000E+00 -0.26267180325E+03  0.26267180325E+03  0.00000000000E+00 0. -1.
          2    1    1    2  501    0 -0.26144685441E+02  0.15094347420E+02  0.37863097721E+02  0.48425180122E+02  0.00000000000E+00 0.  1.
          1    1    1    2  502    0  0.19028440014E+02 -0.22208919707E+02 -0.19305712680E+03  0.19525975482E+03  0.00000000000E+00 0. -1.
         22    1    1    2    0    0 -0.91670867686E+01  0.48457727350E+01  0.55779222583E+02  0.56734809995E+02  0.00000000000E+00 0.  1.
         22    1    1    2    0    0  0.16283332196E+02  0.22687995520E+01 -0.61677735269E+02  0.63831319794E+02  0.00000000000E+00 0. -1.
</event>
<event>
 6    1  0.1726037E-005  0.4154970E+02  0.7818608E-02  0.1578663E+00
          2   -1    0    0  502    0  0.00000000000E+00  0.00000000000E+00  0.12803288595E+03  0.12803288595E+03  0.00000000000E+00 0. -1.
          1   -1    0    0  501    0 -0.00000000000E+00 -0.00000000000E+00 -0.15211955904E+03  0.15211955904E+03  0.00000000000E+00 0. -1.
          2    1    1    2  501    0  0.19116668800E+02  0.61590701804E+02  0.59573238246E+02  0.87794261144E+02  0.00000000000E+00 0. -1.
          1    1    1    2  502    0 -0.32157191207E+02 -0.37114674631E+02 -0.28045510085E+02  0.56552052617E+02  0.00000000000E+00 0. -1.
         22    1    1    2    0    0 -0.98595155175E+01 -0.38328148211E+01  0.36849367026E+02  0.38337662499E+02  0.00000000000E+00 0. -1.
         22    1    1    2    0    0  0.22900037925E+02 -0.20643212352E+02 -0.92463768274E+02  0.97468468730E+02  0.00000000000E+00 0. -1.
</event>
<event>
 6    1  0.1726037E-005  0.4842629E+02  0.7818608E-02  0.1458194E+00
          2   -1    0    0  502    0  0.00000000000E+00  0.00000000000E+00  0.12766705135E+03  0.12766705135E+03  0.00000000000E+00 0.  1.
          1   -1    0    0  501    0 -0.00000000000E+00 -0.00000000000E+00 -0.13269057998E+03  0.13269057998E+03  0.00000000000E+00 0. -1.
          2    1    1    2  501    0 -0.27140955511E+02  0.17545441265E+02  0.46579862284E+02  0.56693540599E+02  0.00000000000E+00 0.  1.
          1    1    1    2  502    0 -0.15444903283E+02 -0.23548020587E+02 -0.69425239754E+02  0.74919411542E+02  0.00000000000E+00 0. -1.
         22    1    1    2    0    0  0.11935361641E+01 -0.21912375592E+02 -0.44066896142E+02  0.49228732141E+02  0.00000000000E+00 0. -1.
         22    1    1    2    0    0  0.41392322630E+02  0.27914954914E+02  0.61888744978E+02  0.79515947052E+02  0.00000000000E+00 0.  1.
</event>
<event>
 6    1  0.1726037E-005  0.4777247E+02  0.7818608E-02  0.1568240E+00
          2   -1    0    0  502    0  0.00000000000E+00  0.00000000000E+00  0.11675946448E+03  0.11675946448E+03  0.00000000000E+00 0. -1.
          1   -1    0    0  501    0 -0.00000000000E+00 -0.00000000000E+00 -0.17018413425E+03  0.17018413425E+03  0.00000000000E+00 0.  1.
          2    1    1    2  501    0  0.19438398552E+02 -0.37748238413E+02  0.44136280718E+02  0.61243710838E+02  0.00000000000E+00 0. -1.
          1    1    1    2  502    0 -0.19529578485E+02  0.27595158012E+02 -0.93025179434E+02  0.98977680263E+02  0.00000000000E+00 0.  1.
         22    1    1    2    0    0 -0.10235598345E+02  0.72589754362E+01 -0.64549433150E+02  0.65757809558E+02  0.00000000000E+00 0. -1.
         22    1    1    2    0    0  0.10326778278E+02  0.28941049654E+01  0.60013662095E+02  0.60964398063E+02  0.00000000000E+00 0. -1.
</event>
<event>
 6    1  0.1726037E-005  0.6471789E+02  0.7818608E-02  0.1502342E+00
          2   -1    0    0  502    0  0.00000000000E+00  0.00000000000E+00  0.12413037591E+03  0.12413037591E+03  0.00000000000E+00 0.  1.
          1   -1    0    0  501    0 -0.00000000000E+00 -0.00000000000E+00 -0.14793551672E+03  0.14793551672E+03  0.00000000000E+00 0. -1.
          2    1    1    2  501    0 -0.65299878230E+02  0.18612086736E+02  0.37736081531E+02  0.77682016702E+02  0.00000000000E+00 0.  1.
          1    1    1    2  502    0  0.23859939269E+02  0.43865469765E+01 -0.52423877905E+02  0.57765054063E+02  0.00000000000E+00 0. -1.
         22    1    1    2    0    0  0.10218022391E+02  0.52717880627E+00  0.58027485149E+02  0.58922618168E+02  0.00000000000E+00 0.  1.
         22    1    1    2    0    0  0.31221916570E+02 -0.23525812519E+02 -0.67144829585E+02  0.77696203697E+02  0.00000000000E+00 0. -1.
</event>
<event>
 6    1  0.1726037E-005  0.1528844E+03  0.7818608E-02  0.1332688E+00
          2   -1    0    0  502    0  0.00000000000E+00  0.00000000000E+00  0.93672934243E+02  0.93672934243E+02  0.00000000000E+00 0. -1.
          1   -1    0    0  501    0 -0.00000000000E+00 -0.00000000000E+00 -0.79206973596E+03  0.79206973596E+03  0.00000000000E+00 0. -1.
          2    1    1    2  501    0 -0.88969283976E+02  0.10033518556E+03 -0.65260293627E+03  0.66623815215E+03  0.00000000000E+00 0. -1.
          1    1    1    2  502    0  0.46713316569E+02 -0.67929166194E+02 -0.91911200674E+01  0.82951686256E+02  0.00000000000E+00 0. -1.
         22    1    1    2    0    0  0.36162597336E+02 -0.41265747016E+02 -0.77112039565E+02  0.94640699325E+02  0.00000000000E+00 0.  1.
         22    1    1    2    0    0  0.60933700718E+01  0.88597276544E+01  0.40509294186E+02  0.41912132472E+02  0.00000000000E+00 0.  1.
</event>
<event>
 6    1  0.1726037E-005  0.2807551E+03  0.7818608E-02  0.1157741E+00
          2   -1    0    0  502    0  0.00000000000E+00  0.00000000000E+00  0.39539534566E+03  0.39539534566E+03  0.00000000000E+00 0.  1.
          1   -1    0    0  501    0 -0.00000000000E+00 -0.00000000000E+00 -0.35930635316E+03  0.35930635316E+03  0.00000000000E+00 0. -1.
          2    1    1    2  501    0  0.13459524847E+03  0.21193273381E+03  0.13040664867E+03  0.28290856931E+03  0.00000000000E+00 0.  1.
          1    1    1    2  502    0 -0.85715663092E+02 -0.24455349138E+03 -0.17336791571E+03  0.31178521332E+03  0.00000000000E+00 0. -1.
         22    1    1    2    0    0 -0.25098313209E+02  0.54374198585E+02  0.10348388717E+03  0.11956334598E+03  0.00000000000E+00 0.  1.
         22    1    1    2    0    0 -0.23781272164E+02 -0.21753441014E+02 -0.24433627626E+02  0.40444570225E+02  0.00000000000E+00 0. -1.
</event>
<event>
 6    1  0.1726037E-005  0.5935327E+02  0.7818608E-02  0.1413525E+00
          2   -1    0    0  502    0  0.00000000000E+00  0.00000000000E+00  0.14374340047E+03  0.14374340047E+03  0.00000000000E+00 0.  1.
          1   -1    0    0  501    0 -0.00000000000E+00 -0.00000000000E+00 -0.41401838019E+03  0.41401838019E+03  0.00000000000E+00 0.  1.
          2    1    1    2  501    0  0.36982087328E+01 -0.25423250544E+02  0.38899107992E+02  0.46617153695E+02  0.00000000000E+00 0.  1.
          1    1    1    2  502    0  0.21329952562E+02 -0.12172680445E+02 -0.36353141147E+03  0.36436002546E+03  0.00000000000E+00 0.  1.
         22    1    1    2    0    0  0.14433864974E+02  0.94981434186E+01 -0.38417171882E+02  0.42123987013E+02  0.00000000000E+00 0. -1.
         22    1    1    2    0    0 -0.39462026270E+02  0.28097787571E+02  0.92774495641E+02  0.10466061449E+03  0.00000000000E+00 0.  1.
</event>
<event>
 6    1  0.1726037E-005  0.7911585E+02  0.7818608E-02  0.1364331E+00
          2   -1    0    0  502    0  0.00000000000E+00  0.00000000000E+00  0.99331579415E+01  0.99331579415E+01  0.00000000000E+00 0.  1.
          1   -1    0    0  501    0 -0.00000000000E+00 -0.00000000000E+00 -0.14064989650E+04  0.14064989650E+04  0.00000000000E+00 0.  1.
          2    1    1    2  501    0 -0.59688627765E+02  0.27453528009E+02 -0.64981512103E+03  0.65312795071E+03  0.00000000000E+00 0.  1.
          1    1    1    2  502    0  0.17613000061E+02 -0.11603009538E+02 -0.71089713940E+02  0.74152511958E+02  0.00000000000E+00 0.  1.
         22    1    1    2    0    0 -0.31312973018E+02  0.32543600687E+02 -0.16948669178E+03  0.17540047582E+03  0.00000000000E+00 0. -1.
         22    1    1    2    0    0  0.73388600722E+02 -0.48394119158E+02 -0.50617428028E+03  0.51375118442E+03  0.00000000000E+00 0.  1.
</event>
<event>
 6    1  0.1726037E-005  0.3301429E+02  0.7818608E-02  0.1604229E+00
          2   -1    0    0  502    0  0.00000000000E+00  0.00000000000E+00  0.75941470547E+02  0.75941470547E+02  0.00000000000E+00 0.  1.
          1   -1    0    0  501    0 -0.00000000000E+00 -0.00000000000E+00 -0.33764684494E+03  0.33764684494E+03  0.00000000000E+00 0.  1.
          2    1    1    2  501    0  0.68352184182E+02  0.91575924043E+01 -0.28058840089E+02  0.74452542524E+02  0.00000000000E+00 0.  1.
          1    1    1    2  502    0 -0.42022757464E+02 -0.15679561570E+02 -0.20866483176E+03  0.21343095560E+03  0.00000000000E+00 0.  1.
         22    1    1    2    0    0 -0.51687153696E+01  0.13044071731E+02 -0.72200875209E+02  0.73551545237E+02  0.00000000000E+00 0.  1.
         22    1    1    2    0    0 -0.21160711349E+02 -0.65221025655E+01  0.47219172661E+02  0.52153272126E+02  0.00000000000E+00 0.  1.
</event>
<event>
 6    1  0.1726037E-005  0.2919837E+03  0.7818608E-02  0.1211519E+00
          2   -1    0    0  502    0  0.00000000000E+00  0.00000000000E+00  0.10125005307E+04  0.10125005307E+04  0.00000000000E+00 0. -1.
          1   -1    0    0  501    0 -0.00000000000E+00 -0.00000000000E+00 -0.85522438552E+02  0.85522438552E+02  0.00000000000E+00 0. -1.
          2    1    1    2  501    0 -0.15276001641E+03  0.21561629152E+03  0.33193124449E+03  0.42426920563E+03  0.00000000000E+00 0. -1.
          1    1    1    2  502    0 -0.59643730404E+01 -0.39762687300E+02  0.14460910393E+03  0.15009476335E+03  0.00000000000E+00 0. -1.
         22    1    1    2    0    0 -0.15789309514E+02 -0.28139624071E+01  0.61710276194E+02  0.63760323614E+02  0.00000000000E+00 0. -1.
         22    1    1    2    0    0  0.17451369896E+03 -0.17303964181E+03  0.38872746750E+03  0.45989867661E+03  0.00000000000E+00 0. -1.
</event>
<event>
 6    1  0.1726037E-005  0.1050884E+03  0.7818608E-02  0.1388586E+00
          2   -1    0    0  502    0  0.00000000000E+00  0.00000000000E+00  0.74962211572E+02  0.74962211572E+02  0.00000000000E+00 0. -1.
          1   -1    0    0  501    0 -0.00000000000E+00 -0.00000000000E+00 -0.25198703833E+03  0.25198703833E+03  0.00000000000E+00 0. -1.
          2    1    1    2  501    0  0.30628161940E+02  0.16784546090E+02  0.30205651961E+02  0.46175607215E+02  0.00000000000E+00 0. -1.
          1    1    1    2  502    0  0.85665443560E+01  0.35887215613E+02 -0.85867925737E+02  0.93458967451E+02  0.00000000000E+00 0. -1.
         22    1    1    2    0    0 -0.50709604114E+02 -0.46753346693E+02 -0.14488480444E+03  0.16046478098E+03  0.00000000000E+00 0. -1.
         22    1    1    2    0    0  0.11514897818E+02 -0.59184150095E+01  0.23522251458E+02  0.26849894258E+02  0.00000000000E+00 0. -1.
</event>
<event>
 6    1  0.1726037E-005  0.1096641E+03  0.7818608E-02  0.1350253E+00
          2   -1    0    0  502    0  0.00000000000E+00  0.00000000000E+00  0.16833176054E+04  0.16833176054E+04  0.00000000000E+00 0. -1.
          1   -1    0    0  501    0 -0.00000000000E+00 -0.00000000000E+00 -0.32605160438E+02  0.32605160438E+02  0.00000000000E+00 0. -1.
          2    1    1    2  501    0 -0.52496190617E+02 -0.33712168952E+02  0.33379008617E+03  0.33957058470E+03  0.00000000000E+00 0. -1.
          1    1    1    2  502    0 -0.30664545247E+01  0.10632330322E+03  0.11221626446E+04  0.11271925519E+04  0.00000000000E+00 0. -1.
         22    1    1    2    0    0 -0.17111386616E+02  0.13026122118E+02  0.99765742799E+02  0.10205725278E+03  0.00000000000E+00 0. -1.
         22    1    1    2    0    0  0.72674031757E+02 -0.85637256390E+02  0.94993971315E+02  0.14710237646E+03  0.00000000000E+00 0. -1.
</event>
<event>
 6    1  0.1726037E-005  0.1131450E+03  0.7818608E-02  0.1321375E+00
          2   -1    0    0  502    0  0.00000000000E+00  0.00000000000E+00  0.26774682790E+03  0.26774682790E+03  0.00000000000E+00 0. -1.
          1   -1    0    0  501    0 -0.00000000000E+00 -0.00000000000E+00 -0.21956371391E+03  0.21956371391E+03  0.00000000000E+00 0.  1.
          2    1    1    2  501    0 -0.64596307363E+02  0.51464839428E+02  0.15903609291E+03  0.17920321278E+03  0.00000000000E+00 0. -1.
          1    1    1    2  502    0  0.83736448442E+02 -0.48103788812E+02 -0.14751631513E+03  0.17631457831E+03  0.00000000000E+00 0.  1.
         22    1    1    2    0    0 -0.57840791555E+01 -0.31879318860E+02 -0.38488280888E+02  0.50309982194E+02  0.00000000000E+00 0.  1.
         22    1    1    2    0    0 -0.13356061924E+02  0.28518268243E+02  0.75151617099E+02  0.81482768524E+02  0.00000000000E+00 0.  1.
</event>
<event>
 6    1  0.1726037E-005  0.4916769E+02  0.7818608E-02  0.1483385E+00
          2   -1    0    0  502    0  0.00000000000E+00  0.00000000000E+00  0.55676435835E+03  0.55676435835E+03  0.00000000000E+00 0.  1.
          1   -1    0    0  501    0 -0.00000000000E+00 -0.00000000000E+00 -0.18067919415E+03  0.18067919415E+03  0.00000000000E+00 0. -1.
          2    1    1    2  501    0 -0.76128177994E+02  0.52502030581E+01  0.39900103716E+03  0.40623255873E+03  0.00000000000E+00 0.  1.
          1    1    1    2  502    0  0.37610068607E+02 -0.60105903018E+01 -0.14721228882E+03  0.15205953583E+03  0.00000000000E+00 0. -1.
         22    1    1    2    0    0  0.87342315703E+01 -0.51035383118E+01 -0.24911448090E+02  0.26887044284E+02  0.00000000000E+00 0.  1.
         22    1    1    2    0    0  0.29783877817E+02  0.58639255555E+01  0.14920786395E+03  0.15226441366E+03  0.00000000000E+00 0. -1.
</event>
<event>
 6    1  0.1726037E-005  0.1256603E+03  0.7818608E-02  0.1299170E+00
          2   -1    0    0  502    0  0.00000000000E+00  0.00000000000E+00  0.23878375014E+03  0.23878375014E+03  0.00000000000E+00 0. -1.
          1   -1    0    0  501    0 -0.00000000000E+00 -0.00000000000E+00 -0.14665402624E+03  0.14665402624E+03  0.00000000000E+00 0. -1.
          2    1    1    2  501    0 -0.10237068486E+03  0.99560999638E+02 -0.29565394892E+01  0.14283168729E+03  0.00000000000E+00 0. -1.
          1    1    1    2  502    0  0.43395547147E+02 -0.20939279309E+02 -0.11827738170E+02  0.49613731168E+02  0.00000000000E+00 0. -1.
         22    1    1    2    0    0  0.27109496455E+02 -0.22740269190E+02  0.12190813258E+03  0.12693950303E+03  0.00000000000E+00 0.  1.
         22    1    1    2    0    0  0.31865641260E+02 -0.55881451139E+02 -0.14994131026E+02  0.66052854893E+02  0.00000000000E+00 0. -1.
</event>
<event>
 6    1  0.1726037E-005  0.5769348E+02  0.7818608E-02  0.1411822E+00
          2   -1    0    0  502    0  0.00000000000E+00  0.00000000000E+00  0.17086825854E+03  0.17086825854E+03  0.00000000000E+00 0.  1.
          1   -1    0    0  501    0 -0.00000000000E+00 -0.00000000000E+00 -0.13978331746E+03  0.13978331746E+03  0.00000000000E+00 0. -1.
          2    1    1    2  501    0  0.32074230487E+02 -0.32331060981E+01  0.61394654067E+02  0.69343440817E+02  0.00000000000E+00 0.  1.
          1    1    1    2  502    0 -0.31563479721E+02  0.14268566709E+02 -0.93149817399E+02  0.99381757528E+02  0.00000000000E+00 0. -1.
         22    1    1    2    0    0 -0.18843861647E+02 -0.17360181113E+01 -0.36161158523E+02  0.40813407924E+02  0.00000000000E+00 0. -1.
         22    1    1    2    0    0  0.18333110880E+02 -0.92994424999E+01  0.99001262934E+02  0.10111296973E+03  0.00000000000E+00 0.  1.
</event>
<event>
 6    1  0.1726037E-005  0.2238458E+03  0.7818608E-02  0.1272562E+00
          2   -1    0    0  502    0  0.00000000000E+00  0.00000000000E+00  0.52524164071E+02  0.52524164071E+02  0.00000000000E+00 0.  1.
          1   -1    0    0  501    0 -0.00000000000E+00 -0.00000000000E+00 -0.90008389915E+03  0.90008389915E+03  0.00000000000E+00 0. -1.
          2    1    1    2  501    0 -0.73053926046E+02 -0.15356803946E+03 -0.26580810616E+03  0.31555343153E+03  0.00000000000E+00 0.  1.
          1    1    1    2  502    0  0.67762477577E+02  0.12809568762E+02 -0.11771896179E+03  0.13643163997E+03  0.00000000000E+00 0. -1.
         22    1    1    2    0    0  0.17906402059E+01 -0.10181871317E+02  0.21860573135E+01  0.10566728086E+02  0.00000000000E+00 0.  1.
         22    1    1    2    0    0  0.35008082635E+01  0.15094034201E+03 -0.46621872445E+03  0.49005626364E+03  0.00000000000E+00 0. -1.
</event>
<event>
 6    1  0.1726037E-005  0.6576727E+02  0.7818608E-02  0.1431999E+00
          2   -1    0    0  502    0  0.00000000000E+00  0.00000000000E+00  0.81388485599E+02  0.81388485599E+02  0.00000000000E+00 0. -1.
          1   -1    0    0  501    0 -0.00000000000E+00 -0.00000000000E+00 -0.25879559293E+03  0.25879559293E+03  0.00000000000E+00 0. -1.
          2    1    1    2  501    0 -0.95907240845E+01  0.42822395919E+02 -0.57866419453E+01  0.44263131449E+02  0.00000000000E+00 0. -1.
          1    1    1    2  502    0 -0.35563449204E+00 -0.50095094063E+02 -0.15930787269E+03  0.16699893182E+03  0.00000000000E+00 0. -1.
         22    1    1    2    0    0  0.88752548591E+01 -0.19535964438E+02 -0.65730775489E+02  0.69144478462E+02  0.00000000000E+00 0. -1.
         22    1    1    2    0    0  0.10711037175E+01  0.26808662582E+02  0.53418182799E+02  0.59777536803E+02  0.00000000000E+00 0. -1.
</event>
<event>
 6    1  0.1726037E-005  0.1236750E+03  0.7818608E-02  0.1293254E+00
          2   -1    0    0  502    0  0.00000000000E+00  0.00000000000E+00  0.68861132143E+02  0.68861132143E+02  0.00000000000E+00 0.  1.
          1   -1    0    0  501    0 -0.00000000000E+00 -0.00000000000E+00 -0.11859268695E+04  0.11859268695E+04  0.00000000000E+00 0.  1.
          2    1    1    2  501    0 -0.16897320308E+01  0.49522347482E+02 -0.29128508664E+02  0.57478588287E+02  0.00000000000E+00 0.  1.
          1    1    1    2  502    0 -0.11138028619E+03  0.52423458537E+02 -0.94413785632E+03  0.95212923435E+03  0.00000000000E+00 0.  1.
         22    1    1    2    0    0  0.13357620912E+01 -0.41397705436E+02  0.12940016229E+02  0.43393528271E+02  0.00000000000E+00 0. -1.
         22    1    1    2    0    0  0.11173425613E+03 -0.60548100582E+02 -0.15673938858E+03  0.20178665072E+03  0.00000000000E+00 0.  1.
</event>
<event>
 6    1  0.1726037E-005  0.4659176E+02  0.7818608E-02  0.1576392E+00
          2   -1    0    0  502    0  0.00000000000E+00  0.00000000000E+00  0.51386335249E+02  0.51386335249E+02  0.00000000000E+00 0. -1.
          1   -1    0    0  501    0 -0.00000000000E+00 -0.00000000000E+00 -0.37684841997E+03  0.37684841997E+03  0.00000000000E+00 0.  1.
          2    1    1    2  501    0  0.24063856989E+02  0.18130284232E+01 -0.20673612904E+02  0.31776635374E+02  0.00000000000E+00 0. -1.
          1    1    1    2  502    0 -0.55371510498E+02  0.48112755794E+01 -0.25338040083E+03  0.25940466471E+03  0.00000000000E+00 0.  1.
         22    1    1    2    0    0  0.33232062218E+02 -0.16888535504E+02 -0.89819461909E+02  0.97247767730E+02  0.00000000000E+00 0.  1.
         22    1    1    2    0    0 -0.19244087087E+01  0.10264231502E+02  0.38411390923E+02  0.39805687406E+02  0.00000000000E+00 0. -1.
</event>
<event>
 6    1  0.1726037E-005  0.7485894E+02  0.7818608E-02  0.1368851E+00
          2   -1    0    0  502    0  0.00000000000E+00  0.00000000000E+00  0.33401991782E+03  0.33401991782E+03  0.00000000000E+00 0. -1.
          1   -1    0    0  501    0 -0.00000000000E+00 -0.00000000000E+00 -0.71162592815E+02  0.71162592815E+02  0.00000000000E+00 0. -1.
          2    1    1    2  501    0 -0.36933535651E+02  0.27421091774E+02  0.92951147562E+02  0.10371074276E+03  0.00000000000E+00 0. -1.
          1    1    1    2  502    0  0.11024461528E+02 -0.66917116215E+02 -0.19846161603E+02  0.70663352064E+02  0.00000000000E+00 0. -1.
         22    1    1    2    0    0  0.17284876459E+02  0.46330589169E+02  0.20562891318E+03  0.21149123003E+03  0.00000000000E+00 0. -1.
         22    1    1    2    0    0  0.86241976643E+01 -0.68345647282E+01 -0.15876574131E+02  0.19317185782E+02  0.00000000000E+00 0. -1.
</event>
<event>
 6    1  0.1726037E-005  0.1982604E+03  0.7818608E-02  0.1261750E+00
          2   -1    0    0  502    0  0.00000000000E+00  0.00000000000E+00  0.17509696456E+03  0.17509696456E+03  0.00000000000E+00 0.  1.
          1   -1    0    0  501    0 -0.00000000000E+00 -0.00000000000E+00 -0.47363184307E+03  0.47363184307E+03  0.00000000000E+00 0.  1.
          2    1    1    2  501    0 -0.56232250394E+01 -0.18430553636E+03 -0.17775304843E+03  0.25611774171E+03  0.00000000000E+00 0.  1.
          1    1    1    2  502    0  0.10491446331E+02  0.18515548827E+03 -0.17457548769E+03  0.25469437800E+03  0.00000000000E+00 0.  1.
         22    1    1    2    0    0 -0.10983932647E+02 -0.14708544924E+02  0.93569913102E+02  0.95353640246E+02  0.00000000000E+00 0.  1.
         22    1    1    2    0    0  0.61157113557E+01  0.13858593015E+02 -0.39776255496E+02  0.42563047671E+02  0.00000000000E+00 0.  1.
</event>
<event>
 6    1  0.1726037E-005  0.1430602E+03  0.7818608E-02  0.1346125E+00
          2   -1    0    0  502    0  0.00000000000E+00  0.00000000000E+00  0.11685868246E+03  0.11685868246E+03  0.00000000000E+00 0. -1.
          1   -1    0    0  501    0 -0.00000000000E+00 -0.00000000000E+00 -0.56052915454E+03  0.56052915454E+03  0.00000000000E+00 0. -1.
          2    1    1    2  501    0 -0.29057146973E+02 -0.13665228273E+03  0.40757197950E+01  0.13976686180E+03  0.00000000000E+00 0. -1.
          1    1    1    2  502    0  0.27159746361E+02  0.10469974883E+03 -0.36769733104E+03  0.38327668397E+03  0.00000000000E+00 0. -1.
         22    1    1    2    0    0 -0.83069807723E+01  0.33938183360E+02 -0.11379234405E+03  0.11903572482E+03  0.00000000000E+00 0. -1.
         22    1    1    2    0    0  0.10204381384E+02 -0.19856494594E+01  0.33743483205E+02  0.35308566411E+02  0.00000000000E+00 0.  1.
</event>
<event>
 6    1  0.1726037E-005  0.4506294E+02  0.7818608E-02  0.1566817E+00
          2   -1    0    0  502    0  0.00000000000E+00  0.00000000000E+00  0.10670408862E+04  0.10670408862E+04  0.00000000000E+00 0. -1.
          1   -1    0    0  501    0 -0.00000000000E+00 -0.00000000000E+00 -0.18843215537E+03  0.18843215537E+03  0.00000000000E+00 0.  1.
          2    1    1    2  501    0 -0.27217185752E+02  0.36377723232E+02  0.98655287969E+03  0.98759844997E+03  0.00000000000E+00 0. -1.
          1    1    1    2  502    0  0.27278388677E+02 -0.12037804311E+02 -0.13094658627E+03  0.13429827876E+03  0.00000000000E+00 0.  1.
         22    1    1    2    0    0 -0.69744954008E+01 -0.10980285847E+02  0.76708398866E+02  0.77803526398E+02  0.00000000000E+00 0. -1.
         22    1    1    2    0    0  0.69132924758E+01 -0.13359633074E+02 -0.53705961475E+02  0.55772786435E+02  0.00000000000E+00 0. -1.
</event>
<event>
 6    1  0.1726037E-005  0.7527051E+02  0.7818608E-02  0.1433231E+00
          2   -1    0    0  502    0  0.00000000000E+00  0.00000000000E+00  0.12334953403E+03  0.12334953403E+03  0.00000000000E+00 0.  1.
          1   -1    0    0  501    0 -0.00000000000E+00 -0.00000000000E+00 -0.23617292093E+03  0.23617292093E+03  0.00000000000E+00 0.  1.
          2    1    1    2  501    0 -0.19242250433E+02  0.57241300929E+02  0.27556763752E+02  0.66379258525E+02  0.00000000000E+00 0.  1.
          1    1    1    2  502    0  0.25378434684E+02 -0.56884666505E+02 -0.15054924827E+03  0.16292638333E+03  0.00000000000E+00 0.  1.
         22    1    1    2    0    0  0.91706244286E+01 -0.89759745879E+01 -0.58214954225E+02  0.59612493385E+02  0.00000000000E+00 0. -1.
         22    1    1    2    0    0 -0.15306808679E+02  0.86193401631E+01  0.68384051838E+02  0.70604319716E+02  0.00000000000E+00 0.  1.
</event>
<event>
 6    1  0.1726037E-005  0.8571920E+02  0.7818608E-02  0.1360504E+00
          2   -1    0    0  502    0  0.00000000000E+00  0.00000000000E+00  0.26451539813E+03  0.26451539813E+03  0.00000000000E+00 0.  1.
          1   -1    0    0  501    0 -0.00000000000E+00 -0.00000000000E+00 -0.76928133620E+02  0.76928133620E+02  0.00000000000E+00 0.  1.
          2    1    1    2  501    0 -0.69312265825E+02 -0.26514264246E+02  0.40534706185E+01  0.74321107542E+02  0.00000000000E+00 0.  1.
          1    1    1    2  502    0  0.38644852374E+02  0.40340146071E+02  0.24088775212E+02  0.60836018043E+02  0.00000000000E+00 0.  1.
         22    1    1    2    0    0  0.38778137768E+02  0.23153352624E+02  0.29316367455E+01  0.45259432171E+02  0.00000000000E+00 0.  1.
         22    1    1    2    0    0 -0.81107243169E+01 -0.36979234449E+02  0.15651338193E+03  0.16102697399E+03  0.00000000000E+00 0.  1.
</event>
<event>
 6    1  0.1726037E-005  0.3838153E+02  0.7818608E-02  0.1560850E+00
          2   -1    0    0  502    0  0.00000000000E+00  0.00000000000E+00  0.57195169293E+02  0.57195169293E+02  0.00000000000E+00 0. -1.
          1   -1    0    0  501    0 -0.00000000000E+00 -0.00000000000E+00 -0.36591396935E+03  0.36591396935E+03  0.00000000000E+00 0.  1.
          2    1    1    2  501    0 -0.43523448382E+01 -0.78336560715E+02 -0.10863289459E+03  0.13400248295E+03  0.00000000000E+00 0. -1.
          1    1    1    2  502    0 -0.17733960322E+02  0.60855645447E+02 -0.12830754127E+03  0.14311089434E+03  0.00000000000E+00 0.  1.
         22    1    1    2    0    0  0.14590814536E+01  0.12584359355E+02  0.34953602984E+02  0.37178614560E+02  0.00000000000E+00 0.  1.
         22    1    1    2    0    0  0.20627223706E+02  0.48965559132E+01 -0.10673196718E+03  0.10881714679E+03  0.00000000000E+00 0.  1.
</event>
<event>
 6    1  0.1726037E-005  0.4565037E+02  0.7818608E-02  0.1522164E+00
          2   -1    0    0  502    0  0.00000000000E+00  0.00000000000E+00  0.67224926006E+02  0.67224926006E+02  0.00000000000E+00 0.  1.
          1   -1    0    0  501    0 -0.00000000000E+00 -0.00000000000E+00 -0.26216265917E+03  0.26216265917E+03  0.00000000000E+00 0.  1.
          2    1    1    2  501    0  0.34726816178E+02  0.38999539277E+02 -0.23187942888E+02  0.57136647794E+02  0.00000000000E+00 0.  1.
          1    1    1    2  502    0 -0.34744134582E+02 -0.56418611895E+02 -0.12258604048E+03  0.13934687645E+03  0.00000000000E+00 0.  1.
         22    1    1    2    0    0 -0.44684400915E+01 -0.15118749121E+02 -0.83741656390E+02  0.85212725264E+02  0.00000000000E+00 0.  1.
         22    1    1    2    0    0  0.44857584954E+01  0.32537821739E+02  0.34577906598E+02  0.47691335665E+02  0.00000000000E+00 0.  1.
</event>
<event>
 6    1  0.1726037E-005  0.3682566E+02  0.7818608E-02  0.1563051E+00
          2   -1    0    0  502    0  0.00000000000E+00  0.00000000000E+00  0.56079035774E+03  0.56079035774E+03  0.00000000000E+00 0. -1.
          1   -1    0    0  501    0 -0.00000000000E+00 -0.00000000000E+00 -0.44631464717E+03  0.44631464717E+03  0.00000000000E+00 0. -1.
          2    1    1    2  501    0 -0.58562157237E+01 -0.39563336656E+02  0.47364048037E+03  0.47532605390E+03  0.00000000000E+00 0. -1.
          1    1    1    2  502    0  0.97879081561E+00  0.47060713120E+02 -0.39791942727E+03  0.40069382245E+03  0.00000000000E+00 0. -1.
         22    1    1    2    0    0  0.34676293517E+01  0.14553907215E+02 -0.43454630118E+02  0.45958084678E+02  0.00000000000E+00 0. -1.
         22    1    1    2    0    0  0.14097955565E+01 -0.22051283679E+02  0.82209287582E+02  0.85127043883E+02  0.00000000000E+00 0. -1.
</event>
<event>
 6    1  0.1726037E-005  0.9976304E+02  0.7818608E-02  0.1364975E+00
          2   -1    0    0  502    0  0.00000000000E+00  0.00000000000E+00  0.23461311354E+03  0.23461311354E+03  0.00000000000E+00 0.  1.
          1   -1    0    0  501    0 -0.00000000000E+00 -0.00000000000E+00 -0.39675140254E+03  0.39675140254E+03  0.00000000000E+00 0. -1.
          2    1    1    2  501    0 -0.58900068084E+02 -0.15061094421E+03  0.51172182132E+02  0.16962153979E+03  0.00000000000E+00 0.  1.
          1    1    1    2  502    0  0.12341138385E+03  0.15708514710E+03 -0.24971948901E+03  0.31979045685E+03  0.00000000000E+00 0. -1.
         22    1    1    2    0    0 -0.81761476936E+01 -0.98066807695E+01  0.73382859794E+02  0.74485330706E+02  0.00000000000E+00 0. -1.
         22    1    1    2    0    0 -0.56335168070E+02  0.33324778776E+01 -0.36973841920E+02  0.67467188742E+02  0.00000000000E+00 0. -1.
</event>
<event>
 6    1  0.1726037E-005  0.5731763E+02  0.7818608E-02  0.1453674E+00
          2   -1    0    0  502    0  0.00000000000E+00  0.00000000000E+00  0.15412817892E+03  0.15412817892E+03  0.00000000000E+00 0. -1.
          1   -1    0    0  501    0 -0.00000000000E+00 -0.00000000000E+00 -0.16134754788E+03  0.16134754788E+03  0.00000000000E+00 0. -1.
          2    1    1    2  501    0 -0.52162119599E+01  0.39503299796E+02  0.77292013326E+02  0.86958466442E+02  0.00000000000E+00 0. -1.
          1    1    1    2  502    0  0.58899081443E+02  0.22804557164E-01 -0.65606353367E+02  0.88166296945E+02  0.00000000000E+00 0. -1.
         22    1    1    2    0    0 -0.67560992579E+02 -0.47678823796E+02  0.30695564812E+02  0.88204170287E+02  0.00000000000E+00 0. -1.
         22    1    1    2    0    0  0.13878123097E+02  0.81527194430E+01 -0.49600593729E+02  0.52146793125E+02  0.00000000000E+00 0. -1.
</event>
<event>
 6    1  0.1726037E-005  0.8386072E+02  0.7818608E-02  0.1428855E+00
          2   -1    0    0  502    0  0.00000000000E+00  0.00000000000E+00  0.41041717809E+02  0.41041717809E+02  0.00000000000E+00 0. -1.
          1   -1    0    0  501    0 -0.00000000000E+00 -0.00000000000E+00 -0.44399986384E+03  0.44399986384E+03  0.00000000000E+00 0. -1.
          2    1    1    2  501    0 -0.11896180238E+02  0.90823014882E+02 -0.12830562630E+03  0.15764730532E+03  0.00000000000E+00 0. -1.
          1    1    1    2  502    0  0.11404713357E+02 -0.28467597475E+02 -0.92599537458E+02  0.97545609487E+02  0.00000000000E+00 0. -1.
         22    1    1    2    0    0  0.92240939177E+00 -0.13541194254E+02  0.18778216709E+02  0.23169726016E+02  0.00000000000E+00 0. -1.
         22    1    1    2    0    0 -0.43094251012E+00 -0.48814223152E+02 -0.20083119899E+03  0.20667894083E+03  0.00000000000E+00 0. -1.
</event>
<event>
 6    1  0.1726037E-005  0.5762686E+02  0.7818608E-02  0.1518015E+00
          2   -1    0    0  502    0  0.00000000000E+00  0.00000000000E+00  0.36496832988E+02  0.36496832988E+02  0.00000000000E+00 0.  1.
          1   -1    0    0  501    0 -0.00000000000E+00 -0.00000000000E+00 -0.46911258690E+03  0.46911258690E+03  0.00000000000E+00 0. -1.
          2    1    1    2  501    0  0.39239286613E+02 -0.39983702155E+02 -0.42402265905E+02  0.70259306898E+02  0.00000000000E+00 0.  1.
          1    1    1    2  502    0 -0.22433844240E+02  0.10250007278E+02 -0.22320534022E+03  0.22456394171E+03  0.00000000000E+00 0. -1.
         22    1    1    2    0    0  0.73713939029E+01  0.91104231145E+01  0.18869051658E+02  0.22212122093E+02  0.00000000000E+00 0.  1.
         22    1    1    2    0    0 -0.24176836276E+02  0.20623271762E+02 -0.18587719944E+03  0.18857404918E+03  0.00000000000E+00 0. -1.
</event>
<event>
 6    1  0.1726037E-005  0.1283669E+03  0.7818608E-02  0.1331027E+00
          2   -1    0    0  502    0  0.00000000000E+00  0.00000000000E+00  0.40074111500E+02  0.40074111500E+02  0.00000000000E+00 0. -1.
          1   -1    0    0  501    0 -0.00000000000E+00 -0.00000000000E+00 -0.13932677834E+04  0.13932677834E+04  0.00000000000E+00 0. -1.
          2    1    1    2  501    0 -0.50262858252E+02 -0.11280182028E+03 -0.10918438533E+04  0.10988055359E+04  0.00000000000E+00 0. -1.
          1    1    1    2  502    0  0.92872590653E+00  0.58792307338E+02 -0.10439715419E+03  0.11981720969E+03  0.00000000000E+00 0. -1.
         22    1    1    2    0    0  0.18341746344E+02  0.36580782579E+01  0.20456094667E+02  0.27717377302E+02  0.00000000000E+00 0.  1.
         22    1    1    2    0    0  0.30992386002E+02  0.50351434684E+02 -0.17740875907E+03  0.18700177207E+03  0.00000000000E+00 0.  1.
</event>
<event>
 6    1  0.1726037E-005  0.4803217E+02  0.7818608E-02  0.1546356E+00
          2   -1    0    0  502    0  0.00000000000E+00  0.00000000000E+00  0.12842801691E+03  0.12842801691E+03  0.00000000000E+00 0.  1.
          1   -1    0    0  501    0 -0.00000000000E+00 -0.00000000000E+00 -0.14944845798E+03  0.14944845798E+03  0.00000000000E+00 0.  1.
          2    1    1    2  501    0 -0.81595285477E+02  0.15989371841E+02 -0.42031454210E+02  0.93167020812E+02  0.00000000000E+00 0.  1.
          1    1    1    2  502    0  0.49987596723E+02 -0.35553430495E+01  0.19635199495E+01  0.50152324980E+02  0.00000000000E+00 0.  1.
         22    1    1    2    0    0 -0.11580259291E+02 -0.42291700744E+01  0.67799961486E+02  0.68911704828E+02  0.00000000000E+00 0. -1.
         22    1    1    2    0    0  0.43187948046E+02 -0.82048587172E+01 -0.48752468299E+02  0.65645424275E+02  0.00000000000E+00 0. -1.
</event>
<event>
 6    1  0.1726037E-005  0.9662173E+02  0.7818608E-02  0.1295908E+00
          2   -1    0    0  502    0  0.00000000000E+00  0.00000000000E+00  0.32751703600E+03  0.32751703600E+03  0.00000000000E+00 0.  1.
          1   -1    0    0  501    0 -0.00000000000E+00 -0.00000000000E+00 -0.11312148380E+04  0.11312148380E+04  0.00000000000E+00 0.  1.
          2    1    1    2  501    0 -0.49291693032E+02  0.61884644950E+02  0.26621279603E+03  0.27772042247E+03  0.00000000000E+00 0.  1.
          1    1    1    2  502    0  0.12814691328E+03 -0.44555730071E+02 -0.10135756047E+04  0.10226154463E+04  0.00000000000E+00 0.  1.
         22    1    1    2    0    0 -0.30600029578E+01  0.15700493137E+02  0.33000061372E+02  0.36672512232E+02  0.00000000000E+00 0.  1.
         22    1    1    2    0    0 -0.75795217287E+02 -0.33029408016E+02 -0.89335054663E+02  0.12172349300E+03  0.00000000000E+00 0.  1.
</event>
<event>
 6    1  0.1726037E-005  0.4537329E+02  0.7818608E-02  0.1484447E+00
          2   -1    0    0  502    0  0.00000000000E+00  0.00000000000E+00  0.10134096299E+03  0.10134096299E+03  0.00000000000E+00 0.  1.
          1   -1    0    0  501    0 -0.00000000000E+00 -0.00000000000E+00 -0.22564306759E+03  0.22564306759E+03  0.00000000000E+00 0. -1.
          2    1    1    2  501    0  0.34112726016E+02 -0.59930171707E+02  0.66255192601E+01  0.69276266228E+02  0.00000000000E+00 0.  1.
          1    1    1    2  502    0 -0.37970886425E+02  0.12824530674E+02 -0.11373321535E+03  0.12058814650E+03  0.00000000000E+00 0. -1.
         22    1    1    2    0    0  0.32871472888E+02  0.19171597788E+02 -0.64563275632E+02  0.74943314925E+02  0.00000000000E+00 0. -1.
         22    1    1    2    0    0 -0.29013312480E+02  0.27934043245E+02  0.47368867120E+02  0.62176302924E+02  0.00000000000E+00 0.  1.
</event>
<event>
 6    1  0.1726037E-005  0.2473787E+02  0.7818608E-02  0.1699038E+00
          2   -1    0    0  502    0  0.00000000000E+00  0.00000000000E+00  0.27233513751E+03  0.27233513751E+03  0.00000000000E+00 0.  1.
          1   -1    0    0  501    0 -0.00000000000E+00 -0.00000000000E+00 -0.26771413615E+03  0.26771413615E+03  0.00000000000E+00 0.  1.
          2    1    1    2  501    0  0.96022184066E+01 -0.31745207904E+02  0.20643211886E+03  0.20907936417E+03  0.00000000000E+00 0.  1.
          1    1    1    2  502    0 -0.39973500294E+01  0.20036692019E+02 -0.20813148564E+03  0.20913192761E+03  0.00000000000E+00 0.  1.
         22    1    1    2    0    0  0.52013198622E+01  0.16208134782E+02 -0.55947333168E+02  0.58479581479E+02  0.00000000000E+00 0.  1.
         22    1    1    2    0    0 -0.10806188239E+02 -0.44996188977E+01  0.62267701304E+02  0.63358400392E+02  0.00000000000E+00 0.  1.
</event>
<event>
 6    1  0.1726037E-005  0.5710555E+02  0.7818608E-02  0.1413849E+00
          2   -1    0    0  502    0  0.00000000000E+00  0.00000000000E+00  0.11604900322E+03  0.11604900322E+03  0.00000000000E+00 0.  1.
          1   -1    0    0  501    0 -0.00000000000E+00 -0.00000000000E+00 -0.29521435647E+03  0.29521435647E+03  0.00000000000E+00 0.  1.
          2    1    1    2  501    0  0.29392930377E+02 -0.29303816251E+02  0.68885856325E+02  0.80423374741E+02  0.00000000000E+00 0.  1.
          1    1    1    2  502    0 -0.12663008178E+02  0.35079064833E+02 -0.18772191726E+03  0.19139072805E+03  0.00000000000E+00 0.  1.
         22    1    1    2    0    0  0.26144510309E+01 -0.10042436471E+02  0.37872977107E+02  0.39268922565E+02  0.00000000000E+00 0.  1.
         22    1    1    2    0    0 -0.19344373230E+02  0.42671878889E+01 -0.98202269418E+02  0.10018033433E+03  0.00000000000E+00 0.  1.
</event>
<event>
 6    1  0.1726037E-005  0.2006297E+03  0.7818608E-02  0.1169223E+00
          2   -1    0    0  502    0  0.00000000000E+00  0.00000000000E+00  0.25139575220E+03  0.25139575220E+03  0.00000000000E+00 0. -1.
          1   -1    0    0  501    0 -0.00000000000E+00 -0.00000000000E+00 -0.82864228882E+03  0.82864228882E+03  0.00000000000E+00 0.  1.
          2    1    1    2  501    0  0.29691956796E+03  0.99803584260E+02 -0.92334346230E+01  0.31338034651E+03  0.00000000000E+00 0. -1.
          1    1    1    2  502    0 -0.17082559308E+03 -0.46944930447E+02 -0.55480699048E+03  0.58240536264E+03  0.00000000000E+00 0.  1.
         22    1    1    2    0    0 -0.11380813005E+03 -0.53658668727E+02  0.38119217189E+02  0.13147097746E+03  0.00000000000E+00 0. -1.
         22    1    1    2    0    0 -0.12285844821E+02  0.80001491392E+00 -0.51325328698E+02  0.52781354405E+02  0.00000000000E+00 0.  1.
</event>
<event>
 6    1  0.1726037E-005  0.9782281E+02  0.7818608E-02  0.1305799E+00
          2   -1    0    0  502    0  0.00000000000E+00  0.00000000000E+00  0.61345065423E+03  0.61345065423E+03  0.00000000000E+00 0. -1.
          1   -1    0    0  501    0 -0.00000000000E+00 -0.00000000000E+00 -0.59651677776E+02  0.59651677776E+02  0.00000000000E+00 0. -1.
          2    1    1    2  501    0 -0.10101090673E+03  0.84567152413E+02  0.24427451532E+03  0.27753350316E+03  0.00000000000E+00 0. -1.
          1    1    1    2  502    0  0.49861434656E+02 -0.81161105523E+01 -0.11885143107E-01  0.50517660849E+02  0.00000000000E+00 0. -1.
         22    1    1    2    0    0  0.37046447423E+02 -0.80347944805E+02  0.31665234745E+03  0.32878099192E+03  0.00000000000E+00 0. -1.
         22    1    1    2    0    0  0.14103024649E+02  0.38969029438E+01 -0.71160011711E+01  0.16270176073E+02  0.00000000000E+00 0. -1.
</event>
<event>
 6    1  0.1726037E-005  0.1286785E+03  0.7818608E-02  0.1359583E+00
          2   -1    0    0  502    0  0.00000000000E+00  0.00000000000E+00  0.99593585235E+02  0.99593585235E+02  0.00000000000E+00 0. -1.
          1   -1    0    0  501    0 -0.00000000000E+00 -0.00000000000E+00 -0.68677727269E+03  0.68677727269E+03  0.00000000000E+00 0. -1.
          2    1    1    2  501    0  0.46508702551E+02  0.12306188328E+03 -0.17943928012E+01  0.13156939757E+03  0.00000000000E+00 0. -1.
          1    1    1    2  502    0 -0.43390982795E+02 -0.92315290509E+02 -0.47003905669E+03  0.48097983852E+03  0.00000000000E+00 0. -1.
         22    1    1    2    0    0  0.65112225279E+01 -0.24708009634E+02 -0.14229861327E+03  0.14457446904E+03  0.00000000000E+00 0.  1.
         22    1    1    2    0    0 -0.96289422833E+01 -0.60385831408E+01  0.26948375301E+02  0.29247152805E+02  0.00000000000E+00 0.  1.
</event>
<event>
 6    1  0.1726037E-005  0.7811005E+02  0.7818608E-02  0.1462379E+00
          2   -1    0    0  502    0  0.00000000000E+00  0.00000000000E+00  0.78077236023E+02  0.78077236023E+02  0.00000000000E+00 0. -1.
          1   -1    0    0  501    0 -0.00000000000E+00 -0.00000000000E+00 -0.52645849575E+03  0.52645849575E+03  0.00000000000E+00 0. -1.
          2    1    1    2  501    0 -0.56903156256E+02  0.36316114466E+02  0.20298964251E+02  0.70490263948E+02  0.00000000000E+00 0. -1.
          1    1    1    2  502    0  0.42871391306E+02 -0.36967387359E+02 -0.36615706986E+03  0.37050714397E+03  0.00000000000E+00 0. -1.
         22    1    1    2    0    0  0.20988480559E+02 -0.68315107779E+01 -0.13122700208E+03  0.13307032701E+03  0.00000000000E+00 0. -1.
         22    1    1    2    0    0 -0.69567156091E+01  0.74827836712E+01  0.28703847967E+02  0.30467996844E+02  0.00000000000E+00 0.  1.
</event>
<event>
 6    1  0.1726037E-005  0.5688596E+02  0.7818608E-02  0.1514072E+00
          2   -1    0    0  502    0  0.00000000000E+00  0.00000000000E+00  0.13950297166E+03  0.13950297166E+03  0.00000000000E+00 0. -1.
          1   -1    0    0  501    0 -0.00000000000E+00 -0.00000000000E+00 -0.70128893104E+03  0.70128893104E+03  0.00000000000E+00 0. -1.
          2    1    1    2  501    0 -0.18286809988E+02  0.22421436651E+02  0.42709518156E+02  0.51587122251E+02  0.00000000000E+00 0. -1.
          1    1    1    2  502    0  0.17955844297E+02 -0.52061475149E+02 -0.64981958552E+03  0.65214898854E+03  0.00000000000E+00 0. -1.
         22    1    1    2    0    0  0.94515375145E+01  0.87003081043E+01 -0.43492220745E+02  0.45349754000E+02  0.00000000000E+00 0.  1.
         22    1    1    2    0    0 -0.91205718229E+01  0.20939730394E+02  0.88816328730E+02  0.91706037906E+02  0.00000000000E+00 0. -1.
</event>
<event>
 6    1  0.1726037E-005  0.5521895E+02  0.7818608E-02  0.1445457E+00
          2   -1    0    0  502    0  0.00000000000E+00  0.00000000000E+00  0.93006809555E+02  0.93006809555E+02  0.00000000000E+00 0.  1.
          1   -1    0    0  501    0 -0.00000000000E+00 -0.00000000000E+00 -0.20976502744E+03  0.20976502744E+03  0.00000000000E+00 0. -1.
          2    1    1    2  501    0 -0.66034948214E+02  0.32288032658E+01  0.19285430188E+02  0.68869204829E+02  0.00000000000E+00 0.  1.
          1    1    1    2  502    0  0.19512207312E+02  0.22140762162E+02 -0.88872571659E+02  0.93644399600E+02  0.00000000000E+00 0. -1.
         22    1    1    2    0    0  0.21659264297E+02 -0.30068717651E+02  0.36999692533E+02  0.52366294108E+02  0.00000000000E+00 0.  1.
         22    1    1    2    0    0  0.24863476605E+02  0.46991522237E+01 -0.84170768944E+02  0.87891938454E+02  0.00000000000E+00 0. -1.
</event>
<event>
 6    1  0.1726037E-005  0.5304191E+02  0.7818608E-02  0.1450567E+00
          2   -1    0    0  502    0  0.00000000000E+00  0.00000000000E+00  0.10052856925E+04  0.10052856925E+04  0.00000000000E+00 0. -1.
          1   -1    0    0  501    0 -0.00000000000E+00 -0.00000000000E+00 -0.32614091026E+02  0.32614091026E+02  0.00000000000E+00 0. -1.
          2    1    1    2  501    0 -0.22847474382E+02  0.49300086241E+02  0.69084620671E+03  0.69297978825E+03  0.00000000000E+00 0. -1.
          1    1    1    2  502    0  0.26244643635E+02 -0.16597299695E+00 -0.57411650526E+01  0.26865774561E+02  0.00000000000E+00 0. -1.
         22    1    1    2    0    0  0.82245664768E+01  0.75559989534E+01 -0.99524399317E+01  0.14959534569E+02  0.00000000000E+00 0. -1.
         22    1    1    2    0    0 -0.11621735730E+02 -0.56690112197E+02  0.29751899974E+03  0.30309468615E+03  0.00000000000E+00 0. -1.
</event>
<event>
 6    1  0.1726037E-005  0.9096062E+02  0.7818608E-02  0.1317898E+00
          2   -1    0    0  502    0  0.00000000000E+00  0.00000000000E+00  0.56175782628E+03  0.56175782628E+03  0.00000000000E+00 0. -1.
          1   -1    0    0  501    0 -0.00000000000E+00 -0.00000000000E+00 -0.24431572851E+03  0.24431572851E+03  0.00000000000E+00 0.  1.
          2    1    1    2  501    0  0.86906587207E+02 -0.14607696050E+03  0.30475477797E+03  0.34895086758E+03  0.00000000000E+00 0. -1.
          1    1    1    2  502    0 -0.13835175243E+03  0.65989287474E+02 -0.15990135662E+03  0.22150448598E+03  0.00000000000E+00 0.  1.
         22    1    1    2    0    0  0.18664122963E+02  0.53769397737E+02  0.18355160456E+03  0.19217359121E+03  0.00000000000E+00 0. -1.
         22    1    1    2    0    0  0.32781042256E+02  0.26318275291E+02 -0.10962928153E+02  0.43444610015E+02  0.00000000000E+00 0. -1.
</event>
<event>
 6    1  0.1726037E-005  0.1219401E+03  0.7818608E-02  0.1331616E+00
          2   -1    0    0  502    0  0.00000000000E+00  0.00000000000E+00  0.94882862914E+03  0.94882862914E+03  0.00000000000E+00 0. -1.
          1   -1    0    0  501    0 -0.00000000000E+00 -0.00000000000E+00 -0.10115154902E+03  0.10115154902E+03  0.00000000000E+00 0. -1.
          2    1    1    2  501    0  0.45790861496E+02 -0.32907082937E+02 -0.33475022405E+02  0.65576338942E+02  0.00000000000E+00 0. -1.
          1    1    1    2  502    0  0.35370432711E+02  0.11719749377E+03  0.44493492100E+02  0.13025356385E+03  0.00000000000E+00 0. -1.
         22    1    1    2    0    0 -0.10203922328E+03 -0.89805862493E+02  0.80108339667E+03  0.81253412510E+03  0.00000000000E+00 0. -1.
         22    1    1    2    0    0  0.20877929073E+02  0.55154516560E+01  0.35575213753E+02  0.41616150265E+02  0.00000000000E+00 0. -1.
</event>
<event>
 6    1  0.1726037E-005  0.1233400E+03  0.7818608E-02  0.1340973E+00
          2   -1    0    0  502    0  0.00000000000E+00  0.00000000000E+00  0.37397939572E+03  0.37397939572E+03  0.00000000000E+00 0.  1.
          1   -1    0    0  501    0 -0.00000000000E+00 -0.00000000000E+00 -0.56129588139E+03  0.56129588139E+03  0.00000000000E+00 0.  1.
          2    1    1    2  501    0 -0.97622092940E+02  0.24516510631E+02  0.33727448729E+03  0.35197331163E+03  0.00000000000E+00 0.  1.
          1    1    1    2  502    0  0.70440335352E+02 -0.34906284946E+02 -0.38599648350E+03  0.39392077230E+03  0.00000000000E+00 0.  1.
         22    1    1    2    0    0 -0.16429342986E+02  0.66599287109E+01  0.18902653205E+02  0.25915019961E+02  0.00000000000E+00 0.  1.
         22    1    1    2    0    0  0.43611100574E+02  0.37298456040E+01 -0.15749714266E+03  0.16346617323E+03  0.00000000000E+00 0. -1.
</event>
<event>
 6    1  0.1726037E-005  0.3779879E+02  0.7818608E-02  0.1626723E+00
          2   -1    0    0  502    0  0.00000000000E+00  0.00000000000E+00  0.77149210316E+02  0.77149210316E+02  0.00000000000E+00 0.  1.
          1   -1    0    0  501    0 -0.00000000000E+00 -0.00000000000E+00 -0.28195857256E+03  0.28195857256E+03  0.00000000000E+00 0.  1.
          2    1    1    2  501    0  0.14015644868E+02  0.34113298520E+02 -0.10949155301E+01  0.36896534756E+02  0.00000000000E+00 0.  1.
          1    1    1    2  502    0  0.46239435779E+01 -0.23851307722E+02 -0.18911434666E+03  0.19066856544E+03  0.00000000000E+00 0.  1.
         22    1    1    2    0    0 -0.79548277552E+01 -0.10227749708E+02 -0.72000097640E+02  0.73156682599E+02  0.00000000000E+00 0.  1.
         22    1    1    2    0    0 -0.10684760691E+02 -0.34241089966E-01  0.57399997583E+02  0.58386000085E+02  0.00000000000E+00 0.  1.
</event>
<event>
 6    1  0.1726037E-005  0.8889352E+02  0.7818608E-02  0.1402884E+00
          2   -1    0    0  502    0  0.00000000000E+00  0.00000000000E+00  0.30788493712E+03  0.30788493712E+03  0.00000000000E+00 0.  1.
          1   -1    0    0  501    0 -0.00000000000E+00 -0.00000000000E+00 -0.10099148833E+03  0.10099148833E+03  0.00000000000E+00 0. -1.
          2    1    1    2  501    0  0.46535785259E+02 -0.69848656872E+02  0.21865276719E+03  0.23420812705E+03  0.00000000000E+00 0.  1.
          1    1    1    2  502    0 -0.15409827982E+02  0.19975922540E+02 -0.25702664351E+02  0.36015652632E+02  0.00000000000E+00 0. -1.
         22    1    1    2    0    0 -0.12956749000E+02 -0.11054951630E+02  0.58556094365E+02  0.60982829448E+02  0.00000000000E+00 0.  1.
         22    1    1    2    0    0 -0.18169208277E+02  0.60927685962E+02 -0.44612748408E+02  0.77669816316E+02  0.00000000000E+00 0. -1.
</event>
<event>
 6    1  0.1726037E-005  0.6940642E+02  0.7818608E-02  0.1464415E+00
          2   -1    0    0  502    0  0.00000000000E+00  0.00000000000E+00  0.45044665046E+03  0.45044665046E+03  0.00000000000E+00 0.  1.
          1   -1    0    0  501    0 -0.00000000000E+00 -0.00000000000E+00 -0.15513486566E+03  0.15513486566E+03  0.00000000000E+00 0.  1.
          2    1    1    2  501    0  0.50259635225E+02  0.11451702662E+03  0.16614982460E+03  0.20795659291E+03  0.00000000000E+00 0.  1.
          1    1    1    2  502    0  0.60591055293E+01 -0.89851120165E+02 -0.96968629384E+02  0.13233613127E+03  0.00000000000E+00 0.  1.
         22    1    1    2    0    0 -0.45661598586E+02 -0.25409615054E+02  0.24121181360E+03  0.24680714970E+03  0.00000000000E+00 0.  1.
         22    1    1    2    0    0 -0.10657142168E+02  0.74370860189E+00 -0.15081224031E+02  0.18481642241E+02  0.00000000000E+00 0. -1.
</event>
<event>
 6    1  0.1726037E-005  0.8512671E+02  0.7818608E-02  0.1353437E+00
          2   -1    0    0  502    0  0.00000000000E+00  0.00000000000E+00  0.36078654458E+03  0.36078654458E+03  0.00000000000E+00 0.  1.
          1   -1    0    0  501    0 -0.00000000000E+00 -0.00000000000E+00 -0.78141227851E+02  0.78141227851E+02  0.00000000000E+00 0. -1.
          2    1    1    2  501    0  0.78876383181E+02 -0.16511084270E+02  0.24200011115E+03  0.25506499863E+03  0.00000000000E+00 0.  1.
          1    1    1    2  502    0 -0.43346556600E+02  0.20763902492E+02  0.10736375658E+02  0.49247673834E+02  0.00000000000E+00 0. -1.
         22    1    1    2    0    0 -0.42943394918E+02  0.72574548316E+01 -0.42541952400E+02  0.60882046054E+02  0.00000000000E+00 0. -1.
         22    1    1    2    0    0  0.74135683372E+01 -0.11510273053E+02  0.72450782324E+02  0.73733053921E+02  0.00000000000E+00 0.  1.
</event>
<event>
 6    1  0.1726037E-005  0.9610340E+02  0.7818608E-02  0.1331507E+00
          2   -1    0    0  502    0  0.00000000000E+00  0.00000000000E+00  0.50939770022E+03  0.50939770022E+03  0.00000000000E+00 0. -1.
          1   -1    0    0  501    0 -0.00000000000E+00 -0.00000000000E+00 -0.13708549280E+03  0.13708549280E+03  0.00000000000E+00 0. -1.
          2    1    1    2  501    0  0.75287553266E+02  0.95264570952E+02  0.23200830461E+03  0.26186142817E+03  0.00000000000E+00 0. -1.
          1    1    1    2  502    0 -0.24692470535E+02 -0.18783236996E+02 -0.96035685867E+02  0.10092264886E+03  0.00000000000E+00 0. -1.
         22    1    1    2    0    0 -0.10849617457E+02 -0.15268663858E+01 -0.14915221691E+02  0.18507008348E+02  0.00000000000E+00 0.  1.
         22    1    1    2    0    0 -0.39745465274E+02 -0.74954467570E+02  0.25125481037E+03  0.26519210763E+03  0.00000000000E+00 0. -1.
</event>
<event>
 6    1  0.1726037E-005  0.3462586E+03  0.7818608E-02  0.1156397E+00
          2   -1    0    0  502    0  0.00000000000E+00  0.00000000000E+00  0.12500169991E+04  0.12500169991E+04  0.00000000000E+00 0. -1.
          1   -1    0    0  501    0 -0.00000000000E+00 -0.00000000000E+00 -0.11298942825E+03  0.11298942825E+03  0.00000000000E+00 0. -1.
          2    1    1    2  501    0 -0.32079342302E+03  0.54372223503E+02  0.63643378417E+03  0.71478158942E+03  0.00000000000E+00 0. -1.
          1    1    1    2  502    0  0.27370213466E+03 -0.46963630435E+02  0.31896444514E+03  0.42291459937E+03  0.00000000000E+00 0. -1.
         22    1    1    2    0    0 -0.23591789244E+02 -0.22994899862E+02  0.13557336537E+03  0.13951872755E+03  0.00000000000E+00 0.  1.
         22    1    1    2    0    0  0.70683077607E+02  0.15586306794E+02  0.46055976154E+02  0.85791510996E+02  0.00000000000E+00 0. -1.
</event>
<event>
 6    1  0.1726037E-005  0.1683148E+03  0.7818608E-02  0.1297493E+00
          2   -1    0    0  502    0  0.00000000000E+00  0.00000000000E+00  0.39091951291E+02  0.39091951291E+02  0.00000000000E+00 0. -1.
          1   -1    0    0  501    0 -0.00000000000E+00 -0.00000000000E+00 -0.87946901175E+03  0.87946901175E+03  0.00000000000E+00 0. -1.
          2    1    1    2  501    0  0.93499696084E+02 -0.11922161424E+03 -0.39079979144E+03  0.41914253359E+03  0.00000000000E+00 0. -1.
          1    1    1    2  502    0 -0.32760986193E+02  0.31163697840E+01 -0.64865206524E+02  0.72735747706E+02  0.00000000000E+00 0. -1.
         22    1    1    2    0    0  0.15174866170E+02 -0.62756038755E+00  0.23197927034E+01  0.15363978440E+02  0.00000000000E+00 0. -1.
         22    1    1    2    0    0 -0.75913576060E+02  0.11673280484E+03 -0.38703185519E+03  0.41131870331E+03  0.00000000000E+00 0. -1.
</event>
<event>
 6    1  0.1726037E-005  0.8568553E+02  0.7818608E-02  0.1363974E+00
          2   -1    0    0  502    0  0.00000000000E+00  0.00000000000E+00  0.27944961502E+02  0.27944961502E+02  0.00000000000E+00 0. -1.
          1   -1    0    0  501    0 -0.00000000000E+00 -0.00000000000E+00 -0.16672675440E+04  0.16672675440E+04  0.00000000000E+00 0. -1.
          2    1    1    2  501    0 -0.27020816142E+02 -0.43957178012E+02 -0.11013564155E+04  0.11025644254E+04  0.00000000000E+00 0. -1.
          1    1    1    2  502    0 -0.49601111479E+02  0.66253549949E+02 -0.29929643478E+03  0.31052883765E+03  0.00000000000E+00 0. -1.
         22    1    1    2    0    0  0.11238427904E+03 -0.22319915555E+02 -0.18585354954E+03  0.21833448349E+03  0.00000000000E+00 0. -1.
         22    1    1    2    0    0 -0.35762351420E+02  0.23543618002E-01 -0.52816182670E+02  0.63784759036E+02  0.00000000000E+00 0. -1.
</event>
<event>
 6    1  0.1726037E-005  0.7660539E+02  0.7818608E-02  0.1390415E+00
          2   -1    0    0  502    0  0.00000000000E+00  0.00000000000E+00  0.19119920571E+03  0.19119920571E+03  0.00000000000E+00 0. -1.
          1   -1    0    0  501    0 -0.00000000000E+00 -0.00000000000E+00 -0.64127017224E+03  0.64127017224E+03  0.00000000000E+00 0.  1.
          2    1    1    2  501    0  0.24314677911E+02 -0.20779736261E+02  0.30246714586E+02  0.44021185175E+02  0.00000000000E+00 0. -1.
          1    1    1    2  502    0 -0.50991576279E+02  0.27266936073E+02 -0.60625883734E+03  0.60901018424E+03  0.00000000000E+00 0.  1.
         22    1    1    2    0    0 -0.11949999173E+01  0.10140483893E+02 -0.23969884954E+02  0.26054036599E+02  0.00000000000E+00 0. -1.
         22    1    1    2    0    0  0.27871898285E+02 -0.16627683704E+02  0.14991104118E+03  0.15338397193E+03  0.00000000000E+00 0. -1.
</event>
<event>
 6    1  0.1726037E-005  0.2003436E+03  0.7818608E-02  0.1287301E+00
          2   -1    0    0  502    0  0.00000000000E+00  0.00000000000E+00  0.24512967858E+03  0.24512967858E+03  0.00000000000E+00 0. -1.
          1   -1    0    0  501    0 -0.00000000000E+00 -0.00000000000E+00 -0.33963097842E+03  0.33963097842E+03  0.00000000000E+00 0. -1.
          2    1    1    2  501    0 -0.33716511711E+02  0.18882094262E+03  0.13416639516E+03  0.23407428976E+03  0.00000000000E+00 0. -1.
          1    1    1    2  502    0  0.29630482945E+02 -0.12045865060E+03 -0.11825815703E+03  0.17138624136E+03  0.00000000000E+00 0. -1.
         22    1    1    2    0    0 -0.10851310152E+02 -0.94709453160E+00  0.25017305718E+02  0.27285774782E+02  0.00000000000E+00 0.  1.
         22    1    1    2    0    0  0.14937338917E+02 -0.67415197490E+02 -0.13542684369E+03  0.15201435109E+03  0.00000000000E+00 0. -1.
</event>
<event>
 6    1  0.1726037E-005  0.1294795E+03  0.7818608E-02  0.1284452E+00
          2   -1    0    0  502    0  0.00000000000E+00  0.00000000000E+00  0.25073745460E+03  0.25073745460E+03  0.00000000000E+00 0.  1.
          1   -1    0    0  501    0 -0.00000000000E+00 -0.00000000000E+00 -0.11287221010E+03  0.11287221010E+03  0.00000000000E+00 0.  1.
          2    1    1    2  501    0 -0.98394640259E+02  0.65087301218E+02 -0.16804687540E+02  0.11916484186E+03  0.00000000000E+00 0.  1.
          1    1    1    2  502    0  0.22111366134E+02 -0.18944150568E+02  0.46484178120E+02  0.54850452765E+02  0.00000000000E+00 0.  1.
         22    1    1    2    0    0  0.11072909702E+03 -0.21117371311E+02  0.84435263982E+02  0.14084101001E+03  0.00000000000E+00 0.  1.
         22    1    1    2    0    0 -0.34445822893E+02 -0.25025779339E+02  0.23750489938E+02  0.48753360074E+02  0.00000000000E+00 0.  1.
</event>
<event>
 6    1  0.1726037E-005  0.5732692E+02  0.7818608E-02  0.1458125E+00
          2   -1    0    0  502    0  0.00000000000E+00  0.00000000000E+00  0.40462411282E+03  0.40462411282E+03  0.00000000000E+00 0. -1.
          1   -1    0    0  501    0 -0.00000000000E+00 -0.00000000000E+00 -0.11571179650E+03  0.11571179650E+03  0.00000000000E+00 0.  1.
          2    1    1    2  501    0  0.41152846769E+02  0.80507836285E+01  0.33072487274E+03  0.33337263440E+03  0.00000000000E+00 0. -1.
          1    1    1    2  502    0 -0.22068386976E+02 -0.24994358665E+02 -0.45094412243E+02  0.56082418674E+02  0.00000000000E+00 0.  1.
         22    1    1    2    0    0  0.79648256635E+01  0.12032106813E+02  0.63269310178E+02  0.64893879932E+02  0.00000000000E+00 0.  1.
         22    1    1    2    0    0 -0.27049285456E+02  0.49114682230E+01 -0.59987454355E+02  0.65986976320E+02  0.00000000000E+00 0.  1.
</event>
<event>
 6    1  0.1726037E-005  0.1314134E+03  0.7818608E-02  0.1310385E+00
          2   -1    0    0  502    0  0.00000000000E+00  0.00000000000E+00  0.72677466042E+02  0.72677466042E+02  0.00000000000E+00 0. -1.
          1   -1    0    0  501    0 -0.00000000000E+00 -0.00000000000E+00 -0.31904603464E+03  0.31904603464E+03  0.00000000000E+00 0.  1.
          2    1    1    2  501    0 -0.14316565235E+02 -0.47772921766E+02  0.17008183853E+02  0.52692451188E+02  0.00000000000E+00 0. -1.
          1    1    1    2  502    0 -0.39307524278E+02  0.36003622368E+02 -0.16310139385E+03  0.17159081258E+03  0.00000000000E+00 0.  1.
         22    1    1    2    0    0  0.68768313486E+02  0.31907940001E+02 -0.11538391587E+03  0.13806029703E+03  0.00000000000E+00 0. -1.
         22    1    1    2    0    0 -0.15144223973E+02 -0.20138640602E+02  0.15108557261E+02  0.29379939884E+02  0.00000000000E+00 0. -1.
</event>
<event>
 6    1  0.1726037E-005  0.2732748E+03  0.7818608E-02  0.1228806E+00
          2   -1    0    0  502    0  0.00000000000E+00  0.00000000000E+00  0.79912095815E+03  0.79912095815E+03  0.00000000000E+00 0.  1.
          1   -1    0    0  501    0 -0.00000000000E+00 -0.00000000000E+00 -0.23321979286E+03  0.23321979286E+03  0.00000000000E+00 0. -1.
          2    1    1    2  501    0 -0.18812287868E+03  0.18025116402E+03  0.63817516063E+03  0.68930997038E+03  0.00000000000E+00 0.  1.
          1    1    1    2  502    0  0.11165178279E+03 -0.76899241253E+02 -0.92036759698E+02  0.16386085268E+03  0.00000000000E+00 0. -1.
         22    1    1    2    0    0 -0.12053672466E+02 -0.63178185520E+01  0.43601805521E+02  0.45676288114E+02  0.00000000000E+00 0.  1.
         22    1    1    2    0    0  0.88524768357E+02 -0.97034104217E+02 -0.23839041160E+02  0.13349363984E+03  0.00000000000E+00 0. -1.
</event>
<event>
 6    1  0.1726037E-005  0.6573066E+02  0.7818608E-02  0.1468968E+00
          2   -1    0    0  502    0  0.00000000000E+00  0.00000000000E+00  0.78638558636E+03  0.78638558636E+03  0.00000000000E+00 0. -1.
          1   -1    0    0  501    0 -0.00000000000E+00 -0.00000000000E+00 -0.60374921958E+02  0.60374921958E+02  0.00000000000E+00 0.  1.
          2    1    1    2  501    0  0.24247579160E+02  0.54639708954E+02  0.67958170457E+03  0.68220578719E+03  0.00000000000E+00 0. -1.
          1    1    1    2  502    0 -0.11615331934E+02 -0.16856581835E+02 -0.57189196870E+01  0.21254795447E+02  0.00000000000E+00 0.  1.
         22    1    1    2    0    0 -0.27811962069E+02 -0.34221657444E+02 -0.34043357960E+02  0.55709759410E+02  0.00000000000E+00 0.  1.
         22    1    1    2    0    0  0.15179714844E+02 -0.35614696746E+01  0.86191237477E+02  0.87590166268E+02  0.00000000000E+00 0.  1.
</event>
<event>
 6    1  0.1726037E-005  0.5032491E+02  0.7818608E-02  0.1493646E+00
          2   -1    0    0  502    0  0.00000000000E+00  0.00000000000E+00  0.60671061609E+02  0.60671061609E+02  0.00000000000E+00 0. -1.
          1   -1    0    0  501    0 -0.00000000000E+00 -0.00000000000E+00 -0.37721773045E+03  0.37721773045E+03  0.00000000000E+00 0.  1.
          2    1    1    2  501    0 -0.50671381930E+02  0.19523906357E+02 -0.67969585827E+02  0.86997910685E+02  0.00000000000E+00 0. -1.
          1    1    1    2  502    0  0.15673779154E+02 -0.70452289739E+02 -0.18483974060E+03  0.19843115226E+03  0.00000000000E+00 0.  1.
         22    1    1    2    0    0  0.16646077358E+02  0.39910544510E+02  0.32358125547E+02  0.54009182029E+02  0.00000000000E+00 0. -1.
         22    1    1    2    0    0  0.18351525418E+02  0.11017838872E+02 -0.96095467967E+02  0.98450547091E+02  0.00000000000E+00 0. -1.
</event>
<event>
 6    1  0.1726037E-005  0.4157830E+02  0.7818608E-02  0.1566260E+00
          2   -1    0    0  502    0  0.00000000000E+00  0.00000000000E+00  0.24093150425E+03  0.24093150425E+03  0.00000000000E+00 0.  1.
          1   -1    0    0  501    0 -0.00000000000E+00 -0.00000000000E+00 -0.91613612099E+02  0.91613612099E+02  0.00000000000E+00 0.  1.
          2    1    1    2  501    0  0.63169507612E+02 -0.29712416696E+02  0.12816820773E+03  0.14594623623E+03  0.00000000000E+00 0.  1.
          1    1    1    2  502    0 -0.42433117590E+02  0.26494653473E+02  0.36539905267E+02  0.61949179236E+02  0.00000000000E+00 0.  1.
         22    1    1    2    0    0  0.34314741678E+01 -0.10568251029E+02  0.51246658721E+02  0.52437419605E+02  0.00000000000E+00 0.  1.
         22    1    1    2    0    0 -0.24167864190E+02  0.13786014252E+02 -0.66636879567E+02  0.72212281274E+02  0.00000000000E+00 0.  1.
</event>
<event>
 6    1  0.1726037E-005  0.1151188E+03  0.7818608E-02  0.1312580E+00
          2   -1    0    0  502    0  0.00000000000E+00  0.00000000000E+00  0.94301439422E+02  0.94301439422E+02  0.00000000000E+00 0. -1.
          1   -1    0    0  501    0 -0.00000000000E+00 -0.00000000000E+00 -0.53050967891E+03  0.53050967891E+03  0.00000000000E+00 0.  1.
          2    1    1    2  501    0 -0.94091743339E+02  0.21110302183E+02  0.35164105999E+02  0.10264217152E+03  0.00000000000E+00 0. -1.
          1    1    1    2  502    0  0.84671934246E+02 -0.32324748728E+02 -0.26963544009E+03  0.28446000841E+03  0.00000000000E+00 0.  1.
         22    1    1    2    0    0 -0.18260376356E+02 -0.11839356824E+02  0.92659886546E+01  0.23653123692E+02  0.00000000000E+00 0.  1.
         22    1    1    2    0    0  0.27680185449E+02  0.23053803369E+02 -0.21100289405E+03  0.21405581472E+03  0.00000000000E+00 0. -1.
</event>
<event>
 6    1  0.1726037E-005  0.6419554E+02  0.7818608E-02  0.1397177E+00
          2   -1    0    0  502    0  0.00000000000E+00  0.00000000000E+00  0.63341260947E+03  0.63341260947E+03  0.00000000000E+00 0. -1.
          1   -1    0    0  501    0 -0.00000000000E+00 -0.00000000000E+00 -0.48429576585E+02  0.48429576585E+02  0.00000000000E+00 0.  1.
          2    1    1    2  501    0  0.27510419697E+02 -0.50129882954E+01  0.40903816881E+03  0.40999289846E+03  0.00000000000E+00 0. -1.
          1    1    1    2  502    0 -0.38276284303E+02 -0.31485000208E+02 -0.46137901320E+01  0.49776161337E+02  0.00000000000E+00 0.  1.
         22    1    1    2    0    0  0.18012012835E+02  0.46106769383E+02  0.19619416384E+03  0.20234232557E+03  0.00000000000E+00 0.  1.
         22    1    1    2    0    0 -0.72461482292E+01 -0.96087808803E+01 -0.15635509640E+02  0.19730800690E+02  0.00000000000E+00 0.  1.
</event>
<event>
 6    1  0.1726037E-005  0.1024590E+03  0.7818608E-02  0.1343537E+00
          2   -1    0    0  502    0  0.00000000000E+00  0.00000000000E+00  0.76409585949E+02  0.76409585949E+02  0.00000000000E+00 0. -1.
          1   -1    0    0  501    0 -0.00000000000E+00 -0.00000000000E+00 -0.17605599426E+03  0.17605599426E+03  0.00000000000E+00 0. -1.
          2    1    1    2  501    0  0.24865356166E+02 -0.13898713954E+02 -0.36604175430E+01  0.28720355907E+02  0.00000000000E+00 0. -1.
          1    1    1    2  502    0 -0.55056214443E+02  0.27090266419E+02 -0.59337309396E+02  0.85357984804E+02  0.00000000000E+00 0. -1.
         22    1    1    2    0    0  0.15331863864E+02  0.25303786877E+02  0.40938074973E+02  0.50510134254E+02  0.00000000000E+00 0.  1.
         22    1    1    2    0    0  0.14858994412E+02 -0.38495339342E+02 -0.77586756350E+02  0.87877105248E+02  0.00000000000E+00 0. -1.
</event>
<event>
 6    1  0.1726037E-005  0.6319493E+02  0.7818608E-02  0.1471487E+00
          2   -1    0    0  502    0  0.00000000000E+00  0.00000000000E+00  0.18039316870E+04  0.18039316870E+04  0.00000000000E+00 0.  1.
          1   -1    0    0  501    0 -0.00000000000E+00 -0.00000000000E+00 -0.52251489587E+02  0.52251489587E+02  0.00000000000E+00 0.  1.
          2    1    1    2  501    0  0.53374141020E+02 -0.87428996360E+01  0.16969417733E+04  0.16978034690E+04  0.00000000000E+00 0.  1.
          1    1    1    2  502    0 -0.14079207057E+02  0.14381755440E+02  0.98304890590E+01  0.22398604332E+02  0.00000000000E+00 0.  1.
         22    1    1    2    0    0 -0.14728512710E+02 -0.83352977255E+01  0.86206856304E+02  0.87852309865E+02  0.00000000000E+00 0.  1.
         22    1    1    2    0    0 -0.24566421253E+02  0.26964419215E+01 -0.41298921299E+02  0.48128793385E+02  0.00000000000E+00 0.  1.
</event>
<event>
 6    1  0.1726037E-005  0.1499404E+03  0.7818608E-02  0.1335463E+00
          2   -1    0    0  502    0  0.00000000000E+00  0.00000000000E+00  0.22234607450E+03  0.22234607450E+03  0.00000000000E+00 0.  1.
          1   -1    0    0  501    0 -0.00000000000E+00 -0.00000000000E+00 -0.25085457819E+03  0.25085457819E+03  0.00000000000E+00 0.  1.
          2    1    1    2  501    0 -0.12931320319E+03 -0.91690069152E+01  0.15746825758E+03  0.20396624072E+03  0.00000000000E+00 0.  1.
          1    1    1    2  502    0  0.17136966251E+02 -0.18832048964E+02 -0.32685629561E+02  0.41432741404E+02  0.00000000000E+00 0.  1.
         22    1    1    2    0    0  0.12052355343E+03  0.34946457389E+02 -0.16789132803E+03  0.20960601099E+03  0.00000000000E+00 0.  1.
         22    1    1    2    0    0 -0.83473164904E+01 -0.69454015104E+01  0.14600196318E+02  0.18195659572E+02  0.00000000000E+00 0.  1.
</event>
<event>
 6    1  0.1726037E-005  0.1521847E+03  0.7818608E-02  0.1231561E+00
          2   -1    0    0  502    0  0.00000000000E+00  0.00000000000E+00  0.11711580313E+04  0.11711580313E+04  0.00000000000E+00 0.  1.
          1   -1    0    0  501    0 -0.00000000000E+00 -0.00000000000E+00 -0.11755557428E+03  0.11755557428E+03  0.00000000000E+00 0.  1.
          2    1    1    2  501    0  0.67894916881E+02 -0.13476356555E+03  0.97284080284E+03  0.98447456341E+03  0.00000000000E+00 0.  1.
          1    1    1    2  502    0  0.58884732689E+02  0.91818822087E+01  0.60130625303E+02  0.84660562272E+02  0.00000000000E+00 0.  1.
         22    1    1    2    0    0 -0.13766889604E+03  0.12449566533E+03 -0.11169224802E+02  0.18594796908E+03  0.00000000000E+00 0.  1.
         22    1    1    2    0    0  0.10889246467E+02  0.10860180148E+01  0.31800253663E+02  0.33630510801E+02  0.00000000000E+00 0.  1.
</event>
<event>
 6    1  0.1726037E-005  0.1056341E+03  0.7818608E-02  0.1305313E+00
          2   -1    0    0  502    0  0.00000000000E+00  0.00000000000E+00  0.28049773239E+02  0.28049773239E+02  0.00000000000E+00 0. -1.
          1   -1    0    0  501    0 -0.00000000000E+00 -0.00000000000E+00 -0.87016336853E+03  0.87016336853E+03  0.00000000000E+00 0. -1.
          2    1    1    2  501    0  0.74906555885E+02  0.42498038998E+02 -0.36623636047E+03  0.37622619149E+03  0.00000000000E+00 0. -1.
          1    1    1    2  502    0 -0.52584211608E+02 -0.61071426467E+02 -0.23347639088E+03  0.24699401519E+03  0.00000000000E+00 0. -1.
         22    1    1    2    0    0 -0.52680464679E+02 -0.25123848705E+02 -0.19563087347E+03  0.20415160491E+03  0.00000000000E+00 0.  1.
         22    1    1    2    0    0  0.30358120402E+02  0.43697236174E+02 -0.46769970471E+02  0.70841330179E+02  0.00000000000E+00 0. -1.
</event>
<event>
 6    1  0.1726037E-005  0.1960424E+02  0.7818608E-02  0.1754360E+00
          2   -1    0    0  502    0  0.00000000000E+00  0.00000000000E+00  0.12151634900E+03  0.12151634900E+03  0.00000000000E+00 0. -1.
          1   -1    0    0  501    0 -0.00000000000E+00 -0.00000000000E+00 -0.12951189614E+03  0.12951189614E+03  0.00000000000E+00 0. -1.
          2    1    1    2  501    0  0.18089196104E+01  0.23290242761E+02  0.35142711609E+02  0.42198551839E+02  0.00000000000E+00 0. -1.
          1    1    1    2  502    0 -0.18433092782E+01 -0.28422634702E+02 -0.75783587495E+02  0.80959224836E+02  0.00000000000E+00 0. -1.
         22    1    1    2    0    0  0.14242097407E+02  0.39269096062E+01 -0.45808270503E+02  0.48131648674E+02  0.00000000000E+00 0. -1.
         22    1    1    2    0    0 -0.14207707739E+02  0.12054823345E+01  0.78453599247E+02  0.79738819790E+02  0.00000000000E+00 0. -1.
</event>
<event>
 6    1  0.1726037E-005  0.8530982E+02  0.7818608E-02  0.1357535E+00
          2   -1    0    0  502    0  0.00000000000E+00  0.00000000000E+00  0.23524295304E+03  0.23524295304E+03  0.00000000000E+00 0. -1.
          1   -1    0    0  501    0 -0.00000000000E+00 -0.00000000000E+00 -0.14716228485E+03  0.14716228485E+03  0.00000000000E+00 0. -1.
          2    1    1    2  501    0  0.59413166511E+02  0.74842700924E+01  0.11654663659E+03  0.13103074889E+03  0.00000000000E+00 0. -1.
          1    1    1    2  502    0 -0.57117317984E+02  0.15085200267E+02 -0.90803139053E+02  0.10832894970E+03  0.00000000000E+00 0. -1.
         22    1    1    2    0    0  0.23209138891E+02  0.87279486077E+01  0.90489787239E+02  0.93825597837E+02  0.00000000000E+00 0. -1.
         22    1    1    2    0    0 -0.25504987418E+02 -0.31297418967E+02 -0.28152616584E+02  0.49219941464E+02  0.00000000000E+00 0. -1.
</event>
<event>
 6    1  0.1726037E-005  0.8625624E+02  0.7818608E-02  0.1326970E+00
          2   -1    0    0  502    0  0.00000000000E+00  0.00000000000E+00  0.34995779049E+03  0.34995779049E+03  0.00000000000E+00 0.  1.
          1   -1    0    0  501    0 -0.00000000000E+00 -0.00000000000E+00 -0.29519320989E+03  0.29519320989E+03  0.00000000000E+00 0.  1.
          2    1    1    2  501    0  0.51694901690E+02  0.21437833563E+03  0.11915296786E+03  0.25065486909E+03  0.00000000000E+00 0.  1.
          1    1    1    2  502    0 -0.10019766632E+03 -0.17560065417E+03  0.53096494588E+02  0.20903205453E+03  0.00000000000E+00 0.  1.
         22    1    1    2    0    0  0.25039494777E+02 -0.24915782234E+02 -0.14350277147E+03  0.14778639288E+03  0.00000000000E+00 0.  1.
         22    1    1    2    0    0  0.23463269851E+02 -0.13861899223E+02  0.26017889628E+02  0.37677683884E+02  0.00000000000E+00 0. -1.
</event>
<event>
 6    1  0.1726037E-005  0.1886466E+03  0.7818608E-02  0.1161946E+00
          2   -1    0    0  502    0  0.00000000000E+00  0.00000000000E+00  0.13227154183E+03  0.13227154183E+03  0.00000000000E+00 0. -1.
          1   -1    0    0  501    0 -0.00000000000E+00 -0.00000000000E+00 -0.46592798373E+03  0.46592798373E+03  0.00000000000E+00 0.  1.
          2    1    1    2  501    0  0.29763633936E+02  0.15583690145E+03  0.33581581343E+02  0.16216885140E+03  0.00000000000E+00 0. -1.
          1    1    1    2  502    0 -0.10813810810E+02 -0.92178110148E+02 -0.12444859371E+03  0.15524559566E+03  0.00000000000E+00 0.  1.
         22    1    1    2    0    0 -0.31448019393E+02 -0.79663666883E+02 -0.24576564305E+03  0.26026146285E+03  0.00000000000E+00 0.  1.
         22    1    1    2    0    0  0.12498196267E+02  0.16004875580E+02  0.29762135256E+01  0.20523615647E+02  0.00000000000E+00 0. -1.
</event>
<event>
 6    1  0.1726037E-005  0.5968685E+02  0.7818608E-02  0.1437219E+00
          2   -1    0    0  502    0  0.00000000000E+00  0.00000000000E+00  0.37320803650E+03  0.37320803650E+03  0.00000000000E+00 0.  1.
          1   -1    0    0  501    0 -0.00000000000E+00 -0.00000000000E+00 -0.13407120441E+03  0.13407120441E+03  0.00000000000E+00 0. -1.
          2    1    1    2  501    0  0.11828598815E+03 -0.65599842901E+02  0.21694036066E+03  0.25565217477E+03  0.00000000000E+00 0.  1.
          1    1    1    2  502    0 -0.10231016365E+03  0.28950146064E+02 -0.31113573019E+02  0.11078598724E+03  0.00000000000E+00 0. -1.
         22    1    1    2    0    0 -0.18499976332E+02  0.21144679359E+02 -0.38519797043E+02  0.47677262440E+02  0.00000000000E+00 0. -1.
         22    1    1    2    0    0  0.25241518388E+01  0.15505017478E+02  0.91829841486E+02  0.93163816457E+02  0.00000000000E+00 0. -1.
</event>
<event>
 6    1  0.1726037E-005  0.3867104E+02  0.7818608E-02  0.1609583E+00
          2   -1    0    0  502    0  0.00000000000E+00  0.00000000000E+00  0.26813039970E+02  0.26813039970E+02  0.00000000000E+00 0.  1.
          1   -1    0    0  501    0 -0.00000000000E+00 -0.00000000000E+00 -0.36685604895E+03  0.36685604895E+03  0.00000000000E+00 0.  1.
          2    1    1    2  501    0 -0.65284306094E+01  0.22196755625E+02 -0.65031000533E+02  0.69024252237E+02  0.00000000000E+00 0.  1.
          1    1    1    2  502    0 -0.34196923998E+02 -0.49653415729E+01 -0.95224419344E+02  0.10130041593E+03  0.00000000000E+00 0.  1.
         22    1    1    2    0    0  0.16462532361E+01  0.12094006943E+02  0.16805954494E+02  0.20770538272E+02  0.00000000000E+00 0.  1.
         22    1    1    2    0    0  0.39079101372E+02 -0.29325420995E+02 -0.19659354360E+03  0.20257388249E+03  0.00000000000E+00 0.  1.
</event>
<event>
 6    1  0.1726037E-005  0.9159011E+02  0.7818608E-02  0.1392359E+00
          2   -1    0    0  502    0  0.00000000000E+00  0.00000000000E+00  0.57547876113E+02  0.57547876113E+02  0.00000000000E+00 0.  1.
          1   -1    0    0  501    0 -0.00000000000E+00 -0.00000000000E+00 -0.71082245700E+03  0.71082245700E+03  0.00000000000E+00 0.  1.
          2    1    1    2  501    0  0.10463754392E+03  0.36206839705E+02 -0.76874732881E+02  0.13479493831E+03  0.00000000000E+00 0.  1.
          1    1    1    2  502    0 -0.54090015197E+02 -0.97643454774E+02 -0.19919910647E+03  0.22834241398E+03  0.00000000000E+00 0.  1.
         22    1    1    2    0    0 -0.60191326629E+02  0.49144869599E+02 -0.38125406220E+03  0.38909237200E+03  0.00000000000E+00 0.  1.
         22    1    1    2    0    0  0.96437979112E+01  0.12291745470E+02  0.40533206573E+01  0.16140608824E+02  0.00000000000E+00 0. -1.
</event>
<event>
 6    1  0.1726037E-005  0.1149122E+03  0.7818608E-02  0.1272403E+00
          2   -1    0    0  502    0  0.00000000000E+00  0.00000000000E+00  0.38486503372E+02  0.38486503372E+02  0.00000000000E+00 0. -1.
          1   -1    0    0  501    0 -0.00000000000E+00 -0.00000000000E+00 -0.12755449016E+04  0.12755449016E+04  0.00000000000E+00 0. -1.
          2    1    1    2  501    0 -0.61340170028E+02 -0.26077471315E+01 -0.32488513616E+02  0.69461646404E+02  0.00000000000E+00 0. -1.
          1    1    1    2  502    0  0.85502255771E+02 -0.10443870469E+03 -0.70176814968E+03  0.71463040425E+03  0.00000000000E+00 0. -1.
         22    1    1    2    0    0 -0.11877915100E+02  0.11585836405E+01  0.35797039564E+01  0.12459593235E+02  0.00000000000E+00 0.  1.
         22    1    1    2    0    0 -0.12284170644E+02  0.10588786818E+03 -0.50638143892E+03  0.51747976111E+03  0.00000000000E+00 0. -1.
</event>
<event>
 6    1  0.1726037E-005  0.5445013E+02  0.7818608E-02  0.1468719E+00
          2   -1    0    0  502    0  0.00000000000E+00  0.00000000000E+00  0.72184798917E+03  0.72184798917E+03  0.00000000000E+00 0.  1.
          1   -1    0    0  501    0 -0.00000000000E+00 -0.00000000000E+00 -0.35359791293E+03  0.35359791293E+03  0.00000000000E+00 0.  1.
          2    1    1    2  501    0 -0.36731537801E+02  0.74444754380E+02  0.62990306284E+03  0.63534958559E+03  0.00000000000E+00 0.  1.
          1    1    1    2  502    0 -0.22109946333E+02 -0.69010290570E+02 -0.28884882748E+03  0.29780012604E+03  0.00000000000E+00 0.  1.
         22    1    1    2    0    0  0.19893381666E+02 -0.10478525632E+01  0.76648528690E+02  0.79194959306E+02  0.00000000000E+00 0. -1.
         22    1    1    2    0    0  0.38948102468E+02 -0.43866112469E+01 -0.49452687804E+02  0.63101231169E+02  0.00000000000E+00 0.  1.
</event>
