<event>
 6    1  0.2144783E-005  0.5752472E+02  0.7818608E-02  0.1498715E+00
          2   -1    0    0  502    0  0.00000000000E+00  0.00000000000E+00  0.59689040130E+02  0.59689040130E+02  0.00000000000E+00 0.  1.
          1   -1    0    0  501    0 -0.00000000000E+00 -0.00000000000E+00 -0.30954826390E+03  0.30954826390E+03  0.00000000000E+00 0.  1.
          2    1    1    2  501    0 -0.33412286296E+02  0.24582016880E+02 -0.11550323264E+03  0.12272592709E+03  0.00000000000E+00 0.  1.
          1    1    1    2  502    0 -0.16803713675E+02 -0.42072188190E+02  0.11161203312E+02  0.46658399798E+02  0.00000000000E+00 0.  1.
         22    1    1    2    0    0  0.63517215347E+02  0.99012412289E+01 -0.16382424297E+03  0.17598537953E+03  0.00000000000E+00 0.  1.
         22    1    1    2    0    0 -0.13301215375E+02  0.75889300812E+01  0.18307048526E+02  0.23867597617E+02  0.00000000000E+00 0.  1.
</event>
<event>
 6    1  0.2144783E-005  0.1021219E+03  0.7818608E-02  0.1344145E+00
          2   -1    0    0  502    0  0.00000000000E+00  0.00000000000E+00  0.17665188716E+03  0.17665188716E+03  0.00000000000E+00 0.  1.
          1   -1    0    0  501    0 -0.00000000000E+00 -0.00000000000E+00 -0.12784747778E+03  0.12784747778E+03  0.00000000000E+00 0. -1.
          2    1    1    2  501    0  0.68765175172E+01 -0.22497255083E+02  0.96362632118E+02  0.99192589683E+02  0.00000000000E+00 0.  1.
          1    1    1    2  502    0  0.36406057411E+02  0.50035033802E+02 -0.27492235428E+02  0.67710624223E+02  0.00000000000E+00 0. -1.
         22    1    1    2    0    0 -0.24270122654E+02 -0.48914870541E+01 -0.72933619440E+02  0.77021285005E+02  0.00000000000E+00 0. -1.
         22    1    1    2    0    0 -0.19012452274E+02 -0.22646291665E+02  0.52867632134E+02  0.60574866035E+02  0.00000000000E+00 0. -1.
</event>
<event>
 6    1  0.2144783E-005  0.1685947E+03  0.7818608E-02  0.1249868E+00
          2   -1    0    0  502    0  0.00000000000E+00  0.00000000000E+00  0.48180563163E+03  0.48180563163E+03  0.00000000000E+00 0.  1.
          1   -1    0    0  501    0 -0.00000000000E+00 -0.00000000000E+00 -0.55236159703E+03  0.55236159703E+03  0.00000000000E+00 0.  1.
          2    1    1    2  501    0 -0.15144031736E+03 -0.61686737852E+02  0.38984097863E+03  0.42274745649E+03  0.00000000000E+00 0.  1.
          1    1    1    2  502    0  0.12775960284E+03  0.83564818675E+02 -0.45388052269E+03  0.47886649905E+03  0.00000000000E+00 0.  1.
         22    1    1    2    0    0  0.88056870054E+01  0.12835181694E+02 -0.62840585947E+02  0.64739642067E+02  0.00000000000E+00 0.  1.
         22    1    1    2    0    0  0.14875027513E+02 -0.34713262518E+02  0.56324164611E+02  0.67813631058E+02  0.00000000000E+00 0.  1.
</event>
<event>
 6    1  0.2144783E-005  0.4986255E+02  0.7818608E-02  0.1475241E+00
          2   -1    0    0  502    0  0.00000000000E+00  0.00000000000E+00  0.22582995867E+03  0.22582995867E+03  0.00000000000E+00 0. -1.
          1   -1    0    0  501    0 -0.00000000000E+00 -0.00000000000E+00 -0.25407347106E+03  0.25407347106E+03  0.00000000000E+00 0. -1.
          2    1    1    2  501    0 -0.49924564493E+02 -0.87846047753E+02  0.12349342079E+03  0.15956194792E+03  0.00000000000E+00 0. -1.
          1    1    1    2  502    0  0.72051893711E+02  0.73331781463E+02 -0.16518655138E+03  0.19456521353E+03  0.00000000000E+00 0. -1.
         22    1    1    2    0    0  0.69153296014E+01  0.17692756072E+02  0.64345472803E+02  0.67090947759E+02  0.00000000000E+00 0. -1.
         22    1    1    2    0    0 -0.29042658820E+02 -0.31784897824E+01 -0.50895854601E+02  0.58685320517E+02  0.00000000000E+00 0.  1.
</event>
<event>
 6    1  0.2144783E-005  0.4434826E+02  0.7818608E-02  0.1485881E+00
          2   -1    0    0  502    0  0.00000000000E+00  0.00000000000E+00  0.11208919340E+03  0.11208919340E+03  0.00000000000E+00 0. -1.
          1   -1    0    0  501    0 -0.00000000000E+00 -0.00000000000E+00 -0.51741264979E+03  0.51741264979E+03  0.00000000000E+00 0.  1.
          2    1    1    2  501    0 -0.67979162379E+02  0.65052054710E+02 -0.14222531523E+02  0.95158902593E+02  0.00000000000E+00 0. -1.
          1    1    1    2  502    0  0.83707408632E+02 -0.38164255434E+02 -0.39903559433E+03  0.40950316994E+03  0.00000000000E+00 0.  1.
         22    1    1    2    0    0 -0.17559122133E+02 -0.91355560443E+01  0.63481871017E+02  0.66496083360E+02  0.00000000000E+00 0. -1.
         22    1    1    2    0    0  0.18308758798E+01 -0.17752243232E+02 -0.55547201561E+02  0.58343687298E+02  0.00000000000E+00 0. -1.
</event>
<event>
 6    1  0.2144783E-005  0.4772859E+02  0.7818608E-02  0.1501116E+00
          2   -1    0    0  502    0  0.00000000000E+00  0.00000000000E+00  0.73064052739E+02  0.73064052739E+02  0.00000000000E+00 0.  1.
          1   -1    0    0  501    0 -0.00000000000E+00 -0.00000000000E+00 -0.20793000753E+03  0.20793000753E+03  0.00000000000E+00 0. -1.
          2    1    1    2  501    0 -0.40743847661E+02 -0.74781584651E+01  0.88763466994E+01  0.42364767284E+02  0.00000000000E+00 0.  1.
          1    1    1    2  502    0  0.29411101391E+02 -0.77246007911E+01 -0.99923640780E+02  0.10444815139E+03  0.00000000000E+00 0. -1.
         22    1    1    2    0    0  0.14557535939E+02 -0.10536661136E+02 -0.84249060911E+02  0.86144340179E+02  0.00000000000E+00 0. -1.
         22    1    1    2    0    0 -0.32247896685E+01  0.25739420392E+02  0.40430400196E+02  0.48036801419E+02  0.00000000000E+00 0.  1.
</event>
<event>
 6    1  0.2144783E-005  0.5731423E+02  0.7818608E-02  0.1422094E+00
          2   -1    0    0  502    0  0.00000000000E+00  0.00000000000E+00  0.25039550794E+03  0.25039550794E+03  0.00000000000E+00 0. -1.
          1   -1    0    0  501    0 -0.00000000000E+00 -0.00000000000E+00 -0.45360167562E+02  0.45360167562E+02  0.00000000000E+00 0.  1.
          2    1    1    2  501    0  0.34998194116E+02 -0.36321577236E+00  0.55712423601E+01  0.35440714701E+02  0.00000000000E+00 0. -1.
          1    1    1    2  502    0 -0.22455053099E+02 -0.21770862000E+02  0.14738300186E+02  0.34574807798E+02  0.00000000000E+00 0.  1.
         22    1    1    2    0    0  0.22535690166E+02 -0.93517455087E+01 -0.92693753559E+01  0.26100455835E+02  0.00000000000E+00 0.  1.
         22    1    1    2    0    0 -0.35078831184E+02  0.31485823281E+02  0.19399517319E+03  0.19963969717E+03  0.00000000000E+00 0. -1.
</event>
<event>
 6    1  0.2144783E-005  0.5588917E+02  0.7818608E-02  0.1528471E+00
          2   -1    0    0  502    0  0.00000000000E+00  0.00000000000E+00  0.24907488203E+03  0.24907488203E+03  0.00000000000E+00 0.  1.
          1   -1    0    0  501    0 -0.00000000000E+00 -0.00000000000E+00 -0.17294027098E+03  0.17294027098E+03  0.00000000000E+00 0.  1.
          2    1    1    2  501    0 -0.49636688682E+02 -0.88256354811E+01  0.18096488422E+03  0.18785628024E+03  0.00000000000E+00 0.  1.
          1    1    1    2  502    0  0.36023420608E+02 -0.10425672663E+02 -0.98386597307E+02  0.10529151919E+03  0.00000000000E+00 0.  1.
         22    1    1    2    0    0 -0.21326524325E+01  0.10971523032E+02  0.59513068259E+02  0.60553512017E+02  0.00000000000E+00 0. -1.
         22    1    1    2    0    0  0.15745920506E+02  0.82797851128E+01 -0.65956744126E+02  0.68313841568E+02  0.00000000000E+00 0.  1.
</event>
<event>
 6    1  0.2144783E-005  0.3734772E+02  0.7818608E-02  0.1539880E+00
          2   -1    0    0  502    0  0.00000000000E+00  0.00000000000E+00  0.59516871267E+02  0.59516871267E+02  0.00000000000E+00 0. -1.
          1   -1    0    0  501    0 -0.00000000000E+00 -0.00000000000E+00 -0.24146092877E+03  0.24146092877E+03  0.00000000000E+00 0. -1.
          2    1    1    2  501    0  0.48845185844E+02  0.50087163269E+01 -0.49092407557E+02  0.69433449425E+02  0.00000000000E+00 0. -1.
          1    1    1    2  502    0 -0.20580312815E+02  0.62558701823E+01 -0.10029298931E+03  0.10257372418E+03  0.00000000000E+00 0. -1.
         22    1    1    2    0    0 -0.72089045971E+01  0.13160472099E+02 -0.74538779864E+02  0.76034176756E+02  0.00000000000E+00 0. -1.
         22    1    1    2    0    0 -0.21055968431E+02 -0.24425058609E+02  0.41980119224E+02  0.52936449679E+02  0.00000000000E+00 0. -1.
</event>
<event>
 6    1  0.2144783E-005  0.1323378E+03  0.7818608E-02  0.1236282E+00
          2   -1    0    0  502    0  0.00000000000E+00  0.00000000000E+00  0.35161022805E+02  0.35161022805E+02  0.00000000000E+00 0. -1.
          1   -1    0    0  501    0 -0.00000000000E+00 -0.00000000000E+00 -0.11090078903E+04  0.11090078903E+04  0.00000000000E+00 0. -1.
          2    1    1    2  501    0 -0.12261205248E+03 -0.52677133555E+01 -0.55474330751E+03  0.56815631779E+03  0.00000000000E+00 0. -1.
          1    1    1    2  502    0  0.84758695955E+02  0.58782209281E+02 -0.18247565126E+03  0.20961094430E+03  0.00000000000E+00 0. -1.
         22    1    1    2    0    0  0.38335631117E+02 -0.95340002394E+02 -0.24505942546E+03  0.26573193010E+03  0.00000000000E+00 0. -1.
         22    1    1    2    0    0 -0.48227459120E+00  0.41825506469E+02 -0.91568483245E+02  0.10066972089E+03  0.00000000000E+00 0. -1.
</event>
<event>
 6    1  0.2144783E-005  0.2621348E+02  0.7818608E-02  0.1672724E+00
          2   -1    0    0  502    0  0.00000000000E+00  0.00000000000E+00  0.17632625861E+03  0.17632625861E+03  0.00000000000E+00 0.  1.
          1   -1    0    0  501    0 -0.00000000000E+00 -0.00000000000E+00 -0.37200127693E+03  0.37200127693E+03  0.00000000000E+00 0. -1.
          2    1    1    2  501    0  0.17177909937E+02  0.36087387867E+02  0.87662028039E+02  0.96343195467E+02  0.00000000000E+00 0.  1.
          1    1    1    2  502    0 -0.15063964125E+02 -0.18200880996E+02 -0.32250229476E+03  0.32336654930E+03  0.00000000000E+00 0. -1.
         22    1    1    2    0    0  0.12352822154E+02 -0.16041830737E+02 -0.41749145820E+02  0.46399609107E+02  0.00000000000E+00 0.  1.
         22    1    1    2    0    0 -0.14466767967E+02 -0.18446761348E+01  0.80914394210E+02  0.82218181662E+02  0.00000000000E+00 0.  1.
</event>
<event>
 6    1  0.2144783E-005  0.6535888E+02  0.7818608E-02  0.1469792E+00
          2   -1    0    0  502    0  0.00000000000E+00  0.00000000000E+00  0.12247342503E+03  0.12247342503E+03  0.00000000000E+00 0.  1.
          1   -1    0    0  501    0 -0.00000000000E+00 -0.00000000000E+00 -0.15248161559E+03  0.15248161559E+03  0.00000000000E+00 0. -1.
          2    1    1    2  501    0  0.30226482045E+02 -0.45014823169E+02  0.45219486199E+02  0.70602949328E+02  0.00000000000E+00 0.  1.
          1    1    1    2  502    0 -0.13487921354E+02  0.39210912119E+02 -0.63644068420E+02  0.75960431125E+02  0.00000000000E+00 0. -1.
         22    1    1    2    0    0 -0.65361427891E+01 -0.14245398566E+02  0.55482197354E+02  0.57653506104E+02  0.00000000000E+00 0.  1.
         22    1    1    2    0    0 -0.10202417901E+02  0.20049309616E+02 -0.67065805688E+02  0.70738154059E+02  0.00000000000E+00 0. -1.
</event>
<event>
 6    1  0.2144783E-005  0.8214044E+02  0.7818608E-02  0.1405026E+00
          2   -1    0    0  502    0  0.00000000000E+00  0.00000000000E+00  0.72538357215E+02  0.72538357215E+02  0.00000000000E+00 0. -1.
          1   -1    0    0  501    0 -0.00000000000E+00 -0.00000000000E+00 -0.27130026776E+03  0.27130026776E+03  0.00000000000E+00 0. -1.
          2    1    1    2  501    0 -0.34509204393E+02 -0.64907762520E+02  0.16410387371E+02  0.75320672042E+02  0.00000000000E+00 0. -1.
          1    1    1    2  502    0  0.12791800441E+02  0.24643540904E+02 -0.52142086068E+02  0.59073948626E+02  0.00000000000E+00 0. -1.
         22    1    1    2    0    0  0.16868861471E+02 -0.12291418716E+02  0.13722962230E+02  0.24979134367E+02  0.00000000000E+00 0.  1.
         22    1    1    2    0    0  0.48485424810E+01  0.52555640332E+02 -0.17675317408E+03  0.18446486994E+03  0.00000000000E+00 0. -1.
</event>
<event>
 6    1  0.2144783E-005  0.1180738E+03  0.7818608E-02  0.1341835E+00
          2   -1    0    0  502    0  0.00000000000E+00  0.00000000000E+00  0.50840858197E+02  0.50840858197E+02  0.00000000000E+00 0. -1.
          1   -1    0    0  501    0 -0.00000000000E+00 -0.00000000000E+00 -0.55915373427E+03  0.55915373427E+03  0.00000000000E+00 0. -1.
          2    1    1    2  501    0 -0.60366728086E+02 -0.68459852160E+02 -0.29857465859E+02  0.96033127019E+02  0.00000000000E+00 0. -1.
          1    1    1    2  502    0 -0.91296056106E+01  0.25917646298E+02 -0.14266982232E+03  0.14529195535E+03  0.00000000000E+00 0. -1.
         22    1    1    2    0    0 -0.15520923177E+02  0.12467763000E+02  0.10843113431E+01  0.19937901133E+02  0.00000000000E+00 0. -1.
         22    1    1    2    0    0  0.85017256874E+02  0.30074442861E+02 -0.33686989924E+03  0.34873160896E+03  0.00000000000E+00 0. -1.
</event>
<event>
 6    1  0.2144783E-005  0.7432448E+02  0.7818608E-02  0.1359345E+00
          2   -1    0    0  502    0  0.00000000000E+00  0.00000000000E+00  0.19152914019E+02  0.19152914019E+02  0.00000000000E+00 0.  1.
          1   -1    0    0  501    0 -0.00000000000E+00 -0.00000000000E+00 -0.68589316921E+03  0.68589316921E+03  0.00000000000E+00 0.  1.
          2    1    1    2  501    0  0.44938318106E+02  0.30066764365E+02 -0.20676777269E+03  0.21372031858E+03  0.00000000000E+00 0.  1.
          1    1    1    2  502    0  0.16420490353E+02 -0.19730287526E+02 -0.33502181000E+02  0.42205602485E+02  0.00000000000E+00 0.  1.
         22    1    1    2    0    0 -0.72571700368E+02  0.40824436200E+02 -0.19938729261E+03  0.21607540059E+03  0.00000000000E+00 0.  1.
         22    1    1    2    0    0  0.11212891909E+02 -0.51160913039E+02 -0.22708300890E+03  0.23304476158E+03  0.00000000000E+00 0.  1.
</event>
<event>
 6    1  0.2144783E-005  0.1404412E+03  0.7818608E-02  0.1291749E+00
          2   -1    0    0  502    0  0.00000000000E+00  0.00000000000E+00  0.11442625213E+03  0.11442625213E+03  0.00000000000E+00 0.  1.
          1   -1    0    0  501    0 -0.00000000000E+00 -0.00000000000E+00 -0.19838610592E+03  0.19838610592E+03  0.00000000000E+00 0.  1.
          2    1    1    2  501    0  0.77640713192E+02 -0.56911516391E+02 -0.55632232326E+02  0.11118428988E+03  0.00000000000E+00 0.  1.
          1    1    1    2  502    0 -0.56142540680E+02 -0.71382965794E+01 -0.52932462617E+01  0.56841521866E+02  0.00000000000E+00 0.  1.
         22    1    1    2    0    0 -0.38376311196E+02  0.87744418062E+02 -0.47383027477E+02  0.10685024780E+03  0.00000000000E+00 0.  1.
         22    1    1    2    0    0  0.16878138683E+02 -0.23694605092E+02  0.24348652273E+02  0.37936298494E+02  0.00000000000E+00 0. -1.
</event>
<event>
 6    1  0.2144783E-005  0.2603262E+02  0.7818608E-02  0.1724686E+00
          2   -1    0    0  502    0  0.00000000000E+00  0.00000000000E+00  0.12350955421E+04  0.12350955421E+04  0.00000000000E+00 0. -1.
          1   -1    0    0  501    0 -0.00000000000E+00 -0.00000000000E+00 -0.12127327322E+03  0.12127327322E+03  0.00000000000E+00 0.  1.
          2    1    1    2  501    0  0.11718759056E+02  0.21871120786E+02  0.99897845800E+03  0.99928656290E+03  0.00000000000E+00 0. -1.
          1    1    1    2  502    0 -0.11083347594E+02  0.25745273849E+02 -0.10116644988E+03  0.10497766573E+03  0.00000000000E+00 0.  1.
         22    1    1    2    0    0 -0.10198355347E+02 -0.41804917067E+02  0.23011284425E+03  0.23410164167E+03  0.00000000000E+00 0.  1.
         22    1    1    2    0    0  0.95629438845E+01 -0.58114775675E+01 -0.14102583510E+02  0.18002945007E+02  0.00000000000E+00 0.  1.
</event>
<event>
 6    1  0.2144783E-005  0.1801083E+03  0.7818608E-02  0.1242389E+00
          2   -1    0    0  502    0  0.00000000000E+00  0.00000000000E+00  0.60250158347E+03  0.60250158347E+03  0.00000000000E+00 0.  1.
          1   -1    0    0  501    0 -0.00000000000E+00 -0.00000000000E+00 -0.78287744762E+02  0.78287744762E+02  0.00000000000E+00 0.  1.
          2    1    1    2  501    0 -0.14108596693E+03 -0.56668148555E+02  0.13141335871E+03  0.20096268304E+03  0.00000000000E+00 0.  1.
          1    1    1    2  502    0  0.12262655125E+03  0.68009242818E+02  0.16334516461E+03  0.21527696342E+03  0.00000000000E+00 0.  1.
         22    1    1    2    0    0 -0.35872613090E+02 -0.30673716400E+01  0.19795784101E+03  0.20120526821E+03  0.00000000000E+00 0.  1.
         22    1    1    2    0    0  0.54332028777E+02 -0.82737226234E+01  0.31497474384E+02  0.63344413563E+02  0.00000000000E+00 0. -1.
</event>
<event>
 6    1  0.2144783E-005  0.1081332E+03  0.7818608E-02  0.1297623E+00
          2   -1    0    0  502    0  0.00000000000E+00  0.00000000000E+00  0.13942669339E+03  0.13942669339E+03  0.00000000000E+00 0. -1.
          1   -1    0    0  501    0 -0.00000000000E+00 -0.00000000000E+00 -0.17033667733E+03  0.17033667733E+03  0.00000000000E+00 0. -1.
          2    1    1    2  501    0  0.15550846546E+01 -0.67786082187E+02 -0.84905577620E+02  0.10865692954E+03  0.00000000000E+00 0. -1.
          1    1    1    2  502    0  0.41075778804E+02  0.22354032709E+01  0.20014658069E+02  0.45747165702E+02  0.00000000000E+00 0. -1.
         22    1    1    2    0    0 -0.54357372860E+02 -0.17615304680E+02  0.42106152838E+02  0.70978525274E+02  0.00000000000E+00 0. -1.
         22    1    1    2    0    0  0.11726509402E+02  0.83165983596E+02 -0.81252172241E+01  0.84380750205E+02  0.00000000000E+00 0.  1.
</event>
<event>
 6    1  0.2144783E-005  0.1909528E+02  0.7818608E-02  0.1794582E+00
          2   -1    0    0  502    0  0.00000000000E+00  0.00000000000E+00  0.10215618439E+03  0.10215618439E+03  0.00000000000E+00 0.  1.
          1   -1    0    0  501    0 -0.00000000000E+00 -0.00000000000E+00 -0.14111372329E+03  0.14111372329E+03  0.00000000000E+00 0.  1.
          2    1    1    2  501    0 -0.43884882323E+01 -0.26425153151E+02 -0.13434597526E+02  0.29967248100E+02  0.00000000000E+00 0.  1.
          1    1    1    2  502    0  0.89278537239E+01  0.24096885949E+02 -0.74685842400E+02  0.78983172509E+02  0.00000000000E+00 0.  1.
         22    1    1    2    0    0 -0.10523205950E+02  0.13436550263E+02  0.89986416453E+02  0.91590577531E+02  0.00000000000E+00 0.  1.
         22    1    1    2    0    0  0.59838404586E+01 -0.11108283061E+02 -0.40823515426E+02  0.42728909545E+02  0.00000000000E+00 0. -1.
</event>
<event>
 6    1  0.2144783E-005  0.5057711E+02  0.7818608E-02  0.1531361E+00
          2   -1    0    0  502    0  0.00000000000E+00  0.00000000000E+00  0.57524891997E+03  0.57524891997E+03  0.00000000000E+00 0.  1.
          1   -1    0    0  501    0 -0.00000000000E+00 -0.00000000000E+00 -0.27444372400E+03  0.27444372400E+03  0.00000000000E+00 0.  1.
          2    1    1    2  501    0 -0.62875040787E+02 -0.79674776474E+01  0.49187791769E+03  0.49594418775E+03  0.00000000000E+00 0.  1.
          1    1    1    2  502    0  0.35618599248E+02  0.14894972206E+01 -0.22056090539E+03  0.22342340120E+03  0.00000000000E+00 0.  1.
         22    1    1    2    0    0  0.14075710177E+02  0.35527935102E+01  0.78323620537E+02  0.79657626708E+02  0.00000000000E+00 0. -1.
         22    1    1    2    0    0  0.13180731362E+02  0.29251869166E+01 -0.48835436869E+02  0.50667428314E+02  0.00000000000E+00 0.  1.
</event>
<event>
 6    1  0.2144783E-005  0.9573055E+02  0.7818608E-02  0.1401348E+00
          2   -1    0    0  502    0  0.00000000000E+00  0.00000000000E+00  0.63689300143E+02  0.63689300143E+02  0.00000000000E+00 0.  1.
          1   -1    0    0  501    0 -0.00000000000E+00 -0.00000000000E+00 -0.74466367470E+03  0.74466367470E+03  0.00000000000E+00 0.  1.
          2    1    1    2  501    0  0.97426688792E+02  0.12614143704E+03 -0.42954146055E+03  0.45815880233E+03  0.00000000000E+00 0.  1.
          1    1    1    2  502    0 -0.25216482121E+02 -0.96413053883E+02 -0.89213229502E+02  0.13375480645E+03  0.00000000000E+00 0.  1.
         22    1    1    2    0    0 -0.81444657730E+02 -0.38512761324E+02 -0.17596955847E+03  0.19769104827E+03  0.00000000000E+00 0. -1.
         22    1    1    2    0    0  0.92344510598E+01  0.87843781622E+01  0.13749873962E+02  0.18748317792E+02  0.00000000000E+00 0.  1.
</event>
<event>
 6    1  0.2144783E-005  0.2249716E+02  0.7818608E-02  0.1716587E+00
          2   -1    0    0  502    0  0.00000000000E+00  0.00000000000E+00  0.25127930825E+03  0.25127930825E+03  0.00000000000E+00 0. -1.
          1   -1    0    0  501    0 -0.00000000000E+00 -0.00000000000E+00 -0.14368050786E+03  0.14368050786E+03  0.00000000000E+00 0.  1.
          2    1    1    2  501    0 -0.34190886320E+01 -0.24151189519E+02  0.13866125907E+03  0.14079032243E+03  0.00000000000E+00 0. -1.
          1    1    1    2  502    0 -0.64483107953E+00  0.29890553294E+02 -0.10339498008E+03  0.10763077111E+03  0.00000000000E+00 0.  1.
         22    1    1    2    0    0  0.18087244705E+02 -0.19961200557E+00  0.10711355307E+03  0.10863011330E+03  0.00000000000E+00 0. -1.
         22    1    1    2    0    0 -0.14023324994E+02 -0.55397517691E+01 -0.34781031667E+02  0.37908609278E+02  0.00000000000E+00 0.  1.
</event>
<event>
 6    1  0.2144783E-005  0.2621618E+03  0.7818608E-02  0.1203997E+00
          2   -1    0    0  502    0  0.00000000000E+00  0.00000000000E+00  0.58335126097E+03  0.58335126097E+03  0.00000000000E+00 0. -1.
          1   -1    0    0  501    0 -0.00000000000E+00 -0.00000000000E+00 -0.30698410212E+03  0.30698410212E+03  0.00000000000E+00 0. -1.
          2    1    1    2  501    0  0.95538651249E+02 -0.23781333298E+03  0.42971179684E+03  0.50033493139E+03  0.00000000000E+00 0. -1.
          1    1    1    2  502    0 -0.10495013131E+03  0.10427943032E+03 -0.14491642231E+03  0.20709780082E+03  0.00000000000E+00 0. -1.
         22    1    1    2    0    0  0.75712571383E+01  0.24908885108E+02  0.52314131122E+02  0.58434106539E+02  0.00000000000E+00 0. -1.
         22    1    1    2    0    0  0.18402229227E+01  0.10862501755E+03 -0.60742346799E+02  0.12446852435E+03  0.00000000000E+00 0. -1.
</event>
<event>
 6    1  0.2144783E-005  0.5711845E+02  0.7818608E-02  0.1496743E+00
          2   -1    0    0  502    0  0.00000000000E+00  0.00000000000E+00  0.41498414314E+03  0.41498414314E+03  0.00000000000E+00 0.  1.
          1   -1    0    0  501    0 -0.00000000000E+00 -0.00000000000E+00 -0.20954485939E+03  0.20954485939E+03  0.00000000000E+00 0.  1.
          2    1    1    2  501    0 -0.41612328257E+02 -0.13860416791E+02  0.36584573907E+03  0.36846546896E+03  0.00000000000E+00 0.  1.
          1    1    1    2  502    0  0.39544303841E+02  0.23575369631E+02 -0.11532032852E+03  0.12417056088E+03  0.00000000000E+00 0.  1.
         22    1    1    2    0    0 -0.10860124272E+02 -0.16309001507E+00  0.41976509824E+02  0.43358923817E+02  0.00000000000E+00 0.  1.
         22    1    1    2    0    0  0.12928148687E+02 -0.95518628253E+01 -0.87062636626E+02  0.88534048864E+02  0.00000000000E+00 0.  1.
</event>
<event>
 6    1  0.2144783E-005  0.3444978E+02  0.7818608E-02  0.1577896E+00
          2   -1    0    0  502    0  0.00000000000E+00  0.00000000000E+00  0.55759829423E+02  0.55759829423E+02  0.00000000000E+00 0. -1.
          1   -1    0    0  501    0 -0.00000000000E+00 -0.00000000000E+00 -0.37280015757E+03  0.37280015757E+03  0.00000000000E+00 0. -1.
          2    1    1    2  501    0  0.14872747546E+01  0.42963552194E+02 -0.38083277612E+02  0.57431827735E+02  0.00000000000E+00 0. -1.
          1    1    1    2  502    0  0.35840920668E+02 -0.47961978838E+02 -0.21323151889E+03  0.22147822389E+03  0.00000000000E+00 0. -1.
         22    1    1    2    0    0 -0.22308135079E+02 -0.39302443827E+01 -0.10460231985E+03  0.10702684257E+03  0.00000000000E+00 0.  1.
         22    1    1    2    0    0 -0.15020060343E+02  0.89286710271E+01  0.38876788205E+02  0.42623092804E+02  0.00000000000E+00 0. -1.
</event>
<event>
 6    1  0.2144783E-005  0.2696232E+02  0.7818608E-02  0.1659243E+00
          2   -1    0    0  502    0  0.00000000000E+00  0.00000000000E+00  0.78599743706E+02  0.78599743706E+02  0.00000000000E+00 0. -1.
          1   -1    0    0  501    0 -0.00000000000E+00 -0.00000000000E+00 -0.14014418242E+03  0.14014418242E+03  0.00000000000E+00 0. -1.
          2    1    1    2  501    0  0.17508883337E+02  0.30688925747E+02  0.73054852027E+00  0.35339848052E+02  0.00000000000E+00 0. -1.
          1    1    1    2  502    0  0.32431349786E+01 -0.41200291479E+02 -0.37702593833E+02  0.55941643918E+02  0.00000000000E+00 0. -1.
         22    1    1    2    0    0 -0.12533134585E+02 -0.59367418748E+01 -0.73706874923E+02  0.75000185184E+02  0.00000000000E+00 0.  1.
         22    1    1    2    0    0 -0.82188837315E+01  0.16448107607E+02  0.49134481519E+02  0.52462248977E+02  0.00000000000E+00 0.  1.
</event>
<event>
 6    1  0.2144783E-005  0.8932116E+02  0.7818608E-02  0.1390502E+00
          2   -1    0    0  502    0  0.00000000000E+00  0.00000000000E+00  0.81164722599E+02  0.81164722599E+02  0.00000000000E+00 0.  1.
          1   -1    0    0  501    0 -0.00000000000E+00 -0.00000000000E+00 -0.86274094779E+03  0.86274094779E+03  0.00000000000E+00 0.  1.
          2    1    1    2  501    0  0.70767034319E+02 -0.25813708192E+02 -0.43160519713E+03  0.43812939512E+03  0.00000000000E+00 0.  1.
          1    1    1    2  502    0 -0.75963252271E+02  0.37405659873E+02 -0.36699115939E+03  0.37663259306E+03  0.00000000000E+00 0.  1.
         22    1    1    2    0    0  0.19964895343E+02 -0.44039530738E+01  0.70392355530E+02  0.73301265786E+02  0.00000000000E+00 0.  1.
         22    1    1    2    0    0 -0.14768677392E+02 -0.71879986075E+01 -0.53372224204E+02  0.55842416427E+02  0.00000000000E+00 0.  1.
</event>
<event>
 6    1  0.2144783E-005  0.3721711E+02  0.7818608E-02  0.1555447E+00
          2   -1    0    0  502    0  0.00000000000E+00  0.00000000000E+00  0.24276472813E+03  0.24276472813E+03  0.00000000000E+00 0. -1.
          1   -1    0    0  501    0 -0.00000000000E+00 -0.00000000000E+00 -0.15940924819E+03  0.15940924819E+03  0.00000000000E+00 0. -1.
          2    1    1    2  501    0  0.64794056279E+02  0.55437468787E+02  0.15989043360E+03  0.18120853576E+03  0.00000000000E+00 0. -1.
          1    1    1    2  502    0 -0.65562364571E+02 -0.24922327840E+02 -0.48856211963E+02  0.85477924170E+02  0.00000000000E+00 0. -1.
         22    1    1    2    0    0  0.69654282827E+01 -0.12169812668E+02 -0.79208253380E+02  0.80439846687E+02  0.00000000000E+00 0. -1.
         22    1    1    2    0    0 -0.61971199911E+01 -0.18345328280E+02  0.51529511686E+02  0.55047669710E+02  0.00000000000E+00 0.  1.
</event>
<event>
 6    1  0.2144783E-005  0.2124363E+03  0.7818608E-02  0.1172050E+00
          2   -1    0    0  502    0  0.00000000000E+00  0.00000000000E+00  0.21145925113E+03  0.21145925113E+03  0.00000000000E+00 0.  1.
          1   -1    0    0  501    0 -0.00000000000E+00 -0.00000000000E+00 -0.36595476384E+03  0.36595476384E+03  0.00000000000E+00 0. -1.
          2    1    1    2  501    0 -0.72536957644E+02 -0.16779551199E+03 -0.42973175861E+02  0.18778614942E+03  0.00000000000E+00 0.  1.
          1    1    1    2  502    0  0.10534700079E+02  0.18083142074E+03 -0.15756271091E+03  0.24007705118E+03  0.00000000000E+00 0. -1.
         22    1    1    2    0    0  0.93425636987E+02 -0.33824470921E+02  0.50766373001E+02  0.11157808525E+03  0.00000000000E+00 0.  1.
         22    1    1    2    0    0 -0.31423379421E+02  0.20788562169E+02 -0.47259989449E+01  0.37972729127E+02  0.00000000000E+00 0.  1.
</event>
<event>
 6    1  0.2144783E-005  0.3510465E+02  0.7818608E-02  0.1551084E+00
          2   -1    0    0  502    0  0.00000000000E+00  0.00000000000E+00  0.29902553729E+03  0.29902553729E+03  0.00000000000E+00 0.  1.
          1   -1    0    0  501    0 -0.00000000000E+00 -0.00000000000E+00 -0.37563342492E+03  0.37563342492E+03  0.00000000000E+00 0. -1.
          2    1    1    2  501    0  0.22322469651E+02  0.37256823014E+02  0.21585774653E+03  0.22018385556E+03  0.00000000000E+00 0.  1.
          1    1    1    2  502    0 -0.42178913400E+02  0.47571226542E+01 -0.31417004373E+03  0.31702445856E+03  0.00000000000E+00 0. -1.
         22    1    1    2    0    0 -0.30999218179E+00 -0.25221671503E+02 -0.52769730602E+02  0.58488231948E+02  0.00000000000E+00 0. -1.
         22    1    1    2    0    0  0.20166435930E+02 -0.16792274165E+02  0.74474140174E+02  0.78962416151E+02  0.00000000000E+00 0. -1.
</event>
<event>
 6    1  0.2144783E-005  0.1315462E+03  0.7818608E-02  0.1331414E+00
          2   -1    0    0  502    0  0.00000000000E+00  0.00000000000E+00  0.51768526846E+02  0.51768526846E+02  0.00000000000E+00 0.  1.
          1   -1    0    0  501    0 -0.00000000000E+00 -0.00000000000E+00 -0.14276379658E+04  0.14276379658E+04  0.00000000000E+00 0. -1.
          2    1    1    2  501    0 -0.10659985051E+03 -0.54655060967E+02 -0.10015670504E+03  0.15614758846E+03  0.00000000000E+00 0.  1.
          1    1    1    2  502    0 -0.42487078657E+02  0.36243893654E+02 -0.89068327125E+03  0.89243232873E+03  0.00000000000E+00 0. -1.
         22    1    1    2    0    0 -0.17222934719E+02 -0.11545708452E+01 -0.89514914171E+02  0.91164041009E+02  0.00000000000E+00 0.  1.
         22    1    1    2    0    0  0.16630986389E+03  0.19565738158E+02 -0.29551454854E+03  0.33966253448E+03  0.00000000000E+00 0.  1.
</event>
<event>
 6    1  0.2144783E-005  0.1348270E+03  0.7818608E-02  0.1283110E+00
          2   -1    0    0  502    0  0.00000000000E+00  0.00000000000E+00  0.37700072656E+03  0.37700072656E+03  0.00000000000E+00 0. -1.
          1   -1    0    0  501    0 -0.00000000000E+00 -0.00000000000E+00 -0.12103823933E+03  0.12103823933E+03  0.00000000000E+00 0. -1.
          2    1    1    2  501    0 -0.11761182857E+03 -0.12489690612E+02 -0.48205023481E+02  0.12771945380E+03  0.00000000000E+00 0. -1.
          1    1    1    2  502    0  0.72256908259E+02  0.23843767838E+02  0.13422707149E+03  0.15429352798E+03  0.00000000000E+00 0. -1.
         22    1    1    2    0    0  0.73556339579E+02  0.15116884785E+02  0.50540191238E+02  0.90517215093E+02  0.00000000000E+00 0. -1.
         22    1    1    2    0    0 -0.28201419271E+02 -0.26470962012E+02  0.11940024799E+03  0.12550876901E+03  0.00000000000E+00 0. -1.
</event>
<event>
 6    1  0.2144783E-005  0.3807906E+02  0.7818608E-02  0.1541634E+00
          2   -1    0    0  502    0  0.00000000000E+00  0.00000000000E+00  0.68370900174E+03  0.68370900174E+03  0.00000000000E+00 0.  1.
          1   -1    0    0  501    0 -0.00000000000E+00 -0.00000000000E+00 -0.65717017893E+02  0.65717017893E+02  0.00000000000E+00 0.  1.
          2    1    1    2  501    0 -0.25152419532E+02  0.33845623175E+02  0.53796262058E+03  0.53961277927E+03  0.00000000000E+00 0.  1.
          1    1    1    2  502    0  0.24659064791E+02 -0.65076178813E+01 -0.32099260645E+02  0.40997330411E+02  0.00000000000E+00 0.  1.
         22    1    1    2    0    0  0.11779288061E+02  0.17677781388E+00 -0.25458140185E+02  0.28051733981E+02  0.00000000000E+00 0. -1.
         22    1    1    2    0    0 -0.11285933320E+02 -0.27514783108E+02  0.13758676410E+03  0.14076417596E+03  0.00000000000E+00 0. -1.
</event>
<event>
 6    1  0.2144783E-005  0.6804937E+02  0.7818608E-02  0.1486013E+00
          2   -1    0    0  502    0  0.00000000000E+00  0.00000000000E+00  0.12482837608E+03  0.12482837608E+03  0.00000000000E+00 0. -1.
          1   -1    0    0  501    0 -0.00000000000E+00 -0.00000000000E+00 -0.15096289250E+03  0.15096289250E+03  0.00000000000E+00 0.  1.
          2    1    1    2  501    0  0.61556493098E+01 -0.58310567388E+02  0.51569213898E+02  0.78085838086E+02  0.00000000000E+00 0. -1.
          1    1    1    2  502    0 -0.18599961617E+01  0.36278110393E+02 -0.55927504901E+02  0.66689179661E+02  0.00000000000E+00 0.  1.
         22    1    1    2    0    0  0.86287040709E+01 -0.68792409135E+01  0.50719019265E+02  0.51905658696E+02  0.00000000000E+00 0. -1.
         22    1    1    2    0    0 -0.12924357219E+02  0.28911697908E+02 -0.72495244682E+02  0.79110592129E+02  0.00000000000E+00 0.  1.
</event>
<event>
 6    1  0.2144783E-005  0.3633589E+02  0.7818608E-02  0.1602807E+00
          2   -1    0    0  502    0  0.00000000000E+00  0.00000000000E+00  0.79132971517E+02  0.79132971517E+02  0.00000000000E+00 0. -1.
          1   -1    0    0  501    0 -0.00000000000E+00 -0.00000000000E+00 -0.16644788680E+03  0.16644788680E+03  0.00000000000E+00 0.  1.
          2    1    1    2  501    0 -0.32928674688E+02 -0.51409140791E+01 -0.12068820683E+02  0.35445494029E+02  0.00000000000E+00 0. -1.
          1    1    1    2  502    0  0.41591008209E+02  0.20879988089E+02 -0.73709425582E+02  0.87171470597E+02  0.00000000000E+00 0.  1.
         22    1    1    2    0    0 -0.13457453805E+02 -0.28459406069E+02  0.55783697569E+02  0.64053585154E+02  0.00000000000E+00 0. -1.
         22    1    1    2    0    0  0.47951202846E+01  0.12720332059E+02 -0.57320366586E+02  0.58910308536E+02  0.00000000000E+00 0. -1.
</event>
<event>
 6    1  0.2144783E-005  0.3506042E+02  0.7818608E-02  0.1603889E+00
          2   -1    0    0  502    0  0.00000000000E+00  0.00000000000E+00  0.89012460529E+02  0.89012460529E+02  0.00000000000E+00 0. -1.
          1   -1    0    0  501    0 -0.00000000000E+00 -0.00000000000E+00 -0.13402009020E+03  0.13402009020E+03  0.00000000000E+00 0.  1.
          2    1    1    2  501    0  0.29326481370E+02 -0.12275438812E+02  0.13470971295E+02  0.34528191021E+02  0.00000000000E+00 0. -1.
          1    1    1    2  502    0 -0.13046242151E+02  0.19030415676E+02 -0.61926487737E+02  0.66085180173E+02  0.00000000000E+00 0.  1.
         22    1    1    2    0    0 -0.72479356980E+01  0.82680730534E+01 -0.57736055560E+02  0.58773682168E+02  0.00000000000E+00 0. -1.
         22    1    1    2    0    0 -0.90323035212E+01 -0.15023049918E+02  0.61183942332E+02  0.63645497366E+02  0.00000000000E+00 0. -1.
</event>
<event>
 6    1  0.2144783E-005  0.6651075E+02  0.7818608E-02  0.1486329E+00
          2   -1    0    0  502    0  0.00000000000E+00  0.00000000000E+00  0.65415856433E+02  0.65415856433E+02  0.00000000000E+00 0. -1.
          1   -1    0    0  501    0 -0.00000000000E+00 -0.00000000000E+00 -0.14416408421E+03  0.14416408421E+03  0.00000000000E+00 0.  1.
          2    1    1    2  501    0 -0.36733570819E+02 -0.13114706567E+02 -0.15169412486E+00  0.39004791559E+02  0.00000000000E+00 0. -1.
          1    1    1    2  502    0  0.22385573888E+02  0.62594076681E+01 -0.91635235986E+01  0.24985281015E+02  0.00000000000E+00 0.  1.
         22    1    1    2    0    0  0.23225717724E+02  0.14578244290E+02 -0.10479404906E+03  0.10832244407E+03  0.00000000000E+00 0.  1.
         22    1    1    2    0    0 -0.88777207935E+01 -0.77229453909E+01  0.35361039007E+02  0.37267424000E+02  0.00000000000E+00 0.  1.
</event>
<event>
 6    1  0.2144783E-005  0.5034227E+02  0.7818608E-02  0.1513727E+00
          2   -1    0    0  502    0  0.00000000000E+00  0.00000000000E+00  0.48605431137E+02  0.48605431137E+02  0.00000000000E+00 0. -1.
          1   -1    0    0  501    0 -0.00000000000E+00 -0.00000000000E+00 -0.38152205525E+03  0.38152205525E+03  0.00000000000E+00 0.  1.
          2    1    1    2  501    0 -0.81642603522E+02 -0.23492084708E+02 -0.73086947159E+02  0.11206736634E+03  0.00000000000E+00 0. -1.
          1    1    1    2  502    0  0.46785842568E+02  0.79148254086E+01 -0.81772849177E+02  0.94542891793E+02  0.00000000000E+00 0.  1.
         22    1    1    2    0    0  0.76050014310E+01 -0.12095432917E+02  0.18378689370E+02  0.23278998414E+02  0.00000000000E+00 0.  1.
         22    1    1    2    0    0  0.27251759523E+02  0.27672692216E+02 -0.19643551715E+03  0.20023822984E+03  0.00000000000E+00 0.  1.
</event>
<event>
 6    1  0.2144783E-005  0.8145986E+02  0.7818608E-02  0.1325001E+00
          2   -1    0    0  502    0  0.00000000000E+00  0.00000000000E+00  0.17864241840E+03  0.17864241840E+03  0.00000000000E+00 0. -1.
          1   -1    0    0  501    0 -0.00000000000E+00 -0.00000000000E+00 -0.14598805880E+03  0.14598805880E+03  0.00000000000E+00 0.  1.
          2    1    1    2  501    0 -0.30506668460E+02 -0.44690967173E+02  0.46747419176E+02  0.71507066553E+02  0.00000000000E+00 0. -1.
          1    1    1    2  502    0  0.65912991717E+02  0.29250182655E+01 -0.81188056973E+02  0.10461634100E+03  0.00000000000E+00 0.  1.
         22    1    1    2    0    0 -0.58849137541E+02  0.56237753198E+02  0.83362609276E+02  0.11651279114E+03  0.00000000000E+00 0. -1.
         22    1    1    2    0    0  0.23442814284E+02 -0.14471804290E+02 -0.16267611878E+02  0.31994278507E+02  0.00000000000E+00 0. -1.
</event>
<event>
 6    1  0.2144783E-005  0.7066264E+02  0.7818608E-02  0.1454514E+00
          2   -1    0    0  502    0  0.00000000000E+00  0.00000000000E+00  0.75904951264E+02  0.75904951264E+02  0.00000000000E+00 0. -1.
          1   -1    0    0  501    0 -0.00000000000E+00 -0.00000000000E+00 -0.26996098920E+03  0.26996098920E+03  0.00000000000E+00 0.  1.
          2    1    1    2  501    0  0.53489470638E+02  0.29663074524E+02  0.29385269545E+02  0.67856580562E+02  0.00000000000E+00 0. -1.
          1    1    1    2  502    0 -0.22822410217E+02 -0.18373307980E+02 -0.69486833567E+02  0.75411278290E+02  0.00000000000E+00 0.  1.
         22    1    1    2    0    0 -0.19789966764E+01  0.15347157403E+02  0.19435728961E+02  0.24843494690E+02  0.00000000000E+00 0.  1.
         22    1    1    2    0    0 -0.28688063745E+02 -0.26636923947E+02 -0.17339020287E+03  0.17775458692E+03  0.00000000000E+00 0.  1.
</event>
<event>
 6    1  0.2144783E-005  0.7022864E+02  0.7818608E-02  0.1408983E+00
          2   -1    0    0  502    0  0.00000000000E+00  0.00000000000E+00  0.28214938993E+03  0.28214938993E+03  0.00000000000E+00 0.  1.
          1   -1    0    0  501    0 -0.00000000000E+00 -0.00000000000E+00 -0.80902125341E+02  0.80902125341E+02  0.00000000000E+00 0. -1.
          2    1    1    2  501    0 -0.63582741767E+02 -0.28269196396E+02  0.87544773580E+02  0.11183022801E+03  0.00000000000E+00 0.  1.
          1    1    1    2  502    0  0.37434961044E+02  0.40840296165E+02 -0.28683009255E+02  0.62386065103E+02  0.00000000000E+00 0. -1.
         22    1    1    2    0    0  0.56281533948E+01  0.11179423972E+02 -0.19918338987E+02  0.23524367345E+02  0.00000000000E+00 0.  1.
         22    1    1    2    0    0  0.20519627328E+02 -0.23750523741E+02  0.16230383925E+03  0.16531085482E+03  0.00000000000E+00 0.  1.
</event>
<event>
 6    1  0.2144783E-005  0.2011154E+03  0.7818608E-02  0.1149311E+00
          2   -1    0    0  502    0  0.00000000000E+00  0.00000000000E+00  0.90183544211E+03  0.90183544211E+03  0.00000000000E+00 0.  1.
          1   -1    0    0  501    0 -0.00000000000E+00 -0.00000000000E+00 -0.72283324560E+02  0.72283324560E+02  0.00000000000E+00 0.  1.
          2    1    1    2  501    0 -0.14038391812E+03  0.65591121289E+02  0.50905062280E+03  0.53211124423E+03  0.00000000000E+00 0.  1.
          1    1    1    2  502    0  0.13824862497E+03 -0.54072054804E+02  0.75444064451E+02  0.16651809594E+03  0.00000000000E+00 0.  1.
         22    1    1    2    0    0 -0.21095132319E+02  0.34992605826E+02  0.20716450296E+03  0.21115543648E+03  0.00000000000E+00 0.  1.
         22    1    1    2    0    0  0.23230425471E+02 -0.46511672311E+02  0.37892927335E+02  0.64333990011E+02  0.00000000000E+00 0.  1.
</event>
<event>
 6    1  0.2144783E-005  0.8055242E+02  0.7818608E-02  0.1393681E+00
          2   -1    0    0  502    0  0.00000000000E+00  0.00000000000E+00  0.13467650506E+03  0.13467650506E+03  0.00000000000E+00 0. -1.
          1   -1    0    0  501    0 -0.00000000000E+00 -0.00000000000E+00 -0.26616570006E+03  0.26616570006E+03  0.00000000000E+00 0. -1.
          2    1    1    2  501    0  0.42469159722E+02 -0.55033980788E+02 -0.12937698197E+03  0.14686991534E+03  0.00000000000E+00 0. -1.
          1    1    1    2  502    0 -0.58918147337E+02  0.45240196003E+02 -0.74007846279E+02  0.10485792641E+03  0.00000000000E+00 0. -1.
         22    1    1    2    0    0 -0.87362057434E+01  0.18007268698E+02 -0.34273904196E+02  0.39689841592E+02  0.00000000000E+00 0. -1.
         22    1    1    2    0    0  0.25185193359E+02 -0.82134839129E+01  0.10616953745E+03  0.10942452177E+03  0.00000000000E+00 0. -1.
</event>
<event>
 6    1  0.2144783E-005  0.1648853E+03  0.7818608E-02  0.1203499E+00
          2   -1    0    0  502    0  0.00000000000E+00  0.00000000000E+00  0.33236851971E+02  0.33236851971E+02  0.00000000000E+00 0. -1.
          1   -1    0    0  501    0 -0.00000000000E+00 -0.00000000000E+00 -0.18735154789E+04  0.18735154789E+04  0.00000000000E+00 0. -1.
          2    1    1    2  501    0 -0.15222158214E+03 -0.95469051801E+02 -0.13453671441E+04  0.13573129714E+04  0.00000000000E+00 0. -1.
          1    1    1    2  502    0  0.43428135003E+02  0.67624960092E+01 -0.50807776536E+02  0.67180089451E+02  0.00000000000E+00 0. -1.
         22    1    1    2    0    0  0.56250973500E+02 -0.30932537461E+01 -0.28953162234E+03  0.29496152389E+03  0.00000000000E+00 0. -1.
         22    1    1    2    0    0  0.52542473632E+02  0.91799809538E+02 -0.15457208394E+03  0.18729774611E+03  0.00000000000E+00 0. -1.
</event>
<event>
 6    1  0.2144783E-005  0.5247212E+02  0.7818608E-02  0.1442300E+00
          2   -1    0    0  502    0  0.00000000000E+00  0.00000000000E+00  0.13655246495E+03  0.13655246495E+03  0.00000000000E+00 0. -1.
          1   -1    0    0  501    0 -0.00000000000E+00 -0.00000000000E+00 -0.36233752332E+03  0.36233752332E+03  0.00000000000E+00 0.  1.
          2    1    1    2  501    0 -0.13534191529E+02 -0.77241059907E+02  0.94570296423E+02  0.12285315072E+03  0.00000000000E+00 0. -1.
          1    1    1    2  502    0  0.32438315424E+01  0.21614102997E+02 -0.16243717250E+03  0.16390096674E+03  0.00000000000E+00 0.  1.
         22    1    1    2    0    0  0.26523509348E+02  0.13376905045E+02 -0.16381992234E+03  0.16649145651E+03  0.00000000000E+00 0.  1.
         22    1    1    2    0    0 -0.16233149362E+02  0.42250051866E+02  0.59017400414E+01  0.45644414295E+02  0.00000000000E+00 0. -1.
</event>
<event>
 6    1  0.2144783E-005  0.3047733E+02  0.7818608E-02  0.1610422E+00
          2   -1    0    0  502    0  0.00000000000E+00  0.00000000000E+00  0.46675613665E+03  0.46675613665E+03  0.00000000000E+00 0. -1.
          1   -1    0    0  501    0 -0.00000000000E+00 -0.00000000000E+00 -0.49579902649E+02  0.49579902649E+02  0.00000000000E+00 0. -1.
          2    1    1    2  501    0 -0.20019386090E+02  0.32210746967E+02  0.30027263933E+03  0.30265816686E+03  0.00000000000E+00 0. -1.
          1    1    1    2  502    0  0.24141152102E+02 -0.41556184791E+02  0.15730171791E+02  0.50568270919E+02  0.00000000000E+00 0. -1.
         22    1    1    2    0    0 -0.26752357145E+02  0.94111750850E+01 -0.23233330537E+02  0.36661239438E+02  0.00000000000E+00 0. -1.
         22    1    1    2    0    0  0.22630591133E+02 -0.65737260810E-01  0.12440675342E+03  0.12644836208E+03  0.00000000000E+00 0. -1.
</event>
<event>
 6    1  0.2144783E-005  0.1057743E+03  0.7818608E-02  0.1347391E+00
          2   -1    0    0  502    0  0.00000000000E+00  0.00000000000E+00  0.63968349685E+02  0.63968349685E+02  0.00000000000E+00 0.  1.
          1   -1    0    0  501    0 -0.00000000000E+00 -0.00000000000E+00 -0.13585136249E+03  0.13585136249E+03  0.00000000000E+00 0.  1.
          2    1    1    2  501    0  0.20923900091E+02  0.77604093713E+01 -0.31795772999E+01  0.22542033192E+02  0.00000000000E+00 0.  1.
          1    1    1    2  502    0  0.15914703188E+02  0.26345407219E+02 -0.46863646505E+01  0.31133908728E+02  0.00000000000E+00 0.  1.
         22    1    1    2    0    0 -0.60944071554E+02 -0.41340893991E+02 -0.85649904373E+02  0.11295643183E+03  0.00000000000E+00 0.  1.
         22    1    1    2    0    0  0.24105468275E+02  0.72350774006E+01  0.21632833515E+02  0.33187338424E+02  0.00000000000E+00 0.  1.
</event>
<event>
 6    1  0.2144783E-005  0.4475705E+02  0.7818608E-02  0.1528109E+00
          2   -1    0    0  502    0  0.00000000000E+00  0.00000000000E+00  0.13574091681E+03  0.13574091681E+03  0.00000000000E+00 0. -1.
          1   -1    0    0  501    0 -0.00000000000E+00 -0.00000000000E+00 -0.20983993542E+03  0.20983993542E+03  0.00000000000E+00 0.  1.
          2    1    1    2  501    0 -0.46608844383E+02  0.10170552645E+02  0.23631135754E+02  0.53237722461E+02  0.00000000000E+00 0. -1.
          1    1    1    2  502    0  0.24236078878E+02  0.36241509704E+02 -0.14650514599E+03  0.15285480806E+03  0.00000000000E+00 0.  1.
         22    1    1    2    0    0  0.30298501835E+01 -0.40875652278E+02  0.87067017190E+02  0.96232346036E+02  0.00000000000E+00 0. -1.
         22    1    1    2    0    0  0.19342915321E+02 -0.55364100719E+01 -0.38292025569E+02  0.43255975678E+02  0.00000000000E+00 0.  1.
</event>
<event>
 6    1  0.2144783E-005  0.2420916E+03  0.7818608E-02  0.1138437E+00
          2   -1    0    0  502    0  0.00000000000E+00  0.00000000000E+00  0.45500912154E+03  0.45500912154E+03  0.00000000000E+00 0. -1.
          1   -1    0    0  501    0 -0.00000000000E+00 -0.00000000000E+00 -0.54689885624E+03  0.54689885624E+03  0.00000000000E+00 0. -1.
          2    1    1    2  501    0 -0.17752254600E+03  0.11702829789E+03 -0.26695002377E+03  0.34128022509E+03  0.00000000000E+00 0. -1.
          1    1    1    2  502    0  0.19238964055E+03 -0.25035220993E+03 -0.98910502188E+02  0.33086748140E+03  0.00000000000E+00 0. -1.
         22    1    1    2    0    0 -0.12013087711E+02  0.14732488260E+03  0.27805218648E+03  0.31489991063E+03  0.00000000000E+00 0. -1.
         22    1    1    2    0    0 -0.28540068365E+01 -0.14000970563E+02 -0.40813952193E+01  0.14860360651E+02  0.00000000000E+00 0.  1.
</event>
<event>
 6    1  0.2144783E-005  0.2126774E+03  0.7818608E-02  0.1263067E+00
          2   -1    0    0  502    0  0.00000000000E+00  0.00000000000E+00  0.72575499228E+02  0.72575499228E+02  0.00000000000E+00 0.  1.
          1   -1    0    0  501    0 -0.00000000000E+00 -0.00000000000E+00 -0.73640846048E+03  0.73640846048E+03  0.00000000000E+00 0.  1.
          2    1    1    2  501    0 -0.40754622887E+02 -0.10250548079E+03 -0.17680606827E+02  0.11171802332E+03  0.00000000000E+00 0.  1.
          1    1    1    2  502    0  0.98970871915E+02  0.22260717701E+02 -0.26589839249E+03  0.28459221382E+03  0.00000000000E+00 0.  1.
         22    1    1    2    0    0 -0.58988758556E+02  0.94716999222E+02 -0.38210391275E+03  0.39806329110E+03  0.00000000000E+00 0.  1.
         22    1    1    2    0    0  0.77250952792E+00 -0.14472236137E+02  0.18499508097E+01  0.14610431471E+02  0.00000000000E+00 0.  1.
</event>
<event>
 6    1  0.2144783E-005  0.6256162E+02  0.7818608E-02  0.1422013E+00
          2   -1    0    0  502    0  0.00000000000E+00  0.00000000000E+00  0.10328203036E+03  0.10328203036E+03  0.00000000000E+00 0.  1.
          1   -1    0    0  501    0 -0.00000000000E+00 -0.00000000000E+00 -0.13944531823E+03  0.13944531823E+03  0.00000000000E+00 0.  1.
          2    1    1    2  501    0 -0.41800290871E+02  0.51656851392E+02 -0.39823486789E+02  0.77470024607E+02  0.00000000000E+00 0.  1.
          1    1    1    2  502    0  0.26486844683E+02 -0.35173872420E+01 -0.13731824115E+02  0.30041437179E+02  0.00000000000E+00 0.  1.
         22    1    1    2    0    0 -0.10710998204E+02 -0.34671075697E+02  0.67805302133E+02  0.76904928125E+02  0.00000000000E+00 0.  1.
         22    1    1    2    0    0  0.26024444392E+02 -0.13468388453E+02 -0.50413279091E+02  0.58310958679E+02  0.00000000000E+00 0.  1.
</event>
<event>
 6    1  0.2144783E-005  0.6241271E+02  0.7818608E-02  0.1481747E+00
          2   -1    0    0  502    0  0.00000000000E+00  0.00000000000E+00  0.46193574447E+02  0.46193574447E+02  0.00000000000E+00 0. -1.
          1   -1    0    0  501    0 -0.00000000000E+00 -0.00000000000E+00 -0.33516356686E+03  0.33516356686E+03  0.00000000000E+00 0.  1.
          2    1    1    2  501    0 -0.31993341734E+02 -0.10569637330E+02  0.11993672295E+02  0.35765057300E+02  0.00000000000E+00 0. -1.
          1    1    1    2  502    0  0.24772851164E+02 -0.95250126424E+01 -0.11726085214E+03  0.12022698310E+03  0.00000000000E+00 0.  1.
         22    1    1    2    0    0  0.90418385045E+01  0.35172046745E+02 -0.19989398220E+03  0.20316602038E+03  0.00000000000E+00 0.  1.
         22    1    1    2    0    0 -0.18213479343E+01 -0.15077396773E+02  0.16191169640E+02  0.22199080523E+02  0.00000000000E+00 0. -1.
</event>
<event>
 6    1  0.2144783E-005  0.1027133E+03  0.7818608E-02  0.1376990E+00
          2   -1    0    0  502    0  0.00000000000E+00  0.00000000000E+00  0.12851268195E+03  0.12851268195E+03  0.00000000000E+00 0.  1.
          1   -1    0    0  501    0 -0.00000000000E+00 -0.00000000000E+00 -0.18611216448E+03  0.18611216448E+03  0.00000000000E+00 0.  1.
          2    1    1    2  501    0  0.48654916112E+02  0.64298648482E+02 -0.91059144880E+02  0.12162805978E+03  0.00000000000E+00 0.  1.
          1    1    1    2  502    0 -0.49132015501E+02 -0.21918772972E+02 -0.13425794248E+02  0.55449431981E+02  0.00000000000E+00 0.  1.
         22    1    1    2    0    0  0.56375213302E+01  0.15762073280E+02  0.72060475037E+02  0.73979298884E+02  0.00000000000E+00 0. -1.
         22    1    1    2    0    0 -0.51604219415E+01 -0.58141948790E+02 -0.25175018437E+02  0.63568055791E+02  0.00000000000E+00 0.  1.
</event>
<event>
 6    1  0.2144783E-005  0.2062274E+02  0.7818608E-02  0.1734187E+00
          2   -1    0    0  502    0  0.00000000000E+00  0.00000000000E+00  0.47240428116E+02  0.47240428116E+02  0.00000000000E+00 0. -1.
          1   -1    0    0  501    0 -0.00000000000E+00 -0.00000000000E+00 -0.17243954230E+03  0.17243954230E+03  0.00000000000E+00 0. -1.
          2    1    1    2  501    0  0.15844450863E+02 -0.19070664066E+02 -0.15188920913E+02  0.29076453869E+02  0.00000000000E+00 0. -1.
          1    1    1    2  502    0 -0.50366312636E+01  0.25157697377E+02 -0.37608528765E+02  0.45526682590E+02  0.00000000000E+00 0. -1.
         22    1    1    2    0    0 -0.14017156431E+02  0.10552841875E+02 -0.10600230708E+03  0.10744455432E+03  0.00000000000E+00 0.  1.
         22    1    1    2    0    0  0.32093368310E+01 -0.16639875186E+02  0.33600642577E+02  0.37632279637E+02  0.00000000000E+00 0. -1.
</event>
<event>
 6    1  0.2144783E-005  0.1070358E+03  0.7818608E-02  0.1350936E+00
          2   -1    0    0  502    0  0.00000000000E+00  0.00000000000E+00  0.63526079817E+02  0.63526079817E+02  0.00000000000E+00 0. -1.
          1   -1    0    0  501    0 -0.00000000000E+00 -0.00000000000E+00 -0.95092199574E+03  0.95092199574E+03  0.00000000000E+00 0. -1.
          2    1    1    2  501    0  0.79558910675E+02 -0.54218549176E+02 -0.63706880977E+03  0.64430267711E+03  0.00000000000E+00 0. -1.
          1    1    1    2  502    0 -0.82225141934E+02  0.55408881729E+02 -0.22581870714E+03  0.24662766803E+03  0.00000000000E+00 0. -1.
         22    1    1    2    0    0 -0.51061696711E+01  0.20309075526E+02 -0.69751262160E+02  0.72826987377E+02  0.00000000000E+00 0. -1.
         22    1    1    2    0    0  0.77724009294E+01 -0.21499408078E+02  0.45242863155E+02  0.50690743044E+02  0.00000000000E+00 0. -1.
</event>
<event>
 6    1  0.2144783E-005  0.9484449E+02  0.7818608E-02  0.1403147E+00
          2   -1    0    0  502    0  0.00000000000E+00  0.00000000000E+00  0.10114019622E+03  0.10114019622E+03  0.00000000000E+00 0. -1.
          1   -1    0    0  501    0 -0.00000000000E+00 -0.00000000000E+00 -0.10440933166E+03  0.10440933166E+03  0.00000000000E+00 0. -1.
          2    1    1    2  501    0 -0.41082247642E+02  0.16337459042E+02 -0.99549332684E+00  0.44222784244E+02  0.00000000000E+00 0. -1.
          1    1    1    2  502    0  0.16476029806E+02 -0.21760165088E+02  0.16551681760E+02  0.31920565658E+02  0.00000000000E+00 0. -1.
         22    1    1    2    0    0  0.33194547004E+02  0.16434584787E+02 -0.68463479678E+02  0.77841001905E+02  0.00000000000E+00 0. -1.
         22    1    1    2    0    0 -0.85883291680E+01 -0.11011878741E+02  0.49638155809E+02  0.51565176073E+02  0.00000000000E+00 0. -1.
</event>
<event>
 6    1  0.2144783E-005  0.1095871E+03  0.7818608E-02  0.1262410E+00
          2   -1    0    0  502    0  0.00000000000E+00  0.00000000000E+00  0.59169487214E+03  0.59169487214E+03  0.00000000000E+00 0.  1.
          1   -1    0    0  501    0 -0.00000000000E+00 -0.00000000000E+00 -0.89146676121E+02  0.89146676121E+02  0.00000000000E+00 0.  1.
          2    1    1    2  501    0  0.46207043558E+02 -0.80191110913E+02  0.50560438121E+03  0.51400534573E+03  0.00000000000E+00 0.  1.
          1    1    1    2  502    0 -0.17455687925E+02  0.15023098748E+02 -0.35073797216E+01  0.23295841891E+02  0.00000000000E+00 0.  1.
         22    1    1    2    0    0  0.13703997544E+02 -0.61438228332E+01  0.46335001985E+02  0.48708094981E+02  0.00000000000E+00 0.  1.
         22    1    1    2    0    0 -0.42455353178E+02  0.71311834999E+02 -0.45883807448E+02  0.94832265660E+02  0.00000000000E+00 0.  1.
</event>
<event>
 6    1  0.2144783E-005  0.1067398E+03  0.7818608E-02  0.1322528E+00
          2   -1    0    0  502    0  0.00000000000E+00  0.00000000000E+00  0.22727070001E+03  0.22727070001E+03  0.00000000000E+00 0. -1.
          1   -1    0    0  501    0 -0.00000000000E+00 -0.00000000000E+00 -0.41274371256E+03  0.41274371256E+03  0.00000000000E+00 0.  1.
          2    1    1    2  501    0  0.94802787530E+02  0.67251163630E+01 -0.51343919426E+02  0.10802311686E+03  0.00000000000E+00 0. -1.
          1    1    1    2  502    0 -0.78639995598E+02 -0.41976341484E+02 -0.30573446982E+03  0.31846479898E+03  0.00000000000E+00 0.  1.
         22    1    1    2    0    0 -0.25629483262E+02  0.27791084557E+02  0.18878912687E+03  0.19253713724E+03  0.00000000000E+00 0. -1.
         22    1    1    2    0    0  0.94666913301E+01  0.74601405640E+01 -0.17183750172E+02  0.20989359493E+02  0.00000000000E+00 0. -1.
</event>
<event>
 6    1  0.2144783E-005  0.1735525E+03  0.7818608E-02  0.1236296E+00
          2   -1    0    0  502    0  0.00000000000E+00  0.00000000000E+00  0.92390257671E+02  0.92390257671E+02  0.00000000000E+00 0.  1.
          1   -1    0    0  501    0 -0.00000000000E+00 -0.00000000000E+00 -0.23043833673E+03  0.23043833673E+03  0.00000000000E+00 0. -1.
          2    1    1    2  501    0 -0.23779763989E+02  0.35677701626E+02  0.21522950389E+02  0.47975128578E+02  0.00000000000E+00 0.  1.
          1    1    1    2  502    0  0.32762160479E+01 -0.74229921271E+02 -0.10817503182E+03  0.13123510320E+03  0.00000000000E+00 0. -1.
         22    1    1    2    0    0 -0.31638692350E+02 -0.32763277988E+02 -0.21377248611E+02  0.50313278529E+02  0.00000000000E+00 0. -1.
         22    1    1    2    0    0  0.52142240290E+02  0.71315497633E+02 -0.30018749020E+02  0.93305084095E+02  0.00000000000E+00 0. -1.
</event>
<event>
 6    1  0.2144783E-005  0.5829503E+02  0.7818608E-02  0.1514228E+00
          2   -1    0    0  502    0  0.00000000000E+00  0.00000000000E+00  0.98107412861E+02  0.98107412861E+02  0.00000000000E+00 0. -1.
          1   -1    0    0  501    0 -0.00000000000E+00 -0.00000000000E+00 -0.14596858912E+03  0.14596858912E+03  0.00000000000E+00 0.  1.
          2    1    1    2  501    0 -0.53132236538E+02  0.65356634175E+00  0.12573922135E+02  0.54603710738E+02  0.00000000000E+00 0. -1.
          1    1    1    2  502    0  0.22379730341E+02 -0.16158060289E+02 -0.55954250007E+02  0.62392414092E+02  0.00000000000E+00 0.  1.
         22    1    1    2    0    0  0.20357974498E+02  0.21322382598E+02 -0.61834364896E+02  0.68502407311E+02  0.00000000000E+00 0.  1.
         22    1    1    2    0    0  0.10394531700E+02 -0.58178886507E+01  0.57353516506E+02  0.58577469843E+02  0.00000000000E+00 0. -1.
</event>
<event>
 6    1  0.2144783E-005  0.4338486E+02  0.7818608E-02  0.1493758E+00
          2   -1    0    0  502    0  0.00000000000E+00  0.00000000000E+00  0.11595403541E+03  0.11595403541E+03  0.00000000000E+00 0. -1.
          1   -1    0    0  501    0 -0.00000000000E+00 -0.00000000000E+00 -0.20813773638E+03  0.20813773638E+03  0.00000000000E+00 0.  1.
          2    1    1    2  501    0 -0.33761496033E+02  0.12316105926E+02  0.51523751698E+02  0.62818962651E+02  0.00000000000E+00 0. -1.
          1    1    1    2  502    0  0.36949742415E+01  0.29793312528E+02 -0.12060962104E+03  0.12428988291E+03  0.00000000000E+00 0.  1.
         22    1    1    2    0    0  0.36044534062E+02 -0.57107665655E+02  0.35435362977E+02  0.76263745395E+02  0.00000000000E+00 0. -1.
         22    1    1    2    0    0 -0.59780122708E+01  0.14998247202E+02 -0.58533194607E+02  0.60719180831E+02  0.00000000000E+00 0.  1.
</event>
<event>
 6    1  0.2144783E-005  0.3833802E+02  0.7818608E-02  0.1560407E+00
          2   -1    0    0  502    0  0.00000000000E+00  0.00000000000E+00  0.71642541699E+02  0.71642541699E+02  0.00000000000E+00 0.  1.
          1   -1    0    0  501    0 -0.00000000000E+00 -0.00000000000E+00 -0.69385354083E+03  0.69385354083E+03  0.00000000000E+00 0.  1.
          2    1    1    2  501    0 -0.10066650953E+02  0.86999096853E+02 -0.47820148514E+02  0.99784502397E+02  0.00000000000E+00 0.  1.
          1    1    1    2  502    0  0.14925075834E+02 -0.79284277723E+02 -0.51989408659E+03  0.52611654209E+03  0.00000000000E+00 0.  1.
         22    1    1    2    0    0 -0.14962787778E+02 -0.84749342290E+01 -0.95664922840E+02  0.97198184090E+02  0.00000000000E+00 0.  1.
         22    1    1    2    0    0  0.10104362897E+02  0.76011509877E+00  0.41168158819E+02  0.42396853952E+02  0.00000000000E+00 0.  1.
</event>
<event>
 6    1  0.2144783E-005  0.4095592E+02  0.7818608E-02  0.1530908E+00
          2   -1    0    0  502    0  0.00000000000E+00  0.00000000000E+00  0.28791114931E+03  0.28791114931E+03  0.00000000000E+00 0.  1.
          1   -1    0    0  501    0 -0.00000000000E+00 -0.00000000000E+00 -0.10442382040E+03  0.10442382040E+03  0.00000000000E+00 0.  1.
          2    1    1    2  501    0 -0.55030019726E+02 -0.12348597466E+02  0.16497216189E+03  0.17434622201E+03  0.00000000000E+00 0.  1.
          1    1    1    2  502    0  0.48657383984E+02  0.18522267480E+02 -0.51979636131E+02  0.73569681126E+02  0.00000000000E+00 0.  1.
         22    1    1    2    0    0 -0.13900495301E+02  0.10022593559E+02  0.10209900262E+03  0.10352720651E+03  0.00000000000E+00 0.  1.
         22    1    1    2    0    0  0.20273131043E+02 -0.16196263574E+02 -0.31604199462E+02  0.40891860066E+02  0.00000000000E+00 0.  1.
</event>
<event>
 6    1  0.2144783E-005  0.1453740E+03  0.7818608E-02  0.1268115E+00
          2   -1    0    0  502    0  0.00000000000E+00  0.00000000000E+00  0.18427132099E+03  0.18427132099E+03  0.00000000000E+00 0. -1.
          1   -1    0    0  501    0 -0.00000000000E+00 -0.00000000000E+00 -0.23207526856E+03  0.23207526856E+03  0.00000000000E+00 0. -1.
          2    1    1    2  501    0  0.13104390094E+03  0.40347596864E+02  0.57061509176E+02  0.14851413527E+03  0.00000000000E+00 0. -1.
          1    1    1    2  502    0 -0.23286292638E+02 -0.40543779695E+02 -0.89134939710E+02  0.10065330086E+03  0.00000000000E+00 0. -1.
         22    1    1    2    0    0 -0.79874057321E+02  0.30431132924E+02 -0.61758963165E+02  0.10545182983E+03  0.00000000000E+00 0. -1.
         22    1    1    2    0    0 -0.27883550984E+02 -0.30234950093E+02  0.46028446133E+02  0.61727323578E+02  0.00000000000E+00 0. -1.
</event>
<event>
 6    1  0.2144783E-005  0.7777793E+02  0.7818608E-02  0.1387685E+00
          2   -1    0    0  502    0  0.00000000000E+00  0.00000000000E+00  0.79537616061E+02  0.79537616061E+02  0.00000000000E+00 0. -1.
          1   -1    0    0  501    0 -0.00000000000E+00 -0.00000000000E+00 -0.37464327739E+03  0.37464327739E+03  0.00000000000E+00 0. -1.
          2    1    1    2  501    0  0.31261354168E+02 -0.44016114309E+01 -0.19075043511E+03  0.19334522219E+03  0.00000000000E+00 0. -1.
          1    1    1    2  502    0 -0.27102980983E+02  0.57133247000E+02 -0.11198991170E+03  0.12860995223E+03  0.00000000000E+00 0. -1.
         22    1    1    2    0    0 -0.12089263147E+02 -0.21315589528E+02 -0.55828313419E+02  0.60969707393E+02  0.00000000000E+00 0. -1.
         22    1    1    2    0    0  0.79308899621E+01 -0.31416046042E+02  0.63462998903E+02  0.71256011636E+02  0.00000000000E+00 0. -1.
</event>
<event>
 6    1  0.2144783E-005  0.6287500E+02  0.7818608E-02  0.1410649E+00
          2   -1    0    0  502    0  0.00000000000E+00  0.00000000000E+00  0.31027127054E+03  0.31027127054E+03  0.00000000000E+00 0. -1.
          1   -1    0    0  501    0 -0.00000000000E+00 -0.00000000000E+00 -0.10286615825E+03  0.10286615825E+03  0.00000000000E+00 0. -1.
          2    1    1    2  501    0 -0.45372172504E+02  0.10812173114E+02 -0.75994515232E+02  0.89166717280E+02  0.00000000000E+00 0. -1.
          1    1    1    2  502    0  0.23415691317E+02  0.16298522554E+02  0.53618247950E+02  0.60735928004E+02  0.00000000000E+00 0. -1.
         22    1    1    2    0    0  0.28814098038E+02  0.14949051538E+02  0.31297375755E+01  0.32611679578E+02  0.00000000000E+00 0.  1.
         22    1    1    2    0    0 -0.68576168511E+01 -0.42059747207E+02  0.22665164200E+03  0.23062310393E+03  0.00000000000E+00 0. -1.
</event>
<event>
 6    1  0.2144783E-005  0.1510812E+03  0.7818608E-02  0.1200045E+00
          2   -1    0    0  502    0  0.00000000000E+00  0.00000000000E+00  0.35486766361E+03  0.35486766361E+03  0.00000000000E+00 0.  1.
          1   -1    0    0  501    0 -0.00000000000E+00 -0.00000000000E+00 -0.80827990694E+02  0.80827990694E+02  0.00000000000E+00 0. -1.
          2    1    1    2  501    0 -0.44752576753E+02  0.11765611021E+03  0.17388298576E+03  0.21466496252E+03  0.00000000000E+00 0.  1.
          1    1    1    2  502    0  0.28036089380E+02 -0.25504048926E+02  0.93097069993E+01  0.39027547499E+02  0.00000000000E+00 0. -1.
         22    1    1    2    0    0  0.30360916290E+02 -0.10600245989E+03  0.24618090935E+02  0.11297945452E+03  0.00000000000E+00 0. -1.
         22    1    1    2    0    0 -0.13644428917E+02  0.13850398606E+02  0.66228889215E+02  0.69023689764E+02  0.00000000000E+00 0. -1.
</event>
<event>
 6    1  0.2144783E-005  0.2171028E+02  0.7818608E-02  0.1738823E+00
          2   -1    0    0  502    0  0.00000000000E+00  0.00000000000E+00  0.46220844328E+03  0.46220844328E+03  0.00000000000E+00 0.  1.
          1   -1    0    0  501    0 -0.00000000000E+00 -0.00000000000E+00 -0.69968869396E+02  0.69968869396E+02  0.00000000000E+00 0.  1.
          2    1    1    2  501    0  0.30752896189E+02 -0.31188739033E+02  0.33258409972E+03  0.33545590090E+03  0.00000000000E+00 0.  1.
          1    1    1    2  502    0 -0.10385780456E+02  0.31609310889E+02  0.59656447776E+02  0.68307428086E+02  0.00000000000E+00 0.  1.
         22    1    1    2    0    0 -0.11907293585E+02 -0.66016927087E+01 -0.63048518449E+02  0.64501795834E+02  0.00000000000E+00 0.  1.
         22    1    1    2    0    0 -0.84598221485E+01  0.61811208526E+01  0.63047544836E+02  0.63912187849E+02  0.00000000000E+00 0. -1.
</event>
<event>
 6    1  0.2144783E-005  0.3635485E+03  0.7818608E-02  0.1148717E+00
          2   -1    0    0  502    0  0.00000000000E+00  0.00000000000E+00  0.29455383944E+03  0.29455383944E+03  0.00000000000E+00 0. -1.
          1   -1    0    0  501    0 -0.00000000000E+00 -0.00000000000E+00 -0.64188396372E+03  0.64188396372E+03  0.00000000000E+00 0. -1.
          2    1    1    2  501    0 -0.30159135044E+03  0.21890361830E+03 -0.12949507908E+03  0.39451883640E+03  0.00000000000E+00 0. -1.
          1    1    1    2  502    0  0.25949979928E+03 -0.18109274157E+03 -0.24798712379E+03  0.40203524776E+03  0.00000000000E+00 0. -1.
         22    1    1    2    0    0  0.83876543714E+01 -0.32520846464E+02 -0.45699197364E+02  0.56713092319E+02  0.00000000000E+00 0.  1.
         22    1    1    2    0    0  0.33703896793E+02 -0.52900302647E+01  0.75851275953E+02  0.83170626683E+02  0.00000000000E+00 0.  1.
</event>
<event>
 6    1  0.8257959E-005  0.3754727E+03  0.7818608E-02  0.1195412E+00
          2   -1    0    0  502    0  0.00000000000E+00  0.00000000000E+00  0.73690412823E+03  0.73690412823E+03  0.00000000000E+00 0.  1.
          1   -1    0    0  501    0 -0.00000000000E+00 -0.00000000000E+00 -0.27848037727E+03  0.27848037727E+03  0.00000000000E+00 0.  1.
          2    1    1    2  501    0 -0.70674636471E+02 -0.10243591930E+03  0.58413304656E+03  0.59724319828E+03  0.00000000000E+00 0.  1.
          1    1    1    2  502    0  0.33677953348E+02 -0.60771043692E+01  0.11680354423E+03  0.12171361339E+03  0.00000000000E+00 0.  1.
         22    1    1    2    0    0  0.98512334169E+01  0.41229743302E+01  0.14320718839E+02  0.17864173791E+02  0.00000000000E+00 0.  1.
         22    1    1    2    0    0  0.27145449707E+02  0.10439004934E+03 -0.25683355867E+03  0.27856352005E+03  0.00000000000E+00 0.  1.
</event>
<event>
 6    1  0.2144783E-005  0.7022567E+02  0.7818608E-02  0.1444166E+00
          2   -1    0    0  502    0  0.00000000000E+00  0.00000000000E+00  0.24402326053E+03  0.24402326053E+03  0.00000000000E+00 0. -1.
          1   -1    0    0  501    0 -0.00000000000E+00 -0.00000000000E+00 -0.11095719370E+04  0.11095719370E+04  0.00000000000E+00 0. -1.
          2    1    1    2  501    0 -0.36201453193E+02  0.10610424230E+03  0.20549050441E+03  0.23408332459E+03  0.00000000000E+00 0. -1.
          1    1    1    2  502    0  0.38532557977E+02 -0.55039573804E+02 -0.88260079486E+03  0.88515437964E+03  0.00000000000E+00 0. -1.
         22    1    1    2    0    0 -0.13621555146E+02 -0.45735313916E+02 -0.20675489751E+03  0.21219060617E+03  0.00000000000E+00 0.  1.
         22    1    1    2    0    0  0.11290450362E+02 -0.53293545790E+01  0.18316511515E+02  0.22166887099E+02  0.00000000000E+00 0. -1.
</event>
<event>
 6    1  0.2144783E-005  0.3176091E+02  0.7818608E-02  0.1626623E+00
          2   -1    0    0  502    0  0.00000000000E+00  0.00000000000E+00  0.25174322078E+03  0.25174322078E+03  0.00000000000E+00 0.  1.
          1   -1    0    0  501    0 -0.00000000000E+00 -0.00000000000E+00 -0.83708637630E+02  0.83708637630E+02  0.00000000000E+00 0. -1.
          2    1    1    2  501    0 -0.37632317182E+02 -0.12799780799E+02  0.16090535030E+03  0.16574244309E+03  0.00000000000E+00 0.  1.
          1    1    1    2  502    0  0.36063151324E+02  0.23906168991E+02 -0.13777117769E+02  0.45407761156E+02  0.00000000000E+00 0. -1.
         22    1    1    2    0    0 -0.94358709580E+01  0.83469817717E+01  0.69596075513E+02  0.70727091643E+02  0.00000000000E+00 0.  1.
         22    1    1    2    0    0  0.11005036817E+02 -0.19453369963E+02 -0.48689724900E+02  0.53574562519E+02  0.00000000000E+00 0. -1.
</event>
<event>
 6    1  0.2144783E-005  0.4754299E+02  0.7818608E-02  0.1573784E+00
          2   -1    0    0  502    0  0.00000000000E+00  0.00000000000E+00  0.12727704915E+03  0.12727704915E+03  0.00000000000E+00 0. -1.
          1   -1    0    0  501    0 -0.00000000000E+00 -0.00000000000E+00 -0.85849705145E+02  0.85849705145E+02  0.00000000000E+00 0. -1.
          2    1    1    2  501    0 -0.63255497381E+01  0.19155352414E+02  0.19498943643E+02  0.28056174165E+02  0.00000000000E+00 0. -1.
          1    1    1    2  502    0  0.55649642259E+01  0.40036719731E+02  0.26536733016E+02  0.48353965223E+02  0.00000000000E+00 0. -1.
         22    1    1    2    0    0  0.19178867683E+01 -0.99697452284E+01  0.56973968620E+02  0.57871471468E+02  0.00000000000E+00 0. -1.
         22    1    1    2    0    0 -0.11573012562E+01 -0.49222326916E+02 -0.61582301276E+02  0.78845143437E+02  0.00000000000E+00 0. -1.
</event>
<event>
 6    1  0.2144783E-005  0.2318757E+02  0.7818608E-02  0.1701797E+00
          2   -1    0    0  502    0  0.00000000000E+00  0.00000000000E+00  0.19097400283E+03  0.19097400283E+03  0.00000000000E+00 0.  1.
          1   -1    0    0  501    0 -0.00000000000E+00 -0.00000000000E+00 -0.92732536710E+02  0.92732536710E+02  0.00000000000E+00 0. -1.
          2    1    1    2  501    0  0.23181364014E+02  0.24835208934E+02  0.98072530895E+02  0.10379009855E+03  0.00000000000E+00 0.  1.
          1    1    1    2  502    0 -0.24201650326E+02 -0.17244895486E+02 -0.35450935364E+02  0.46258784214E+02  0.00000000000E+00 0. -1.
         22    1    1    2    0    0 -0.11737280457E+02 -0.21247958463E+01 -0.47710717161E+02  0.49179172847E+02  0.00000000000E+00 0.  1.
         22    1    1    2    0    0  0.12757566769E+02 -0.54655176023E+01  0.83330587753E+02  0.84478483934E+02  0.00000000000E+00 0.  1.
</event>
<event>
 6    1  0.2144783E-005  0.1047659E+03  0.7818608E-02  0.1306734E+00
          2   -1    0    0  502    0  0.00000000000E+00  0.00000000000E+00  0.45103932713E+03  0.45103932713E+03  0.00000000000E+00 0.  1.
          1   -1    0    0  501    0 -0.00000000000E+00 -0.00000000000E+00 -0.51085879490E+02  0.51085879490E+02  0.00000000000E+00 0. -1.
          2    1    1    2  501    0  0.39366120392E+02 -0.10251039011E+03  0.17770502000E+03  0.20889505893E+03  0.00000000000E+00 0.  1.
          1    1    1    2  502    0 -0.47308010222E+01  0.33448709081E+02  0.11228837567E+02  0.35598924290E+02  0.00000000000E+00 0. -1.
         22    1    1    2    0    0 -0.53137202986E+02  0.89427136789E+00  0.16495358274E+03  0.17330333673E+03  0.00000000000E+00 0. -1.
         22    1    1    2    0    0  0.18501883615E+02  0.68167409664E+02  0.46066007337E+02  0.84327886666E+02  0.00000000000E+00 0.  1.
</event>
<event>
 6    1  0.2144783E-005  0.4473968E+02  0.7818608E-02  0.1487843E+00
          2   -1    0    0  502    0  0.00000000000E+00  0.00000000000E+00  0.52349083331E+02  0.52349083331E+02  0.00000000000E+00 0. -1.
          1   -1    0    0  501    0 -0.00000000000E+00 -0.00000000000E+00 -0.50183500186E+03  0.50183500186E+03  0.00000000000E+00 0.  1.
          2    1    1    2  501    0  0.43297374274E+02  0.36534896942E+02 -0.95944966629E+02  0.11142216088E+03  0.00000000000E+00 0. -1.
          1    1    1    2  502    0 -0.62216579657E+02 -0.51670367609E+02 -0.28032279170E+03  0.29175605772E+03  0.00000000000E+00 0.  1.
         22    1    1    2    0    0  0.28245638394E+02 -0.75867135736E+01  0.31770372358E+02  0.43182529696E+02  0.00000000000E+00 0. -1.
         22    1    1    2    0    0 -0.93264330115E+01  0.22722184240E+02 -0.10498853256E+03  0.10782333690E+03  0.00000000000E+00 0.  1.
</event>
<event>
 6    1  0.2144783E-005  0.1002707E+03  0.7818608E-02  0.1390142E+00
          2   -1    0    0  502    0  0.00000000000E+00  0.00000000000E+00  0.40711237364E+02  0.40711237364E+02  0.00000000000E+00 0.  1.
          1   -1    0    0  501    0 -0.00000000000E+00 -0.00000000000E+00 -0.53008461939E+03  0.53008461939E+03  0.00000000000E+00 0.  1.
          2    1    1    2  501    0 -0.90691726418E+02 -0.36233030634E+02 -0.19318184401E+03  0.21646488539E+03  0.00000000000E+00 0.  1.
          1    1    1    2  502    0  0.47752032353E+02  0.18654405777E+02 -0.13589522701E+03  0.14524378187E+03  0.00000000000E+00 0.  1.
         22    1    1    2    0    0 -0.52594312716E+01  0.13550848749E+02  0.18692209247E+02  0.23678804988E+02  0.00000000000E+00 0.  1.
         22    1    1    2    0    0  0.48199125336E+02  0.40277761084E+01 -0.17898852025E+03  0.18540838450E+03  0.00000000000E+00 0.  1.
</event>
<event>
 6    1  0.2144783E-005  0.6618338E+02  0.7818608E-02  0.1414573E+00
          2   -1    0    0  502    0  0.00000000000E+00  0.00000000000E+00  0.29932441372E+02  0.29932441372E+02  0.00000000000E+00 0. -1.
          1   -1    0    0  501    0 -0.00000000000E+00 -0.00000000000E+00 -0.43846224694E+03  0.43846224694E+03  0.00000000000E+00 0.  1.
          2    1    1    2  501    0  0.27487677899E+02  0.29555812430E+02 -0.39017011549E+02  0.56137738420E+02  0.00000000000E+00 0. -1.
          1    1    1    2  502    0 -0.25278680598E+02 -0.24461880108E+02 -0.17971655456E+03  0.18312682833E+03  0.00000000000E+00 0.  1.
         22    1    1    2    0    0 -0.46642552171E-01 -0.39401910232E+02 -0.19071408484E+03  0.19474181590E+03  0.00000000000E+00 0. -1.
         22    1    1    2    0    0 -0.21623547482E+01  0.34307977909E+02  0.91784537571E+00  0.34388305663E+02  0.00000000000E+00 0. -1.
</event>
<event>
 6    1  0.2144783E-005  0.9088076E+02  0.7818608E-02  0.1369065E+00
          2   -1    0    0  502    0  0.00000000000E+00  0.00000000000E+00  0.16844981231E+03  0.16844981231E+03  0.00000000000E+00 0.  1.
          1   -1    0    0  501    0 -0.00000000000E+00 -0.00000000000E+00 -0.15145639754E+03  0.15145639754E+03  0.00000000000E+00 0.  1.
          2    1    1    2  501    0  0.69497502599E+02  0.27232209729E+02 -0.28432876085E+02  0.79874429930E+02  0.00000000000E+00 0.  1.
          1    1    1    2  502    0 -0.41289328159E+02 -0.55509237907E+02 -0.43944769965E+02  0.81958690327E+02  0.00000000000E+00 0.  1.
         22    1    1    2    0    0 -0.45345133534E+00  0.27534638237E+02  0.11622717012E+03  0.11944503755E+03  0.00000000000E+00 0.  1.
         22    1    1    2    0    0 -0.27754723104E+02  0.74238994095E+00 -0.26856109308E+02  0.38628052042E+02  0.00000000000E+00 0.  1.
</event>
<event>
 6    1  0.2144783E-005  0.2105890E+03  0.7818608E-02  0.1206016E+00
          2   -1    0    0  502    0  0.00000000000E+00  0.00000000000E+00  0.15764131890E+04  0.15764131890E+04  0.00000000000E+00 0. -1.
          1   -1    0    0  501    0 -0.00000000000E+00 -0.00000000000E+00 -0.41237548100E+02  0.41237548100E+02  0.00000000000E+00 0. -1.
          2    1    1    2  501    0  0.10243576910E+03  0.16458732141E+03  0.47010442043E+03  0.50850785566E+03  0.00000000000E+00 0. -1.
          1    1    1    2  502    0 -0.10531794629E+03 -0.59996799516E+02  0.66816311725E+03  0.67906806509E+03  0.00000000000E+00 0. -1.
         22    1    1    2    0    0 -0.40995969935E+02 -0.84908393396E+02  0.35152845485E+03  0.36395378744E+03  0.00000000000E+00 0. -1.
         22    1    1    2    0    0  0.43878147121E+02 -0.19682128499E+02  0.45379648314E+02  0.66121028865E+02  0.00000000000E+00 0. -1.
</event>
<event>
 6    1  0.2144783E-005  0.5963931E+02  0.7818608E-02  0.1402488E+00
          2   -1    0    0  502    0  0.00000000000E+00  0.00000000000E+00  0.39611125575E+03  0.39611125575E+03  0.00000000000E+00 0. -1.
          1   -1    0    0  501    0 -0.00000000000E+00 -0.00000000000E+00 -0.24232661362E+03  0.24232661362E+03  0.00000000000E+00 0. -1.
          2    1    1    2  501    0  0.19862866879E+02  0.35953093327E+02  0.34598840621E+03  0.34841804723E+03  0.00000000000E+00 0. -1.
          1    1    1    2  502    0 -0.10986498081E+02 -0.26748503707E+02 -0.15478429856E+03  0.15746226427E+03  0.00000000000E+00 0. -1.
         22    1    1    2    0    0  0.46210203231E+01  0.13031774415E+02  0.44504589816E+02  0.46602998701E+02  0.00000000000E+00 0. -1.
         22    1    1    2    0    0 -0.13497389121E+02 -0.22236364035E+02 -0.81924055344E+02  0.85954559172E+02  0.00000000000E+00 0.  1.
</event>
<event>
 6    1  0.2144783E-005  0.1085622E+03  0.7818608E-02  0.1313656E+00
          2   -1    0    0  502    0  0.00000000000E+00  0.00000000000E+00  0.25705316244E+02  0.25705316244E+02  0.00000000000E+00 0. -1.
          1   -1    0    0  501    0 -0.00000000000E+00 -0.00000000000E+00 -0.20467528985E+04  0.20467528985E+04  0.00000000000E+00 0. -1.
          2    1    1    2  501    0  0.92876613612E+02 -0.50157983313E+02 -0.17272898514E+04  0.17305120974E+04  0.00000000000E+00 0. -1.
          1    1    1    2  502    0 -0.25174269750E+02  0.13167766408E+02 -0.37750736462E+02  0.47246714521E+02  0.00000000000E+00 0. -1.
         22    1    1    2    0    0 -0.96266473216E+02  0.60281790891E+01 -0.13026086107E+03  0.16208474554E+03  0.00000000000E+00 0. -1.
         22    1    1    2    0    0  0.28564129354E+02  0.30962037816E+02 -0.12574613340E+03  0.13261465732E+03  0.00000000000E+00 0. -1.
</event>
<event>
 6    1  0.2144783E-005  0.4565420E+02  0.7818608E-02  0.1494362E+00
          2   -1    0    0  502    0  0.00000000000E+00  0.00000000000E+00  0.56906136690E+03  0.56906136690E+03  0.00000000000E+00 0. -1.
          1   -1    0    0  501    0 -0.00000000000E+00 -0.00000000000E+00 -0.10679481710E+03  0.10679481710E+03  0.00000000000E+00 0.  1.
          2    1    1    2  501    0  0.73660858692E+02 -0.20893772715E+02  0.44597672123E+03  0.45250161074E+03  0.00000000000E+00 0. -1.
          1    1    1    2  502    0 -0.91778246091E+02  0.29930114163E+02 -0.14390039103E+02  0.97601902721E+02  0.00000000000E+00 0.  1.
         22    1    1    2    0    0  0.10223451264E+02  0.12737587419E+02 -0.44332853168E+02  0.47245814196E+02  0.00000000000E+00 0.  1.
         22    1    1    2    0    0  0.78939361346E+01 -0.21773928867E+02  0.75012720841E+02  0.78506856351E+02  0.00000000000E+00 0.  1.
</event>
<event>
 6    1  0.2144783E-005  0.1162149E+03  0.7818608E-02  0.1346028E+00
          2   -1    0    0  502    0  0.00000000000E+00  0.00000000000E+00  0.20867085105E+03  0.20867085105E+03  0.00000000000E+00 0.  1.
          1   -1    0    0  501    0 -0.00000000000E+00 -0.00000000000E+00 -0.42066446589E+03  0.42066446589E+03  0.00000000000E+00 0.  1.
          2    1    1    2  501    0  0.93609153978E+02 -0.23059715809E+02  0.60797604092E+02  0.11397707166E+03  0.00000000000E+00 0.  1.
          1    1    1    2  502    0 -0.10481645553E+03  0.15382196474E+02 -0.35126484905E+03  0.36689248493E+03  0.00000000000E+00 0.  1.
         22    1    1    2    0    0 -0.81969314842E+01  0.85696113273E+01 -0.33127859704E+02  0.35186403803E+02  0.00000000000E+00 0.  1.
         22    1    1    2    0    0  0.19404233041E+02 -0.89209199238E+00  0.11160148982E+03  0.11327935654E+03  0.00000000000E+00 0.  1.
</event>
<event>
 6    1  0.2144783E-005  0.6926851E+02  0.7818608E-02  0.1458388E+00
          2   -1    0    0  502    0  0.00000000000E+00  0.00000000000E+00  0.23066644781E+03  0.23066644781E+03  0.00000000000E+00 0. -1.
          1   -1    0    0  501    0 -0.00000000000E+00 -0.00000000000E+00 -0.13021364803E+03  0.13021364803E+03  0.00000000000E+00 0.  1.
          2    1    1    2  501    0  0.12621331649E+02  0.58809060013E+02  0.16855654100E+03  0.17896678761E+03  0.00000000000E+00 0. -1.
          1    1    1    2  502    0 -0.94000955406E+01 -0.33337936759E+02 -0.43448121176E+02  0.55565448412E+02  0.00000000000E+00 0.  1.
         22    1    1    2    0    0 -0.14384787035E+02  0.58376793057E+01  0.45846163679E+02  0.48403216028E+02  0.00000000000E+00 0. -1.
         22    1    1    2    0    0  0.11163550926E+02 -0.31308802560E+02 -0.70501783722E+02  0.77944643787E+02  0.00000000000E+00 0.  1.
</event>
<event>
 6    1  0.2144783E-005  0.7390147E+02  0.7818608E-02  0.1436399E+00
          2   -1    0    0  502    0  0.00000000000E+00  0.00000000000E+00  0.34706893206E+03  0.34706893206E+03  0.00000000000E+00 0. -1.
          1   -1    0    0  501    0 -0.00000000000E+00 -0.00000000000E+00 -0.16746246492E+03  0.16746246492E+03  0.00000000000E+00 0.  1.
          2    1    1    2  501    0  0.44403060740E+02  0.44231607631E+02  0.23690008882E+03  0.24505044174E+03  0.00000000000E+00 0. -1.
          1    1    1    2  502    0 -0.61366791223E+01 -0.23093631999E+02 -0.12278450226E+03  0.12508800368E+03  0.00000000000E+00 0.  1.
         22    1    1    2    0    0 -0.33040343638E+02 -0.42304383712E+01 -0.31473253389E+02  0.45827138199E+02  0.00000000000E+00 0. -1.
         22    1    1    2    0    0 -0.52260379797E+01 -0.16907537261E+02  0.96964133961E+02  0.98565813363E+02  0.00000000000E+00 0. -1.
</event>
<event>
 6    1  0.2144783E-005  0.5830669E+02  0.7818608E-02  0.1470377E+00
          2   -1    0    0  502    0  0.00000000000E+00  0.00000000000E+00  0.53715226502E+03  0.53715226502E+03  0.00000000000E+00 0.  1.
          1   -1    0    0  501    0 -0.00000000000E+00 -0.00000000000E+00 -0.13564586583E+03  0.13564586583E+03  0.00000000000E+00 0. -1.
          2    1    1    2  501    0 -0.37479895985E+02 -0.41093393400E+02  0.40337305485E+03  0.40718942885E+03  0.00000000000E+00 0.  1.
          1    1    1    2  502    0  0.19771490506E+02  0.42357751287E+02 -0.94678143129E+02  0.10558902271E+03  0.00000000000E+00 0. -1.
         22    1    1    2    0    0  0.17985747422E+02 -0.12480213406E+02  0.12449672114E+03  0.12640678942E+03  0.00000000000E+00 0. -1.
         22    1    1    2    0    0 -0.27734194326E+00  0.11215855519E+02 -0.31685233663E+02  0.33612889876E+02  0.00000000000E+00 0. -1.
</event>
<event>
 6    1  0.2144783E-005  0.6647155E+02  0.7818608E-02  0.1431394E+00
          2   -1    0    0  502    0  0.00000000000E+00  0.00000000000E+00  0.79222022447E+03  0.79222022447E+03  0.00000000000E+00 0. -1.
          1   -1    0    0  501    0 -0.00000000000E+00 -0.00000000000E+00 -0.77887526897E+02  0.77887526897E+02  0.00000000000E+00 0.  1.
          2    1    1    2  501    0 -0.46411597908E+02  0.19624304066E+01  0.67396287724E+03  0.67556187537E+03  0.00000000000E+00 0. -1.
          1    1    1    2  502    0  0.40672149377E+02 -0.84155704602E+01 -0.28773606302E+02  0.50526883743E+02  0.00000000000E+00 0.  1.
         22    1    1    2    0    0  0.15707910339E+02 -0.17803420736E+02 -0.31822073467E+02  0.39703206380E+02  0.00000000000E+00 0.  1.
         22    1    1    2    0    0 -0.99684618090E+01  0.24256560790E+02  0.10096550010E+03  0.10431578588E+03  0.00000000000E+00 0. -1.
</event>
<event>
 6    1  0.2144783E-005  0.2034890E+02  0.7818608E-02  0.1775628E+00
          2   -1    0    0  502    0  0.00000000000E+00  0.00000000000E+00  0.97492735846E+02  0.97492735846E+02  0.00000000000E+00 0. -1.
          1   -1    0    0  501    0 -0.00000000000E+00 -0.00000000000E+00 -0.11657019780E+03  0.11657019780E+03  0.00000000000E+00 0.  1.
          2    1    1    2  501    0  0.23878632324E+02 -0.41013370400E+01  0.39352433639E+02  0.46212812947E+02  0.00000000000E+00 0. -1.
          1    1    1    2  502    0 -0.32210334616E+02  0.38156363055E+01 -0.15816700395E+02  0.36086462114E+02  0.00000000000E+00 0.  1.
         22    1    1    2    0    0  0.12959186542E+02  0.10949177072E+02 -0.85583491024E+02  0.87248833403E+02  0.00000000000E+00 0.  1.
         22    1    1    2    0    0 -0.46274842487E+01 -0.10663476337E+02  0.42970295824E+02  0.44514825185E+02  0.00000000000E+00 0. -1.
</event>
<event>
 6    1  0.2144783E-005  0.5919737E+02  0.7818608E-02  0.1431621E+00
          2   -1    0    0  502    0  0.00000000000E+00  0.00000000000E+00  0.71734732590E+02  0.71734732590E+02  0.00000000000E+00 0.  1.
          1   -1    0    0  501    0 -0.00000000000E+00 -0.00000000000E+00 -0.43573346395E+03  0.43573346395E+03  0.00000000000E+00 0.  1.
          2    1    1    2  501    0  0.58428086484E+02 -0.49285781581E+02 -0.54341552623E+02  0.93786640295E+02  0.00000000000E+00 0.  1.
          1    1    1    2  502    0 -0.22828608713E+02  0.34423601732E+02 -0.27376947966E+03  0.27686794275E+03  0.00000000000E+00 0.  1.
         22    1    1    2    0    0 -0.36988072904E+02 -0.10023425117E+01  0.42773242046E+02  0.56556807396E+02  0.00000000000E+00 0. -1.
         22    1    1    2    0    0  0.13885951336E+01  0.15864522361E+02 -0.78660941127E+02  0.80256806098E+02  0.00000000000E+00 0.  1.
</event>
<event>
 6    1  0.2144783E-005  0.2678107E+02  0.7818608E-02  0.1701079E+00
          2   -1    0    0  502    0  0.00000000000E+00  0.00000000000E+00  0.47820586524E+03  0.47820586524E+03  0.00000000000E+00 0.  1.
          1   -1    0    0  501    0 -0.00000000000E+00 -0.00000000000E+00 -0.76161292570E+02  0.76161292570E+02  0.00000000000E+00 0.  1.
          2    1    1    2  501    0  0.47288789862E+02 -0.66299329662E+01  0.34006384869E+03  0.34340006821E+03  0.00000000000E+00 0.  1.
          1    1    1    2  502    0 -0.24831380135E+02  0.26947408967E+02 -0.36858663898E+02  0.51974237790E+02  0.00000000000E+00 0.  1.
         22    1    1    2    0    0 -0.13966570171E+01 -0.11240802715E+02 -0.27943729389E+02  0.30152252133E+02  0.00000000000E+00 0.  1.
         22    1    1    2    0    0 -0.21060752710E+02 -0.90766732858E+01  0.12678311727E+03  0.12884059968E+03  0.00000000000E+00 0. -1.
</event>
<event>
 6    1  0.2144783E-005  0.7629575E+02  0.7818608E-02  0.1447805E+00
          2   -1    0    0  502    0  0.00000000000E+00  0.00000000000E+00  0.12210487976E+04  0.12210487976E+04  0.00000000000E+00 0.  1.
          1   -1    0    0  501    0 -0.00000000000E+00 -0.00000000000E+00 -0.53871889144E+02  0.53871889144E+02  0.00000000000E+00 0.  1.
          2    1    1    2  501    0 -0.68584483397E+02  0.35878132370E+02  0.10356184803E+04  0.10385069612E+04  0.00000000000E+00 0.  1.
          1    1    1    2  502    0  0.15738478776E+02 -0.12648915666E+02 -0.23885108951E+02  0.31276080498E+02  0.00000000000E+00 0.  1.
         22    1    1    2    0    0  0.66005886330E+02 -0.26534726699E+02  0.17057392567E+03  0.18481431998E+03  0.00000000000E+00 0. -1.
         22    1    1    2    0    0 -0.13159881710E+02  0.33055099950E+01 -0.15130388566E+02  0.20323325050E+02  0.00000000000E+00 0.  1.
</event>
<event>
 6    1  0.2144783E-005  0.1275553E+03  0.7818608E-02  0.1297831E+00
          2   -1    0    0  502    0  0.00000000000E+00  0.00000000000E+00  0.12189829077E+04  0.12189829077E+04  0.00000000000E+00 0. -1.
          1   -1    0    0  501    0 -0.00000000000E+00 -0.00000000000E+00 -0.19084694489E+03  0.19084694489E+03  0.00000000000E+00 0. -1.
          2    1    1    2  501    0  0.99616666337E+02 -0.99358157298E+02  0.10204691902E+04  0.10301227557E+04  0.00000000000E+00 0. -1.
          1    1    1    2  502    0 -0.52564736616E+02  0.97983138420E+02 -0.13940598600E+03  0.17831930877E+03  0.00000000000E+00 0. -1.
         22    1    1    2    0    0 -0.33810130610E+02 -0.77070544712E+01  0.16994225939E+03  0.17344421336E+03  0.00000000000E+00 0. -1.
         22    1    1    2    0    0 -0.13241799110E+02  0.90820733492E+01 -0.22869500832E+02  0.27943574723E+02  0.00000000000E+00 0.  1.
</event>
<event>
 6    1  0.2144783E-005  0.9672054E+02  0.7818608E-02  0.1288706E+00
          2   -1    0    0  502    0  0.00000000000E+00  0.00000000000E+00  0.34715718164E+03  0.34715718164E+03  0.00000000000E+00 0. -1.
          1   -1    0    0  501    0 -0.00000000000E+00 -0.00000000000E+00 -0.95772208333E+02  0.95772208333E+02  0.00000000000E+00 0. -1.
          2    1    1    2  501    0 -0.73547397548E+02  0.10645413365E+02  0.17313309641E+03  0.18840810382E+03  0.00000000000E+00 0. -1.
          1    1    1    2  502    0  0.39253811022E+02 -0.66785867421E+02 -0.26827328824E+02  0.81981213328E+02  0.00000000000E+00 0. -1.
         22    1    1    2    0    0 -0.86348195755E+01 -0.27803292451E+02 -0.28222084338E+01  0.29249752831E+02  0.00000000000E+00 0. -1.
         22    1    1    2    0    0  0.42928406101E+02  0.83943746507E+02  0.10790141416E+03  0.14329032000E+03  0.00000000000E+00 0. -1.
</event>
<event>
 6    1  0.2144783E-005  0.5297045E+02  0.7818608E-02  0.1452050E+00
          2   -1    0    0  502    0  0.00000000000E+00  0.00000000000E+00  0.20933045060E+03  0.20933045060E+03  0.00000000000E+00 0.  1.
          1   -1    0    0  501    0 -0.00000000000E+00 -0.00000000000E+00 -0.61488976933E+02  0.61488976933E+02  0.00000000000E+00 0.  1.
          2    1    1    2  501    0 -0.24721066234E+02  0.14621652209E+02  0.29269875973E+02  0.41007919583E+02  0.00000000000E+00 0.  1.
          1    1    1    2  502    0  0.26956999903E+02 -0.23413006065E+02 -0.19568695991E+02  0.40715876014E+02  0.00000000000E+00 0.  1.
         22    1    1    2    0    0  0.57615792795E+01 -0.28446150811E+02 -0.14026052042E+02  0.32235220298E+02  0.00000000000E+00 0.  1.
         22    1    1    2    0    0 -0.79975129489E+01  0.37237504667E+02  0.15216634572E+03  0.15686041163E+03  0.00000000000E+00 0.  1.
</event>
<event>
 6    1  0.2144783E-005  0.6827663E+02  0.7818608E-02  0.1442384E+00
          2   -1    0    0  502    0  0.00000000000E+00  0.00000000000E+00  0.22255869123E+03  0.22255869123E+03  0.00000000000E+00 0. -1.
          1   -1    0    0  501    0 -0.00000000000E+00 -0.00000000000E+00 -0.11146758194E+03  0.11146758194E+03  0.00000000000E+00 0. -1.
          2    1    1    2  501    0  0.51373309346E+02  0.74284277498E+01  0.13782270271E+03  0.14727354085E+03  0.00000000000E+00 0. -1.
          1    1    1    2  502    0 -0.43708214924E+02 -0.20954853465E+02  0.20066235794E+02  0.52461107065E+02  0.00000000000E+00 0. -1.
         22    1    1    2    0    0 -0.20158079474E+02 -0.38308667282E+01 -0.86659491569E+02  0.89055551129E+02  0.00000000000E+00 0. -1.
         22    1    1    2    0    0  0.12492985052E+02  0.17357292444E+02  0.39861662361E+02  0.45236074130E+02  0.00000000000E+00 0. -1.
</event>
<event>
 6    1  0.2144783E-005  0.5234390E+02  0.7818608E-02  0.1459541E+00
          2   -1    0    0  502    0  0.00000000000E+00  0.00000000000E+00  0.12866236865E+03  0.12866236865E+03  0.00000000000E+00 0.  1.
          1   -1    0    0  501    0 -0.00000000000E+00 -0.00000000000E+00 -0.15390577854E+03  0.15390577854E+03  0.00000000000E+00 0.  1.
          2    1    1    2  501    0  0.80918113008E+02 -0.38746485196E+02  0.24000184100E+01  0.89748488657E+02  0.00000000000E+00 0.  1.
          1    1    1    2  502    0 -0.39421540101E+02  0.41742100740E+02 -0.21315274546E+02  0.61243789294E+02  0.00000000000E+00 0.  1.
         22    1    1    2    0    0 -0.29543766223E+02 -0.26717723496E+02 -0.59810144417E+02  0.71860449808E+02  0.00000000000E+00 0. -1.
         22    1    1    2    0    0 -0.11952806684E+02  0.23722107953E+02  0.53481990663E+02  0.59715419438E+02  0.00000000000E+00 0.  1.
</event>
<event>
 6    1  0.2144783E-005  0.3517063E+02  0.7818608E-02  0.1586109E+00
          2   -1    0    0  502    0  0.00000000000E+00  0.00000000000E+00  0.25526810136E+03  0.25526810136E+03  0.00000000000E+00 0.  1.
          1   -1    0    0  501    0 -0.00000000000E+00 -0.00000000000E+00 -0.81622825759E+02  0.81622825759E+02  0.00000000000E+00 0. -1.
          2    1    1    2  501    0 -0.26909694001E+02  0.28894179593E+02  0.32000020860E+02  0.50823287779E+02  0.00000000000E+00 0.  1.
          1    1    1    2  502    0  0.17476652239E+02  0.23648398126E+02 -0.45220713600E+02  0.53940643729E+02  0.00000000000E+00 0. -1.
         22    1    1    2    0    0 -0.50419859910E+01 -0.20938781623E+02 -0.15666862811E+02  0.26632776591E+02  0.00000000000E+00 0. -1.
         22    1    1    2    0    0  0.14475027754E+02 -0.31603796096E+02  0.20253283115E+03  0.20549421902E+03  0.00000000000E+00 0. -1.
</event>
<event>
 6    1  0.2144783E-005  0.4608378E+02  0.7818608E-02  0.1551628E+00
          2   -1    0    0  502    0  0.00000000000E+00  0.00000000000E+00  0.86794675140E+02  0.86794675140E+02  0.00000000000E+00 0. -1.
          1   -1    0    0  501    0 -0.00000000000E+00 -0.00000000000E+00 -0.23937819712E+03  0.23937819712E+03  0.00000000000E+00 0.  1.
          2    1    1    2  501    0  0.57482178138E+01 -0.21880273718E+02  0.22107756202E+02  0.31631333679E+02  0.00000000000E+00 0. -1.
          1    1    1    2  502    0 -0.11010470859E+02 -0.41141210422E+02 -0.15043336971E+03  0.15634586142E+03  0.00000000000E+00 0.  1.
         22    1    1    2    0    0  0.14509189166E+02 -0.26449707364E+01  0.41962891328E+02  0.44479171407E+02  0.00000000000E+00 0. -1.
         22    1    1    2    0    0 -0.92469361208E+01  0.65666454877E+02 -0.66220799808E+02  0.93716505755E+02  0.00000000000E+00 0. -1.
</event>
<event>
 6    1  0.2144783E-005  0.9042629E+02  0.7818608E-02  0.1427391E+00
          2   -1    0    0  502    0  0.00000000000E+00  0.00000000000E+00  0.71339555211E+02  0.71339555211E+02  0.00000000000E+00 0. -1.
          1   -1    0    0  501    0 -0.00000000000E+00 -0.00000000000E+00 -0.46307434527E+03  0.46307434527E+03  0.00000000000E+00 0.  1.
          2    1    1    2  501    0  0.40032968667E+02 -0.64748899421E+02  0.23850979053E+02  0.79774229913E+02  0.00000000000E+00 0. -1.
          1    1    1    2  502    0 -0.59068129179E+01  0.39026471933E+02 -0.17669231134E+03  0.18104731104E+03  0.00000000000E+00 0.  1.
         22    1    1    2    0    0  0.10993135933E+02  0.12959660839E+01  0.12684893385E+02  0.16835530462E+02  0.00000000000E+00 0. -1.
         22    1    1    2    0    0 -0.45119291681E+02  0.24426461404E+02 -0.25157835116E+03  0.25675682907E+03  0.00000000000E+00 0.  1.
</event>
<event>
 6    1  0.2144783E-005  0.6726725E+02  0.7818608E-02  0.1423123E+00
          2   -1    0    0  502    0  0.00000000000E+00  0.00000000000E+00  0.12979836743E+03  0.12979836743E+03  0.00000000000E+00 0.  1.
          1   -1    0    0  501    0 -0.00000000000E+00 -0.00000000000E+00 -0.14077149953E+03  0.14077149953E+03  0.00000000000E+00 0. -1.
          2    1    1    2  501    0 -0.43419929845E+02  0.39238195299E+02  0.37850230049E+02  0.69696242315E+02  0.00000000000E+00 0.  1.
          1    1    1    2  502    0  0.28803498157E+02  0.18463719202E+02 -0.54862964245E+02  0.64656749675E+02  0.00000000000E+00 0. -1.
         22    1    1    2    0    0  0.13758292398E+02 -0.29014334247E+02 -0.57856938055E+02  0.66170593791E+02  0.00000000000E+00 0. -1.
         22    1    1    2    0    0  0.85813928977E+00 -0.28687580254E+02  0.63896540155E+02  0.70046281184E+02  0.00000000000E+00 0.  1.
</event>
<event>
 6    1  0.2144783E-005  0.7110912E+02  0.7818608E-02  0.1443204E+00
          2   -1    0    0  502    0  0.00000000000E+00  0.00000000000E+00  0.40375531860E+03  0.40375531860E+03  0.00000000000E+00 0. -1.
          1   -1    0    0  501    0 -0.00000000000E+00 -0.00000000000E+00 -0.11132904206E+03  0.11132904206E+03  0.00000000000E+00 0. -1.
          2    1    1    2  501    0  0.10678748012E+03  0.72423152295E+02  0.15540419079E+03  0.20198797344E+03  0.00000000000E+00 0. -1.
          1    1    1    2  502    0 -0.73667135046E+02 -0.33936063287E+02  0.15640776960E+03  0.17618709819E+03  0.00000000000E+00 0. -1.
         22    1    1    2    0    0 -0.10201517125E+02  0.82421070380E+01  0.49139389463E+02  0.50859442358E+02  0.00000000000E+00 0.  1.
         22    1    1    2    0    0 -0.22918827947E+02 -0.46729196046E+02 -0.68525073322E+02  0.86049846667E+02  0.00000000000E+00 0. -1.
</event>
<event>
 6    1  0.2144783E-005  0.1084888E+03  0.7818608E-02  0.1316260E+00
          2   -1    0    0  502    0  0.00000000000E+00  0.00000000000E+00  0.47474789324E+03  0.47474789324E+03  0.00000000000E+00 0. -1.
          1   -1    0    0  501    0 -0.00000000000E+00 -0.00000000000E+00 -0.85393520910E+02  0.85393520910E+02  0.00000000000E+00 0. -1.
          2    1    1    2  501    0  0.96333331003E+02 -0.99949952792E+02  0.17368689971E+03  0.22234487369E+03  0.00000000000E+00 0. -1.
          1    1    1    2  502    0 -0.63300828771E+02 -0.25649920740E+02  0.10918545162E+03  0.12878810582E+03  0.00000000000E+00 0. -1.
         22    1    1    2    0    0 -0.12786571382E+01  0.10082150244E+03  0.12831734000E+03  0.16319298411E+03  0.00000000000E+00 0. -1.
         22    1    1    2    0    0 -0.31753845094E+02  0.24778371088E+02 -0.21835318987E+02  0.45815450530E+02  0.00000000000E+00 0. -1.
</event>
<event>
 6    1  0.2144783E-005  0.7073680E+02  0.7818608E-02  0.1475564E+00
          2   -1    0    0  502    0  0.00000000000E+00  0.00000000000E+00  0.65037647071E+02  0.65037647071E+02  0.00000000000E+00 0. -1.
          1   -1    0    0  501    0 -0.00000000000E+00 -0.00000000000E+00 -0.11948846764E+03  0.11948846764E+03  0.00000000000E+00 0. -1.
          2    1    1    2  501    0 -0.22101125211E+01  0.22002504628E+02 -0.24806662748E+00  0.22114618340E+02  0.00000000000E+00 0. -1.
          1    1    1    2  502    0  0.24628066013E+02  0.61177268653E+01 -0.17414136221E+02  0.30776945232E+02  0.00000000000E+00 0. -1.
         22    1    1    2    0    0 -0.24537353132E+01  0.11118124502E+02  0.40836482443E+02  0.42394006743E+02  0.00000000000E+00 0. -1.
         22    1    1    2    0    0 -0.19964218178E+02 -0.39238355996E+02 -0.77625100163E+02  0.89240544396E+02  0.00000000000E+00 0. -1.
</event>
<event>
 6    1  0.2144783E-005  0.1559897E+03  0.7818608E-02  0.1326490E+00
          2   -1    0    0  502    0  0.00000000000E+00  0.00000000000E+00  0.12126109248E+03  0.12126109248E+03  0.00000000000E+00 0. -1.
          1   -1    0    0  501    0 -0.00000000000E+00 -0.00000000000E+00 -0.18250927488E+03  0.18250927488E+03  0.00000000000E+00 0. -1.
          2    1    1    2  501    0 -0.94839621217E+02  0.13528940440E+02 -0.13972762043E+02  0.96813346503E+02  0.00000000000E+00 0. -1.
          1    1    1    2  502    0 -0.25335061684E+02 -0.13149610470E+02 -0.15806294543E+02  0.32628462318E+02  0.00000000000E+00 0. -1.
         22    1    1    2    0    0 -0.10992069542E+02 -0.25782004088E+01  0.28076665433E+02  0.30261722555E+02  0.00000000000E+00 0. -1.
         22    1    1    2    0    0  0.13116675244E+03  0.21988704381E+01 -0.59545791244E+02  0.14406683599E+03  0.00000000000E+00 0. -1.
</event>
<event>
 6    1  0.2144783E-005  0.2016719E+03  0.7818608E-02  0.1258877E+00
          2   -1    0    0  502    0  0.00000000000E+00  0.00000000000E+00  0.43248613485E+03  0.43248613485E+03  0.00000000000E+00 0.  1.
          1   -1    0    0  501    0 -0.00000000000E+00 -0.00000000000E+00 -0.62564715080E+02  0.62564715080E+02  0.00000000000E+00 0.  1.
          2    1    1    2  501    0 -0.10054966662E+02  0.83553035498E+02  0.13330460243E+03  0.15764621506E+03  0.00000000000E+00 0.  1.
          1    1    1    2  502    0 -0.32469630272E+02  0.22917531033E+02  0.13326711390E+03  0.13906693988E+03  0.00000000000E+00 0.  1.
         22    1    1    2    0    0  0.16402603769E+02  0.84561843477E+01  0.74838391131E+02  0.77080070389E+02  0.00000000000E+00 0.  1.
         22    1    1    2    0    0  0.26121993165E+02 -0.11492675088E+03  0.28511312308E+02  0.12125762460E+03  0.00000000000E+00 0.  1.
</event>
<event>
 6    1  0.2144783E-005  0.9882852E+02  0.7818608E-02  0.1350551E+00
          2   -1    0    0  502    0  0.00000000000E+00  0.00000000000E+00  0.28622519074E+03  0.28622519074E+03  0.00000000000E+00 0. -1.
          1   -1    0    0  501    0 -0.00000000000E+00 -0.00000000000E+00 -0.68432319485E+03  0.68432319485E+03  0.00000000000E+00 0. -1.
          2    1    1    2  501    0  0.60978846723E+02 -0.26245711329E+03  0.39118123466E+02  0.27227262743E+03  0.00000000000E+00 0. -1.
          1    1    1    2  502    0 -0.84857417617E+02  0.25166308144E+03 -0.48869179721E+03  0.55619669231E+03  0.00000000000E+00 0. -1.
         22    1    1    2    0    0  0.34637469781E+02  0.11625958272E+02  0.92607989383E+02  0.99554793537E+02  0.00000000000E+00 0. -1.
         22    1    1    2    0    0 -0.10758898887E+02 -0.83192641320E+00 -0.41132319750E+02  0.42524272302E+02  0.00000000000E+00 0.  1.
</event>
<event>
 6    1  0.2144783E-005  0.1344089E+03  0.7818608E-02  0.1329049E+00
          2   -1    0    0  502    0  0.00000000000E+00  0.00000000000E+00  0.43146053838E+03  0.43146053838E+03  0.00000000000E+00 0.  1.
          1   -1    0    0  501    0 -0.00000000000E+00 -0.00000000000E+00 -0.15189267769E+03  0.15189267769E+03  0.00000000000E+00 0. -1.
          2    1    1    2  501    0 -0.45467917008E+02 -0.88065007289E+02  0.31020587667E+03  0.32565390050E+03  0.00000000000E+00 0.  1.
          1    1    1    2  502    0  0.87016250407E+01  0.53701629687E+02 -0.91714024335E+02  0.10663510477E+03  0.00000000000E+00 0. -1.
         22    1    1    2    0    0  0.53004732523E+02  0.38933667235E+02 -0.19613952764E+02  0.68629725755E+02  0.00000000000E+00 0.  1.
         22    1    1    2    0    0 -0.16238440556E+02 -0.45702896328E+01  0.80689961122E+02  0.82434485046E+02  0.00000000000E+00 0.  1.
</event>
<event>
 6    1  0.2144783E-005  0.2481338E+02  0.7818608E-02  0.1740593E+00
          2   -1    0    0  502    0  0.00000000000E+00  0.00000000000E+00  0.82174148649E+02  0.82174148649E+02  0.00000000000E+00 0.  1.
          1   -1    0    0  501    0 -0.00000000000E+00 -0.00000000000E+00 -0.11034372356E+03  0.11034372356E+03  0.00000000000E+00 0.  1.
          2    1    1    2  501    0  0.18454063100E+02  0.17691384014E+02 -0.16701591539E+01  0.25618878680E+02  0.00000000000E+00 0.  1.
          1    1    1    2  502    0 -0.11540384951E+02  0.17771244197E+02 -0.24265943525E+02  0.32215425192E+02  0.00000000000E+00 0.  1.
         22    1    1    2    0    0 -0.71902308164E+00 -0.10961501087E+02 -0.65573877948E+02  0.66487630199E+02  0.00000000000E+00 0. -1.
         22    1    1    2    0    0 -0.61946550670E+01 -0.24501127123E+02  0.63340405718E+02  0.68195938136E+02  0.00000000000E+00 0.  1.
</event>
<event>
 6    1  0.2144783E-005  0.1860830E+03  0.7818608E-02  0.1289924E+00
          2   -1    0    0  502    0  0.00000000000E+00  0.00000000000E+00  0.27048837143E+03  0.27048837143E+03  0.00000000000E+00 0. -1.
          1   -1    0    0  501    0 -0.00000000000E+00 -0.00000000000E+00 -0.98687373617E+03  0.98687373617E+03  0.00000000000E+00 0.  1.
          2    1    1    2  501    0  0.41325051124E+02  0.19052157803E+03  0.16109079773E+03  0.25289617763E+03  0.00000000000E+00 0. -1.
          1    1    1    2  502    0 -0.40135299990E+02 -0.16739826927E+03 -0.85660987672E+03  0.87373537399E+03  0.00000000000E+00 0.  1.
         22    1    1    2    0    0  0.56201592018E+01 -0.12119621296E+02 -0.74433293247E+02  0.75622658995E+02  0.00000000000E+00 0.  1.
         22    1    1    2    0    0 -0.68099103353E+01 -0.11003687463E+02  0.53567007508E+02  0.55107896984E+02  0.00000000000E+00 0. -1.
</event>
<event>
 6    1  0.2144783E-005  0.2564970E+03  0.7818608E-02  0.1171058E+00
          2   -1    0    0  502    0  0.00000000000E+00  0.00000000000E+00  0.71313226654E+03  0.71313226654E+03  0.00000000000E+00 0.  1.
          1   -1    0    0  501    0 -0.00000000000E+00 -0.00000000000E+00 -0.13023793934E+03  0.13023793934E+03  0.00000000000E+00 0. -1.
          2    1    1    2  501    0 -0.10706543100E+03  0.20184480286E+03  0.35899437061E+03  0.42553647210E+03  0.00000000000E+00 0.  1.
          1    1    1    2  502    0  0.84495214314E+02 -0.20732074637E+03  0.12219274318E+03  0.25505371905E+03  0.00000000000E+00 0. -1.
         22    1    1    2    0    0  0.57013001902E+02 -0.91305606191E+01  0.36804240179E+01  0.57856676746E+02  0.00000000000E+00 0. -1.
         22    1    1    2    0    0 -0.34442785218E+02  0.14606504125E+02  0.98026789390E+02  0.10492333799E+03  0.00000000000E+00 0.  1.
</event>
<event>
 6    1  0.2144783E-005  0.5113607E+02  0.7818608E-02  0.1440821E+00
          2   -1    0    0  502    0  0.00000000000E+00  0.00000000000E+00  0.20690339289E+03  0.20690339289E+03  0.00000000000E+00 0.  1.
          1   -1    0    0  501    0 -0.00000000000E+00 -0.00000000000E+00 -0.18166333520E+03  0.18166333520E+03  0.00000000000E+00 0.  1.
          2    1    1    2  501    0  0.45630468446E+02 -0.68948680712E+02 -0.14036633490E+02  0.83863503994E+02  0.00000000000E+00 0.  1.
          1    1    1    2  502    0 -0.84486700303E+02  0.54976047029E+02 -0.76488696936E+02  0.12653414177E+03  0.00000000000E+00 0.  1.
         22    1    1    2    0    0  0.12605210174E+02  0.24730783534E+02 -0.23299156434E+02  0.36240221692E+02  0.00000000000E+00 0.  1.
         22    1    1    2    0    0  0.26251021683E+02 -0.10758149851E+02  0.13906454455E+03  0.14192886063E+03  0.00000000000E+00 0.  1.
</event>
<event>
 6    1  0.2144783E-005  0.4732183E+02  0.7818608E-02  0.1526009E+00
          2   -1    0    0  502    0  0.00000000000E+00  0.00000000000E+00  0.16192164511E+03  0.16192164511E+03  0.00000000000E+00 0.  1.
          1   -1    0    0  501    0 -0.00000000000E+00 -0.00000000000E+00 -0.11943960242E+03  0.11943960242E+03  0.00000000000E+00 0.  1.
          2    1    1    2  501    0  0.62769408156E+02  0.36360852672E+02  0.21462486048E+02  0.75648850055E+02  0.00000000000E+00 0.  1.
          1    1    1    2  502    0 -0.29577578029E+02 -0.48370078199E+02 -0.32797507801E+02  0.65499420646E+02  0.00000000000E+00 0.  1.
         22    1    1    2    0    0 -0.61715582151E+01 -0.13344340996E+02  0.88348813738E+02  0.89563789872E+02  0.00000000000E+00 0.  1.
         22    1    1    2    0    0 -0.27020271913E+02  0.25353566523E+02 -0.34531749300E+02  0.50649186957E+02  0.00000000000E+00 0.  1.
</event>
<event>
 6    1  0.2144783E-005  0.4396283E+02  0.7818608E-02  0.1518711E+00
          2   -1    0    0  502    0  0.00000000000E+00  0.00000000000E+00  0.50698772961E+02  0.50698772961E+02  0.00000000000E+00 0.  1.
          1   -1    0    0  501    0 -0.00000000000E+00 -0.00000000000E+00 -0.30979057300E+03  0.30979057300E+03  0.00000000000E+00 0.  1.
          2    1    1    2  501    0 -0.61871329051E+02  0.17534052884E+02 -0.10527652939E+03  0.12336390076E+03  0.00000000000E+00 0.  1.
          1    1    1    2  502    0  0.41599105758E+02 -0.28043051344E+02 -0.63226209639E+02  0.80712154684E+02  0.00000000000E+00 0.  1.
         22    1    1    2    0    0  0.43011727422E+02  0.49870358127E+01 -0.11482883609E+03  0.12272139512E+03  0.00000000000E+00 0. -1.
         22    1    1    2    0    0 -0.22739504129E+02  0.55219626472E+01  0.24239775084E+02  0.33691895400E+02  0.00000000000E+00 0. -1.
</event>
<event>
 6    1  0.2144783E-005  0.4706664E+02  0.7818608E-02  0.1550838E+00
          2   -1    0    0  502    0  0.00000000000E+00  0.00000000000E+00  0.12473508132E+03  0.12473508132E+03  0.00000000000E+00 0. -1.
          1   -1    0    0  501    0 -0.00000000000E+00 -0.00000000000E+00 -0.16769440440E+03  0.16769440440E+03  0.00000000000E+00 0. -1.
          2    1    1    2  501    0 -0.20891353631E+02 -0.31169622195E+02  0.28990989610E+02  0.47418050181E+02  0.00000000000E+00 0. -1.
          1    1    1    2  502    0  0.19392605374E+02  0.25514511997E+02 -0.10835230736E+03  0.11299241557E+03  0.00000000000E+00 0. -1.
         22    1    1    2    0    0 -0.13794930650E+02  0.22946559351E+01  0.82322677861E+02  0.83502029003E+02  0.00000000000E+00 0. -1.
         22    1    1    2    0    0  0.15293678907E+02  0.33604542637E+01 -0.45920683190E+02  0.48516990962E+02  0.00000000000E+00 0. -1.
</event>
<event>
 6    1  0.2144783E-005  0.1154280E+03  0.7818608E-02  0.1260864E+00
          2   -1    0    0  502    0  0.00000000000E+00  0.00000000000E+00  0.15376111061E+04  0.15376111061E+04  0.00000000000E+00 0. -1.
          1   -1    0    0  501    0 -0.00000000000E+00 -0.00000000000E+00 -0.24016509095E+02  0.24016509095E+02  0.00000000000E+00 0. -1.
          2    1    1    2  501    0 -0.23648509632E+02 -0.96848025993E+02  0.35137441665E+03  0.36524344323E+03  0.00000000000E+00 0. -1.
          1    1    1    2  502    0 -0.75759886636E+02  0.82440484434E+02  0.32946379064E+03  0.34796894005E+03  0.00000000000E+00 0. -1.
         22    1    1    2    0    0 -0.28021618677E+02  0.11282678771E+02  0.93761973043E+02  0.98507956747E+02  0.00000000000E+00 0. -1.
         22    1    1    2    0    0  0.12743001495E+03  0.31248627878E+01  0.73899441663E+03  0.74990727512E+03  0.00000000000E+00 0. -1.
</event>
<event>
 6    1  0.2144783E-005  0.3508834E+02  0.7818608E-02  0.1580170E+00
          2   -1    0    0  502    0  0.00000000000E+00  0.00000000000E+00  0.26189394660E+03  0.26189394660E+03  0.00000000000E+00 0. -1.
          1   -1    0    0  501    0 -0.00000000000E+00 -0.00000000000E+00 -0.12211405715E+03  0.12211405715E+03  0.00000000000E+00 0.  1.
          2    1    1    2  501    0 -0.62254880544E+02  0.17672383599E+01  0.16896518012E+03  0.18007783144E+03  0.00000000000E+00 0. -1.
          1    1    1    2  502    0  0.52662934506E+02 -0.21317516421E+02 -0.46847925658E+02  0.73637961104E+02  0.00000000000E+00 0.  1.
         22    1    1    2    0    0  0.15830547478E+02  0.91248236192E+01 -0.54309983528E+02  0.57301334630E+02  0.00000000000E+00 0.  1.
         22    1    1    2    0    0 -0.62386014398E+01  0.10425454441E+02  0.71972618516E+02  0.72990876582E+02  0.00000000000E+00 0. -1.
</event>
<event>
 6    1  0.2144783E-005  0.7629466E+02  0.7818608E-02  0.1348890E+00
          2   -1    0    0  502    0  0.00000000000E+00  0.00000000000E+00  0.88165230102E+02  0.88165230102E+02  0.00000000000E+00 0.  1.
          1   -1    0    0  501    0 -0.00000000000E+00 -0.00000000000E+00 -0.33041364683E+04  0.33041364683E+04  0.00000000000E+00 0.  1.
          2    1    1    2  501    0  0.18567903903E+03 -0.23608478847E+03 -0.10223630063E+04  0.10655697300E+04  0.00000000000E+00 0.  1.
          1    1    1    2  502    0 -0.19972605019E+03  0.20350649040E+03 -0.21743491539E+04  0.21929659436E+04  0.00000000000E+00 0.  1.
         22    1    1    2    0    0  0.19727451938E+01  0.16868182769E+02 -0.73804497193E+02  0.75733289374E+02  0.00000000000E+00 0.  1.
         22    1    1    2    0    0  0.12074265967E+02  0.15710115300E+02  0.54545419201E+02  0.58032735392E+02  0.00000000000E+00 0. -1.
</event>
<event>
 6    1  0.2144783E-005  0.4078470E+02  0.7818608E-02  0.1502814E+00
          2   -1    0    0  502    0  0.00000000000E+00  0.00000000000E+00  0.17674134732E+03  0.17674134732E+03  0.00000000000E+00 0. -1.
          1   -1    0    0  501    0 -0.00000000000E+00 -0.00000000000E+00 -0.72519282099E+02  0.72519282099E+02  0.00000000000E+00 0. -1.
          2    1    1    2  501    0  0.29799858534E+02  0.20619734540E+02  0.30317051200E+02  0.47247524958E+02  0.00000000000E+00 0. -1.
          1    1    1    2  502    0 -0.18371913706E+02  0.16993224993E+02 -0.26820165979E+02  0.36682669096E+02  0.00000000000E+00 0. -1.
         22    1    1    2    0    0 -0.19107381991E+01 -0.49090877529E+02  0.12641581961E+03  0.13562641566E+03  0.00000000000E+00 0. -1.
         22    1    1    2    0    0 -0.95172066288E+01  0.11477917996E+02 -0.25690639606E+02  0.29704019710E+02  0.00000000000E+00 0. -1.
</event>
<event>
 6    1  0.2144783E-005  0.9591271E+02  0.7818608E-02  0.1361996E+00
          2   -1    0    0  502    0  0.00000000000E+00  0.00000000000E+00  0.12842504886E+04  0.12842504886E+04  0.00000000000E+00 0. -1.
          1   -1    0    0  501    0 -0.00000000000E+00 -0.00000000000E+00 -0.27686713639E+02  0.27686713639E+02  0.00000000000E+00 0.  1.
          2    1    1    2  501    0  0.39765615428E+02  0.10506076735E+02  0.10422831890E+04  0.10430944003E+04  0.00000000000E+00 0. -1.
          1    1    1    2  502    0 -0.97140232637E+01  0.29317643066E+02  0.42540324585E+02  0.52569626770E+02  0.00000000000E+00 0.  1.
         22    1    1    2    0    0 -0.53363880444E+02 -0.27526169204E+02  0.21561145556E+02  0.63798720401E+02  0.00000000000E+00 0.  1.
         22    1    1    2    0    0  0.23312288280E+02 -0.12297550597E+02  0.15017911585E+03  0.15247445482E+03  0.00000000000E+00 0.  1.
</event>
<event>
 6    1  0.2144783E-005  0.6513570E+02  0.7818608E-02  0.1411462E+00
          2   -1    0    0  502    0  0.00000000000E+00  0.00000000000E+00  0.36721037224E+03  0.36721037224E+03  0.00000000000E+00 0. -1.
          1   -1    0    0  501    0 -0.00000000000E+00 -0.00000000000E+00 -0.20473631462E+03  0.20473631462E+03  0.00000000000E+00 0. -1.
          2    1    1    2  501    0 -0.66534965740E+02  0.67189141328E+02  0.21603239680E+03  0.23582043771E+03  0.00000000000E+00 0. -1.
          1    1    1    2  502    0 -0.78565055916E+01 -0.84203413936E+02 -0.14305829321E+03  0.16618548329E+03  0.00000000000E+00 0. -1.
         22    1    1    2    0    0  0.47256287775E+02  0.74562312491E+01 -0.23524805680E+02  0.53311993031E+02  0.00000000000E+00 0. -1.
         22    1    1    2    0    0  0.27135183557E+02  0.95580413585E+01  0.11302475972E+03  0.11662877282E+03  0.00000000000E+00 0. -1.
</event>
<event>
 6    1  0.2144783E-005  0.1113741E+03  0.7818608E-02  0.1269522E+00
          2   -1    0    0  502    0  0.00000000000E+00  0.00000000000E+00  0.77588581539E+02  0.77588581539E+02  0.00000000000E+00 0. -1.
          1   -1    0    0  501    0 -0.00000000000E+00 -0.00000000000E+00 -0.32837032589E+03  0.32837032589E+03  0.00000000000E+00 0. -1.
          2    1    1    2  501    0 -0.10748121763E+03 -0.66586956124E+02 -0.10699903126E+03  0.16563462066E+03  0.00000000000E+00 0. -1.
          1    1    1    2  502    0  0.39498767090E+02  0.20563752927E+02 -0.21375033122E+02  0.49395471220E+02  0.00000000000E+00 0. -1.
         22    1    1    2    0    0  0.31321795046E+02 -0.35082512921E+02 -0.78910557990E+02  0.91862471772E+02  0.00000000000E+00 0.  1.
         22    1    1    2    0    0  0.36660655499E+02  0.81105716119E+02 -0.43497121977E+02  0.99066343775E+02  0.00000000000E+00 0. -1.
</event>
<event>
 6    1  0.2144783E-005  0.5291421E+02  0.7818608E-02  0.1455545E+00
          2   -1    0    0  502    0  0.00000000000E+00  0.00000000000E+00  0.21978870638E+03  0.21978870638E+03  0.00000000000E+00 0.  1.
          1   -1    0    0  501    0 -0.00000000000E+00 -0.00000000000E+00 -0.11721231206E+03  0.11721231206E+03  0.00000000000E+00 0.  1.
          2    1    1    2  501    0  0.73914681023E+02  0.72042498889E+02  0.69845366762E+02  0.12462695124E+03  0.00000000000E+00 0.  1.
          1    1    1    2  502    0 -0.66441773281E+02 -0.31560638524E+02  0.35695898641E+02  0.81760505872E+02  0.00000000000E+00 0.  1.
         22    1    1    2    0    0 -0.20121308402E+02 -0.10188324856E+02  0.57525847207E+02  0.61789093795E+02  0.00000000000E+00 0. -1.
         22    1    1    2    0    0  0.12648400660E+02 -0.30293535508E+02 -0.60490718281E+02  0.68824467532E+02  0.00000000000E+00 0.  1.
</event>
<event>
 6    1  0.2144783E-005  0.9293482E+02  0.7818608E-02  0.1390363E+00
          2   -1    0    0  502    0  0.00000000000E+00  0.00000000000E+00  0.24922932298E+03  0.24922932298E+03  0.00000000000E+00 0.  1.
          1   -1    0    0  501    0 -0.00000000000E+00 -0.00000000000E+00 -0.84522077982E+02  0.84522077982E+02  0.00000000000E+00 0.  1.
          2    1    1    2  501    0 -0.73595991217E+02  0.34885812212E+02  0.10640804593E+03  0.13400023155E+03  0.00000000000E+00 0.  1.
          1    1    1    2  502    0  0.20986613122E+02 -0.31158621461E+02 -0.22009408805E+02  0.43539771446E+02  0.00000000000E+00 0.  1.
         22    1    1    2    0    0  0.52034029733E+02 -0.21910104496E+02 -0.15614702146E+02  0.58578254091E+02  0.00000000000E+00 0.  1.
         22    1    1    2    0    0  0.57534836170E+00  0.18182913744E+02  0.95923310018E+02  0.97633143874E+02  0.00000000000E+00 0.  1.
</event>
<event>
 6    1  0.2144783E-005  0.6647192E+02  0.7818608E-02  0.1417108E+00
          2   -1    0    0  502    0  0.00000000000E+00  0.00000000000E+00  0.17075780849E+03  0.17075780849E+03  0.00000000000E+00 0.  1.
          1   -1    0    0  501    0 -0.00000000000E+00 -0.00000000000E+00 -0.16333845698E+03  0.16333845698E+03  0.00000000000E+00 0.  1.
          2    1    1    2  501    0  0.71486607501E+01 -0.47136571842E+02  0.39618680681E+02  0.61988705539E+02  0.00000000000E+00 0.  1.
          1    1    1    2  502    0 -0.29892544973E+02  0.48767272961E+02 -0.10761726563E+03  0.12187406212E+03  0.00000000000E+00 0.  1.
         22    1    1    2    0    0  0.30885854243E+02 -0.10510501203E+02  0.10940942076E+03  0.11417017114E+03  0.00000000000E+00 0.  1.
         22    1    1    2    0    0 -0.81419700200E+01  0.88798000845E+01 -0.33991484299E+02  0.36063326666E+02  0.00000000000E+00 0. -1.
</event>
<event>
 6    1  0.2144783E-005  0.8470925E+02  0.7818608E-02  0.1365559E+00
          2   -1    0    0  502    0  0.00000000000E+00  0.00000000000E+00  0.24331438532E+03  0.24331438532E+03  0.00000000000E+00 0. -1.
          1   -1    0    0  501    0 -0.00000000000E+00 -0.00000000000E+00 -0.12434683739E+03  0.12434683739E+03  0.00000000000E+00 0. -1.
          2    1    1    2  501    0  0.48031621781E+02 -0.35680794350E+02  0.16208900440E+03  0.17278021045E+03  0.00000000000E+00 0. -1.
          1    1    1    2  502    0 -0.33958200806E+02  0.38350599504E+02 -0.49512610053E+02  0.71242027193E+02  0.00000000000E+00 0. -1.
         22    1    1    2    0    0 -0.12105571260E+02  0.33323700580E+02 -0.47212169724E+02  0.59042381777E+02  0.00000000000E+00 0. -1.
         22    1    1    2    0    0 -0.19678497152E+01 -0.35993505734E+02  0.53603323311E+02  0.64596603297E+02  0.00000000000E+00 0. -1.
</event>
<event>
 6    1  0.2144783E-005  0.3350315E+02  0.7818608E-02  0.1570963E+00
          2   -1    0    0  502    0  0.00000000000E+00  0.00000000000E+00  0.92748091794E+02  0.92748091794E+02  0.00000000000E+00 0.  1.
          1   -1    0    0  501    0 -0.00000000000E+00 -0.00000000000E+00 -0.35865672571E+03  0.35865672571E+03  0.00000000000E+00 0.  1.
          2    1    1    2  501    0 -0.17455728444E+01 -0.71840887123E+02 -0.16488663229E+03  0.17986595452E+03  0.00000000000E+00 0.  1.
          1    1    1    2  502    0  0.60301347397E+01  0.76577119861E+02 -0.12540627569E+03  0.14706172783E+03  0.00000000000E+00 0.  1.
         22    1    1    2    0    0 -0.99587468368E+01  0.98478486147E+01 -0.48216245306E+02  0.50209193105E+02  0.00000000000E+00 0. -1.
         22    1    1    2    0    0  0.56741849416E+01 -0.14584081353E+02  0.72600519366E+02  0.74267942047E+02  0.00000000000E+00 0.  1.
</event>
<event>
 6    1  0.2144783E-005  0.1221366E+03  0.7818608E-02  0.1300354E+00
          2   -1    0    0  502    0  0.00000000000E+00  0.00000000000E+00  0.93058330929E+02  0.93058330929E+02  0.00000000000E+00 0. -1.
          1   -1    0    0  501    0 -0.00000000000E+00 -0.00000000000E+00 -0.37375323200E+03  0.37375323200E+03  0.00000000000E+00 0. -1.
          2    1    1    2  501    0 -0.62598860458E+02  0.14748688686E+02 -0.68569848079E+02  0.94010452686E+02  0.00000000000E+00 0. -1.
          1    1    1    2  502    0  0.11266828446E+03  0.82565883548E+02 -0.78581865981E+02  0.16026970116E+03  0.00000000000E+00 0. -1.
         22    1    1    2    0    0  0.32377041619E+02 -0.19320770373E+02 -0.56647572562E+00  0.37707902176E+02  0.00000000000E+00 0.  1.
         22    1    1    2    0    0 -0.82446465622E+02 -0.77993801861E+02 -0.13297671129E+03  0.17482350691E+03  0.00000000000E+00 0. -1.
</event>
<event>
 6    1  0.2144783E-005  0.8417613E+02  0.7818608E-02  0.1391712E+00
          2   -1    0    0  502    0  0.00000000000E+00  0.00000000000E+00  0.37355153954E+02  0.37355153954E+02  0.00000000000E+00 0. -1.
          1   -1    0    0  501    0 -0.00000000000E+00 -0.00000000000E+00 -0.42336758687E+03  0.42336758687E+03  0.00000000000E+00 0.  1.
          2    1    1    2  501    0  0.45823960716E+02 -0.62467249453E+02 -0.87379984246E+02  0.11677865506E+03  0.00000000000E+00 0. -1.
          1    1    1    2  502    0  0.33531528851E+01  0.21934681009E+02 -0.74824882119E+02  0.78045735626E+02  0.00000000000E+00 0.  1.
         22    1    1    2    0    0 -0.30963996108E+02  0.56097621143E+02 -0.23191631938E+03  0.24060526043E+03  0.00000000000E+00 0. -1.
         22    1    1    2    0    0 -0.18213117493E+02 -0.15565052698E+02  0.81087528341E+01  0.25293089705E+02  0.00000000000E+00 0. -1.
</event>
<event>
 6    1  0.2144783E-005  0.1360030E+03  0.7818608E-02  0.1337921E+00
          2   -1    0    0  502    0  0.00000000000E+00  0.00000000000E+00  0.33431575020E+02  0.33431575020E+02  0.00000000000E+00 0.  1.
          1   -1    0    0  501    0 -0.00000000000E+00 -0.00000000000E+00 -0.20846868352E+04  0.20846868352E+04  0.00000000000E+00 0.  1.
          2    1    1    2  501    0  0.13698113420E+03 -0.74533006994E+02 -0.55575633498E+03  0.57722101844E+03  0.00000000000E+00 0.  1.
          1    1    1    2  502    0 -0.19935741270E+03 -0.23022181962E+02 -0.89771937811E+03  0.91987688345E+03  0.00000000000E+00 0.  1.
         22    1    1    2    0    0  0.51016842326E+02  0.97237718822E+02 -0.59954710459E+03  0.60951999376E+03  0.00000000000E+00 0.  1.
         22    1    1    2    0    0  0.11359436168E+02  0.31747013302E+00  0.17675574553E+01  0.11500514627E+02  0.00000000000E+00 0.  1.
</event>
<event>
 6    1  0.2144783E-005  0.5264213E+02  0.7818608E-02  0.1432348E+00
          2   -1    0    0  502    0  0.00000000000E+00  0.00000000000E+00  0.83585255225E+02  0.83585255225E+02  0.00000000000E+00 0.  1.
          1   -1    0    0  501    0 -0.00000000000E+00 -0.00000000000E+00 -0.21710289386E+03  0.21710289386E+03  0.00000000000E+00 0. -1.
          2    1    1    2  501    0  0.30120206587E+02 -0.52927174287E+01  0.31690204284E+02  0.44039854111E+02  0.00000000000E+00 0.  1.
          1    1    1    2  502    0 -0.34344888574E+02 -0.43575795795E+01 -0.11936755705E+03  0.12428665877E+03  0.00000000000E+00 0. -1.
         22    1    1    2    0    0 -0.15293783970E+02  0.80638380105E+01 -0.85979273550E+02  0.87700403601E+02  0.00000000000E+00 0. -1.
         22    1    1    2    0    0  0.19518465957E+02  0.15864589977E+01  0.40138987685E+02  0.44661232605E+02  0.00000000000E+00 0.  1.
</event>
<event>
 6    1  0.2144783E-005  0.5233044E+02  0.7818608E-02  0.1434436E+00
          2   -1    0    0  502    0  0.00000000000E+00  0.00000000000E+00  0.41841044988E+03  0.41841044988E+03  0.00000000000E+00 0.  1.
          1   -1    0    0  501    0 -0.00000000000E+00 -0.00000000000E+00 -0.59467814825E+02  0.59467814825E+02  0.00000000000E+00 0.  1.
          2    1    1    2  501    0  0.19155885924E+02 -0.16624770860E+02  0.25989868081E+03  0.26113340509E+03  0.00000000000E+00 0.  1.
          1    1    1    2  502    0 -0.32463603066E+02  0.22818856427E+01 -0.21099374373E+02  0.38784998711E+02  0.00000000000E+00 0.  1.
         22    1    1    2    0    0 -0.10898034780E+02  0.14670158384E+02 -0.24913106183E+02  0.30897306820E+02  0.00000000000E+00 0.  1.
         22    1    1    2    0    0  0.24205751922E+02 -0.32727316587E+00  0.14505643481E+03  0.14706255408E+03  0.00000000000E+00 0.  1.
</event>
<event>
 6    1  0.2144783E-005  0.7197615E+02  0.7818608E-02  0.1356933E+00
          2   -1    0    0  502    0  0.00000000000E+00  0.00000000000E+00  0.40740212635E+03  0.40740212635E+03  0.00000000000E+00 0.  1.
          1   -1    0    0  501    0 -0.00000000000E+00 -0.00000000000E+00 -0.49573225836E+02  0.49573225836E+02  0.00000000000E+00 0.  1.
          2    1    1    2  501    0 -0.11546614674E+02  0.45497082676E+02  0.28827818821E+03  0.29207468675E+03  0.00000000000E+00 0.  1.
          1    1    1    2  502    0  0.90635559366E+01 -0.19228589892E+02  0.54711722682E+01  0.21950408685E+02  0.00000000000E+00 0.  1.
         22    1    1    2    0    0  0.20129479232E+00  0.20183783706E+02  0.88255070653E+02  0.90533878411E+02  0.00000000000E+00 0.  1.
         22    1    1    2    0    0  0.22817639450E+01 -0.46452276490E+02 -0.24175530615E+02  0.52416378340E+02  0.00000000000E+00 0.  1.
</event>
<event>
 6    1  0.2144783E-005  0.9404112E+02  0.7818608E-02  0.1371624E+00
          2   -1    0    0  502    0  0.00000000000E+00  0.00000000000E+00  0.20004624840E+03  0.20004624840E+03  0.00000000000E+00 0.  1.
          1   -1    0    0  501    0 -0.00000000000E+00 -0.00000000000E+00 -0.24211389364E+03  0.24211389364E+03  0.00000000000E+00 0. -1.
          2    1    1    2  501    0  0.38379705301E+02 -0.65106156160E+02  0.70741969913E+02  0.10351927191E+03  0.00000000000E+00 0.  1.
          1    1    1    2  502    0 -0.60297416540E+02  0.51962996873E+02 -0.17506291644E+03  0.19230953226E+03  0.00000000000E+00 0. -1.
         22    1    1    2    0    0  0.23637174306E+02 -0.29761210043E+01  0.10129449357E+03  0.10405838617E+03  0.00000000000E+00 0.  1.
         22    1    1    2    0    0 -0.17194630673E+01  0.16119280292E+02 -0.39041192278E+02  0.42272951693E+02  0.00000000000E+00 0. -1.
</event>
<event>
 6    1  0.2144783E-005  0.1873126E+03  0.7818608E-02  0.1243590E+00
          2   -1    0    0  502    0  0.00000000000E+00  0.00000000000E+00  0.22492660662E+03  0.22492660662E+03  0.00000000000E+00 0.  1.
          1   -1    0    0  501    0 -0.00000000000E+00 -0.00000000000E+00 -0.75136627317E+03  0.75136627317E+03  0.00000000000E+00 0.  1.
          2    1    1    2  501    0  0.21278131257E+03 -0.13874958302E+02  0.89435666633E+02  0.23122962594E+03  0.00000000000E+00 0.  1.
          1    1    1    2  502    0 -0.15226696505E+03 -0.85640439553E+00 -0.57789089867E+03  0.59761513773E+03  0.00000000000E+00 0.  1.
         22    1    1    2    0    0 -0.30995795260E+02  0.38941889339E+01  0.47224565497E+02  0.56622112444E+02  0.00000000000E+00 0. -1.
         22    1    1    2    0    0 -0.29518552260E+02  0.10837173763E+02 -0.85209000011E+02  0.90826003686E+02  0.00000000000E+00 0.  1.
</event>
<event>
 6    1  0.2144783E-005  0.9484726E+02  0.7818608E-02  0.1358948E+00
          2   -1    0    0  502    0  0.00000000000E+00  0.00000000000E+00  0.58276091589E+03  0.58276091589E+03  0.00000000000E+00 0.  1.
          1   -1    0    0  501    0 -0.00000000000E+00 -0.00000000000E+00 -0.17303973223E+03  0.17303973223E+03  0.00000000000E+00 0.  1.
          2    1    1    2  501    0 -0.74284288598E+02 -0.19927621121E+02  0.44188462669E+03  0.44852791320E+03  0.00000000000E+00 0.  1.
          1    1    1    2  502    0  0.78326744831E+02 -0.96087276163E+01 -0.12377725976E+03  0.14679310827E+03  0.00000000000E+00 0.  1.
         22    1    1    2    0    0 -0.18471967588E+02  0.21947757987E+02  0.12236037117E+03  0.12567807327E+03  0.00000000000E+00 0.  1.
         22    1    1    2    0    0  0.14429511355E+02  0.75885907503E+01 -0.30746554435E+02  0.34801553373E+02  0.00000000000E+00 0.  1.
</event>
<event>
 6    1  0.2144783E-005  0.1675027E+03  0.7818608E-02  0.1254328E+00
          2   -1    0    0  502    0  0.00000000000E+00  0.00000000000E+00  0.50492407681E+02  0.50492407681E+02  0.00000000000E+00 0.  1.
          1   -1    0    0  501    0 -0.00000000000E+00 -0.00000000000E+00 -0.89261998004E+03  0.89261998004E+03  0.00000000000E+00 0. -1.
          2    1    1    2  501    0  0.12338521444E+02 -0.15494417050E+03 -0.21041105960E+03  0.26159653875E+03  0.00000000000E+00 0.  1.
          1    1    1    2  502    0 -0.13950600143E+02  0.10431239225E+03 -0.38482550558E+03  0.39895659434E+03  0.00000000000E+00 0. -1.
         22    1    1    2    0    0  0.36819497839E+02  0.52086486880E+02 -0.23774649998E+03  0.24615457702E+03  0.00000000000E+00 0. -1.
         22    1    1    2    0    0 -0.35207419141E+02 -0.14547086274E+01 -0.91445071982E+01  0.36404677606E+02  0.00000000000E+00 0.  1.
</event>
<event>
 6    1  0.2144783E-005  0.4120143E+02  0.7818608E-02  0.1511857E+00
          2   -1    0    0  502    0  0.00000000000E+00  0.00000000000E+00  0.31274287656E+03  0.31274287656E+03  0.00000000000E+00 0.  1.
          1   -1    0    0  501    0 -0.00000000000E+00 -0.00000000000E+00 -0.30342369885E+02  0.30342369885E+02  0.00000000000E+00 0.  1.
          2    1    1    2  501    0 -0.14617500762E+02 -0.18922411548E+02  0.11393237373E+02  0.26486503075E+02  0.00000000000E+00 0.  1.
          1    1    1    2  502    0  0.28918146651E+02  0.18255699886E+02  0.24931135465E+02  0.42321286602E+02  0.00000000000E+00 0.  1.
         22    1    1    2    0    0  0.30157844991E+02  0.62461765272E+01  0.77259105366E+01  0.31752165743E+02  0.00000000000E+00 0.  1.
         22    1    1    2    0    0 -0.44458490880E+02 -0.55794648654E+01  0.23835022330E+03  0.24252529103E+03  0.00000000000E+00 0.  1.
</event>
<event>
 6    1  0.2144783E-005  0.9858848E+02  0.7818608E-02  0.1289125E+00
          2   -1    0    0  502    0  0.00000000000E+00  0.00000000000E+00  0.15749011483E+03  0.15749011483E+03  0.00000000000E+00 0.  1.
          1   -1    0    0  501    0 -0.00000000000E+00 -0.00000000000E+00 -0.11337002473E+03  0.11337002473E+03  0.00000000000E+00 0. -1.
          2    1    1    2  501    0  0.42735566541E+02  0.25277671155E+01  0.23484203135E+02  0.48828537261E+02  0.00000000000E+00 0.  1.
          1    1    1    2  502    0 -0.45009302372E+02 -0.57724778950E+02 -0.20812044124E+02  0.76099465080E+02  0.00000000000E+00 0. -1.
         22    1    1    2    0    0  0.39516366844E+02 -0.24894262512E+02 -0.34837526513E+01  0.46833792149E+02  0.00000000000E+00 0.  1.
         22    1    1    2    0    0 -0.37242631013E+02  0.80091274346E+02  0.44931683749E+02  0.99098345070E+02  0.00000000000E+00 0.  1.
</event>
<event>
 6    1  0.2144783E-005  0.6145962E+02  0.7818608E-02  0.1449979E+00
          2   -1    0    0  502    0  0.00000000000E+00  0.00000000000E+00  0.16975676181E+03  0.16975676181E+03  0.00000000000E+00 0.  1.
          1   -1    0    0  501    0 -0.00000000000E+00 -0.00000000000E+00 -0.16173893357E+03  0.16173893357E+03  0.00000000000E+00 0. -1.
          2    1    1    2  501    0  0.74105828414E+02  0.13731480421E+02  0.60600140777E+02  0.96708864236E+02  0.00000000000E+00 0.  1.
          1    1    1    2  502    0 -0.29469012952E+02 -0.18920726468E+02 -0.89240832246E+02  0.95866275376E+02  0.00000000000E+00 0. -1.
         22    1    1    2    0    0  0.70866942959E+01 -0.24118689221E+02 -0.36708336820E+02  0.44490834988E+02  0.00000000000E+00 0. -1.
         22    1    1    2    0    0 -0.51723509758E+02  0.29307935268E+02  0.73366856526E+02  0.94429720787E+02  0.00000000000E+00 0.  1.
</event>
<event>
 6    1  0.2144783E-005  0.5825344E+02  0.7818608E-02  0.1412844E+00
          2   -1    0    0  502    0  0.00000000000E+00  0.00000000000E+00  0.81877950216E+02  0.81877950216E+02  0.00000000000E+00 0.  1.
          1   -1    0    0  501    0 -0.00000000000E+00 -0.00000000000E+00 -0.19663376303E+03  0.19663376303E+03  0.00000000000E+00 0.  1.
          2    1    1    2  501    0 -0.18139065121E+02 -0.15175669680E+02  0.17611669802E+02  0.29487243800E+02  0.00000000000E+00 0.  1.
          1    1    1    2  502    0  0.43259217394E+02 -0.11920968533E+02 -0.10432005202E+03  0.11356118454E+03  0.00000000000E+00 0.  1.
         22    1    1    2    0    0  0.22311053960E+02  0.63151761411E+01 -0.66848220371E+02  0.70755559112E+02  0.00000000000E+00 0.  1.
         22    1    1    2    0    0 -0.47431206233E+02  0.20781462072E+02  0.38800789774E+02  0.64707725796E+02  0.00000000000E+00 0.  1.
</event>
<event>
 6    1  0.2144783E-005  0.8150053E+02  0.7818608E-02  0.1379047E+00
          2   -1    0    0  502    0  0.00000000000E+00  0.00000000000E+00  0.66625359438E+02  0.66625359438E+02  0.00000000000E+00 0. -1.
          1   -1    0    0  501    0 -0.00000000000E+00 -0.00000000000E+00 -0.25784836654E+03  0.25784836654E+03  0.00000000000E+00 0. -1.
          2    1    1    2  501    0 -0.31913360813E+02 -0.56734510234E+02 -0.20743298798E+02  0.68319482543E+02  0.00000000000E+00 0. -1.
          1    1    1    2  502    0  0.32613884637E+02  0.38494450523E+02 -0.95602885759E+02  0.10809902848E+03  0.00000000000E+00 0. -1.
         22    1    1    2    0    0 -0.32373119779E+02  0.13067207193E+01  0.25638249998E+02  0.41316416425E+02  0.00000000000E+00 0. -1.
         22    1    1    2    0    0  0.31672595956E+02  0.16933338992E+02 -0.10051507255E+03  0.10673879854E+03  0.00000000000E+00 0. -1.
</event>
<event>
 6    1  0.2144783E-005  0.3077957E+03  0.7818608E-02  0.1182368E+00
          2   -1    0    0  502    0  0.00000000000E+00  0.00000000000E+00  0.81119367915E+03  0.81119367915E+03  0.00000000000E+00 0.  1.
          1   -1    0    0  501    0 -0.00000000000E+00 -0.00000000000E+00 -0.98337379486E+02  0.98337379486E+02  0.00000000000E+00 0.  1.
          2    1    1    2  501    0  0.12368882177E+03 -0.18047222374E+03  0.22704215643E+03  0.31530507286E+03  0.00000000000E+00 0.  1.
          1    1    1    2  502    0 -0.18570680103E+02  0.87842100831E+02  0.34984922178E+03  0.36118635469E+03  0.00000000000E+00 0.  1.
         22    1    1    2    0    0 -0.25596893715E+02 -0.37866334399E+01  0.99557947151E+02  0.10286556470E+03  0.00000000000E+00 0.  1.
         22    1    1    2    0    0 -0.79521247955E+02  0.96416756345E+02  0.36406974301E+02  0.13017406638E+03  0.00000000000E+00 0.  1.
</event>
<event>
 6    1  0.2144783E-005  0.1017540E+03  0.7818608E-02  0.1351947E+00
          2   -1    0    0  502    0  0.00000000000E+00  0.00000000000E+00  0.68718491061E+02  0.68718491061E+02  0.00000000000E+00 0.  1.
          1   -1    0    0  501    0 -0.00000000000E+00 -0.00000000000E+00 -0.18438959100E+04  0.18438959100E+04  0.00000000000E+00 0.  1.
          2    1    1    2  501    0  0.20079351988E+02 -0.83370919492E+01 -0.25780200627E+02  0.33723971042E+02  0.00000000000E+00 0.  1.
          1    1    1    2  502    0 -0.61789998409E+02  0.53039924342E+01 -0.17466608389E+04  0.17477614890E+04  0.00000000000E+00 0.  1.
         22    1    1    2    0    0  0.25995255579E+02  0.28845876010E+01  0.60530384958E+02  0.65939378686E+02  0.00000000000E+00 0.  1.
         22    1    1    2    0    0  0.15715390841E+02  0.14851191391E+00 -0.63266764381E+02  0.65189562357E+02  0.00000000000E+00 0. -1.
</event>
<event>
 6    1  0.2144783E-005  0.3465962E+02  0.7818608E-02  0.1572867E+00
          2   -1    0    0  502    0  0.00000000000E+00  0.00000000000E+00  0.76697654850E+02  0.76697654850E+02  0.00000000000E+00 0. -1.
          1   -1    0    0  501    0 -0.00000000000E+00 -0.00000000000E+00 -0.21921281733E+03  0.21921281733E+03  0.00000000000E+00 0. -1.
          2    1    1    2  501    0 -0.26092478835E+01 -0.35537089016E+02  0.21434447691E+02  0.41582789927E+02  0.00000000000E+00 0. -1.
          1    1    1    2  502    0  0.75385264558E+01  0.54460328284E+02 -0.92878061809E+02  0.10793095526E+03  0.00000000000E+00 0. -1.
         22    1    1    2    0    0  0.17160319842E+02 -0.74509823001E+01 -0.10369098444E+03  0.10536514589E+03  0.00000000000E+00 0. -1.
         22    1    1    2    0    0 -0.22089598414E+02 -0.11472256967E+02  0.32619436076E+02  0.41031581105E+02  0.00000000000E+00 0. -1.
</event>
<event>
 6    1  0.2144783E-005  0.1402578E+03  0.7818608E-02  0.1269812E+00
          2   -1    0    0  502    0  0.00000000000E+00  0.00000000000E+00  0.26892690482E+03  0.26892690482E+03  0.00000000000E+00 0. -1.
          1   -1    0    0  501    0 -0.00000000000E+00 -0.00000000000E+00 -0.27394695104E+03  0.27394695104E+03  0.00000000000E+00 0.  1.
          2    1    1    2  501    0  0.74230763609E+02  0.71141464005E+02  0.86558706127E+02  0.13440135332E+03  0.00000000000E+00 0. -1.
          1    1    1    2  502    0 -0.88268515583E+02 -0.10185395516E+03 -0.20002791780E+03  0.24119852181E+03  0.00000000000E+00 0.  1.
         22    1    1    2    0    0 -0.10869824853E+02 -0.59415454813E+01 -0.24325958370E+02  0.27298485409E+02  0.00000000000E+00 0.  1.
         22    1    1    2    0    0  0.24907576827E+02  0.36654036631E+02  0.13277512382E+03  0.13997549532E+03  0.00000000000E+00 0.  1.
</event>
<event>
 6    1  0.2144783E-005  0.4250449E+02  0.7818608E-02  0.1511580E+00
          2   -1    0    0  502    0  0.00000000000E+00  0.00000000000E+00  0.12189805512E+03  0.12189805512E+03  0.00000000000E+00 0.  1.
          1   -1    0    0  501    0 -0.00000000000E+00 -0.00000000000E+00 -0.25451388655E+03  0.25451388655E+03  0.00000000000E+00 0. -1.
          2    1    1    2  501    0  0.31811538594E+02 -0.15503994696E+02  0.34606306352E+02  0.49496911809E+02  0.00000000000E+00 0.  1.
          1    1    1    2  502    0 -0.25944734223E+01 -0.46314106265E+02 -0.17856958423E+03  0.18449613585E+03  0.00000000000E+00 0. -1.
         22    1    1    2    0    0  0.33887305682E+01  0.31668710473E+02  0.65232516615E+02  0.72592506099E+02  0.00000000000E+00 0.  1.
         22    1    1    2    0    0 -0.32605795740E+02  0.30149390488E+02 -0.53885070172E+02  0.69826387921E+02  0.00000000000E+00 0. -1.
</event>
<event>
 6    1  0.2144783E-005  0.1058937E+03  0.7818608E-02  0.1375619E+00
          2   -1    0    0  502    0  0.00000000000E+00  0.00000000000E+00  0.53341099514E+02  0.53341099514E+02  0.00000000000E+00 0.  1.
          1   -1    0    0  501    0 -0.00000000000E+00 -0.00000000000E+00 -0.50961421698E+03  0.50961421698E+03  0.00000000000E+00 0.  1.
          2    1    1    2  501    0 -0.26334270923E+02 -0.52283033087E+02  0.13941387293E+02  0.60177833572E+02  0.00000000000E+00 0.  1.
          1    1    1    2  502    0 -0.21034922480E+02  0.33598957160E+01 -0.15802179504E+03  0.15945107266E+03  0.00000000000E+00 0.  1.
         22    1    1    2    0    0 -0.14914408551E+02 -0.46544178283E+01  0.44127074607E+01  0.16234998456E+02  0.00000000000E+00 0.  1.
         22    1    1    2    0    0  0.62283601953E+02  0.53577555199E+02 -0.31660541718E+03  0.32709141181E+03  0.00000000000E+00 0.  1.
</event>
<event>
 6    1  0.2144783E-005  0.7915909E+02  0.7818608E-02  0.1417668E+00
          2   -1    0    0  502    0  0.00000000000E+00  0.00000000000E+00  0.34307400986E+03  0.34307400986E+03  0.00000000000E+00 0. -1.
          1   -1    0    0  501    0 -0.00000000000E+00 -0.00000000000E+00 -0.43486940635E+03  0.43486940635E+03  0.00000000000E+00 0. -1.
          2    1    1    2  501    0 -0.47281260518E+02  0.46884640216E+02  0.26642227411E+03  0.27461703375E+03  0.00000000000E+00 0. -1.
          1    1    1    2  502    0  0.41050274994E+02 -0.51716872328E+02 -0.37390722482E+03  0.37969247127E+03  0.00000000000E+00 0. -1.
         22    1    1    2    0    0  0.18406288675E+02  0.52923955646E+01 -0.51709570155E+02  0.55142366283E+02  0.00000000000E+00 0.  1.
         22    1    1    2    0    0 -0.12175303151E+02 -0.46016345307E+00  0.67399124379E+02  0.68491544911E+02  0.00000000000E+00 0. -1.
</event>
<event>
 6    1  0.2144783E-005  0.3055004E+02  0.7818608E-02  0.1624478E+00
          2   -1    0    0  502    0  0.00000000000E+00  0.00000000000E+00  0.86629166667E+02  0.86629166667E+02  0.00000000000E+00 0. -1.
          1   -1    0    0  501    0 -0.00000000000E+00 -0.00000000000E+00 -0.31023818202E+03  0.31023818202E+03  0.00000000000E+00 0.  1.
          2    1    1    2  501    0  0.55567371013E+02 -0.14549317363E+02  0.51316213833E+01  0.57669306351E+02  0.00000000000E+00 0. -1.
          1    1    1    2  502    0 -0.31339890543E+02  0.32363222021E+02 -0.20808774713E+03  0.21290861275E+03  0.00000000000E+00 0.  1.
         22    1    1    2    0    0 -0.11670195090E+02 -0.44868880695E+01 -0.71323832332E+02  0.72411426422E+02  0.00000000000E+00 0.  1.
         22    1    1    2    0    0 -0.12557285379E+02 -0.13327016588E+02  0.50670942729E+02  0.53878003157E+02  0.00000000000E+00 0. -1.
</event>
<event>
 6    1  0.2144783E-005  0.4923422E+02  0.7818608E-02  0.1475830E+00
          2   -1    0    0  502    0  0.00000000000E+00  0.00000000000E+00  0.10668454386E+03  0.10668454386E+03  0.00000000000E+00 0. -1.
          1   -1    0    0  501    0 -0.00000000000E+00 -0.00000000000E+00 -0.10860627003E+04  0.10860627003E+04  0.00000000000E+00 0. -1.
          2    1    1    2  501    0 -0.16308722505E+02 -0.85670661586E+02 -0.71376799617E+02  0.11269465032E+03  0.00000000000E+00 0. -1.
          1    1    1    2  502    0 -0.13894334331E+01  0.81386327209E+02 -0.94457880782E+03  0.94807952671E+03  0.00000000000E+00 0. -1.
         22    1    1    2    0    0 -0.46266126135E+01  0.16872812564E+02 -0.44035608495E+02  0.47383880842E+02  0.00000000000E+00 0.  1.
         22    1    1    2    0    0  0.22324768551E+02 -0.12588478186E+02  0.80613059503E+02  0.84589186285E+02  0.00000000000E+00 0. -1.
</event>
<event>
 6    1  0.2144783E-005  0.5735034E+02  0.7818608E-02  0.1496937E+00
          2   -1    0    0  502    0  0.00000000000E+00  0.00000000000E+00  0.15968085757E+03  0.15968085757E+03  0.00000000000E+00 0.  1.
          1   -1    0    0  501    0 -0.00000000000E+00 -0.00000000000E+00 -0.45100679051E+03  0.45100679051E+03  0.00000000000E+00 0.  1.
          2    1    1    2  501    0 -0.30075919860E+02  0.47653593484E+02  0.12917989130E+03  0.14093569542E+03  0.00000000000E+00 0.  1.
          1    1    1    2  502    0 -0.45288537847E+02 -0.35689070310E+02 -0.15285104638E+03  0.16336524655E+03  0.00000000000E+00 0.  1.
         22    1    1    2    0    0  0.62910931221E+02 -0.21802043181E+01 -0.27956898607E+03  0.28656824062E+03  0.00000000000E+00 0.  1.
         22    1    1    2    0    0  0.12453526487E+02 -0.97843188560E+01  0.11914208205E+02  0.19818465495E+02  0.00000000000E+00 0.  1.
</event>
<event>
 6    1  0.2144783E-005  0.1279119E+03  0.7818608E-02  0.1367805E+00
          2   -1    0    0  502    0  0.00000000000E+00  0.00000000000E+00  0.33584182268E+02  0.33584182268E+02  0.00000000000E+00 0. -1.
          1   -1    0    0  501    0 -0.00000000000E+00 -0.00000000000E+00 -0.59935606321E+03  0.59935606321E+03  0.00000000000E+00 0. -1.
          2    1    1    2  501    0 -0.55860027314E+02 -0.83642660477E+02 -0.20737762554E+03  0.23048192310E+03  0.00000000000E+00 0. -1.
          1    1    1    2  502    0 -0.83783616626E+01  0.25111469676E+02 -0.33679318436E+02  0.42837826086E+02  0.00000000000E+00 0. -1.
         22    1    1    2    0    0  0.73501954531E+02  0.62519315072E+02 -0.33291793746E+03  0.34662018862E+03  0.00000000000E+00 0. -1.
         22    1    1    2    0    0 -0.92635655551E+01 -0.39881242713E+01  0.82030005018E+01  0.13000307659E+02  0.00000000000E+00 0. -1.
</event>
<event>
 6    1  0.2144783E-005  0.7685259E+02  0.7818608E-02  0.1339491E+00
          2   -1    0    0  502    0  0.00000000000E+00  0.00000000000E+00  0.59129889089E+02  0.59129889089E+02  0.00000000000E+00 0.  1.
          1   -1    0    0  501    0 -0.00000000000E+00 -0.00000000000E+00 -0.30367984769E+03  0.30367984769E+03  0.00000000000E+00 0. -1.
          2    1    1    2  501    0 -0.49612674261E+02 -0.13235477234E+02  0.61111722876E+01  0.51710170486E+02  0.00000000000E+00 0.  1.
          1    1    1    2  502    0  0.44178437264E+02  0.10511125439E+02 -0.13284431223E+03  0.14039169979E+03  0.00000000000E+00 0. -1.
         22    1    1    2    0    0 -0.20288068914E+02 -0.66302182716E+01  0.20568563005E+02  0.29641715852E+02  0.00000000000E+00 0.  1.
         22    1    1    2    0    0  0.25722305911E+02  0.93545700669E+01 -0.13838538166E+03  0.14106615065E+03  0.00000000000E+00 0. -1.
</event>
<event>
 6    1  0.2144783E-005  0.3118442E+02  0.7818608E-02  0.1640345E+00
          2   -1    0    0  502    0  0.00000000000E+00  0.00000000000E+00  0.65614937568E+02  0.65614937568E+02  0.00000000000E+00 0.  1.
          1   -1    0    0  501    0 -0.00000000000E+00 -0.00000000000E+00 -0.20495787481E+03  0.20495787481E+03  0.00000000000E+00 0.  1.
          2    1    1    2  501    0 -0.38654179371E+02 -0.78974395515E+01  0.15292092529E+02  0.42312684011E+02  0.00000000000E+00 0.  1.
          1    1    1    2  502    0  0.34926855247E+02 -0.30240095951E+01 -0.68225759020E+02  0.76705827975E+02  0.00000000000E+00 0.  1.
         22    1    1    2    0    0 -0.82298991321E+01 -0.80487592838E+01  0.30455059467E+02  0.32558016108E+02  0.00000000000E+00 0. -1.
         22    1    1    2    0    0  0.11957223256E+02  0.18970208430E+02 -0.11686433022E+03  0.11899628428E+03  0.00000000000E+00 0.  1.
</event>
<event>
 6    1  0.2144783E-005  0.8956648E+02  0.7818608E-02  0.1355052E+00
          2   -1    0    0  502    0  0.00000000000E+00  0.00000000000E+00  0.87945907147E+02  0.87945907147E+02  0.00000000000E+00 0.  1.
          1   -1    0    0  501    0 -0.00000000000E+00 -0.00000000000E+00 -0.43979827685E+03  0.43979827685E+03  0.00000000000E+00 0. -1.
          2    1    1    2  501    0 -0.77707126717E+02  0.87293682463E+02  0.81223952340E+01  0.11715185805E+03  0.00000000000E+00 0.  1.
          1    1    1    2  502    0  0.21522239431E+02 -0.92509196401E+01 -0.12675647190E+03  0.12890302352E+03  0.00000000000E+00 0. -1.
         22    1    1    2    0    0  0.10571830629E+02 -0.34811819919E+02  0.37077450504E+01  0.36570121442E+02  0.00000000000E+00 0.  1.
         22    1    1    2    0    0  0.45613056656E+02 -0.43230942904E+02 -0.23692603809E+03  0.24511918099E+03  0.00000000000E+00 0. -1.
</event>
<event>
 6    1  0.2144783E-005  0.1035885E+03  0.7818608E-02  0.1391465E+00
          2   -1    0    0  502    0  0.00000000000E+00  0.00000000000E+00  0.45654004170E+03  0.45654004170E+03  0.00000000000E+00 0. -1.
          1   -1    0    0  501    0 -0.00000000000E+00 -0.00000000000E+00 -0.22391052937E+03  0.22391052937E+03  0.00000000000E+00 0.  1.
          2    1    1    2  501    0  0.87812604150E+02 -0.53689446626E+02  0.36645245482E+03  0.38063238403E+03  0.00000000000E+00 0. -1.
          1    1    1    2  502    0 -0.46768209682E+02  0.45698611983E+02 -0.15024031159E+03  0.16385292125E+03  0.00000000000E+00 0.  1.
         22    1    1    2    0    0 -0.50635467193E+01  0.11871562927E+02  0.70069772271E+02  0.71248484179E+02  0.00000000000E+00 0.  1.
         22    1    1    2    0    0 -0.35980847749E+02 -0.38807282836E+01 -0.53652403170E+02  0.64716781616E+02  0.00000000000E+00 0.  1.
</event>
<event>
 6    1  0.2144783E-005  0.9307939E+02  0.7818608E-02  0.1362053E+00
          2   -1    0    0  502    0  0.00000000000E+00  0.00000000000E+00  0.11881117463E+03  0.11881117463E+03  0.00000000000E+00 0. -1.
          1   -1    0    0  501    0 -0.00000000000E+00 -0.00000000000E+00 -0.17945412697E+03  0.17945412697E+03  0.00000000000E+00 0.  1.
          2    1    1    2  501    0 -0.52179204723E+02  0.22376434879E+02  0.53934057295E+02  0.78308727354E+02  0.00000000000E+00 0. -1.
          1    1    1    2  502    0  0.16707180118E+02  0.23092784726E+02 -0.64098819386E+02  0.70150304494E+02  0.00000000000E+00 0.  1.
         22    1    1    2    0    0  0.11454433820E+02 -0.61381248777E+02 -0.84600427230E+02  0.10514796262E+03  0.00000000000E+00 0.  1.
         22    1    1    2    0    0  0.24017590785E+02  0.15912029171E+02  0.34122236983E+02  0.44658307136E+02  0.00000000000E+00 0. -1.
</event>
<event>
 6    1  0.2144783E-005  0.1723288E+03  0.7818608E-02  0.1236390E+00
          2   -1    0    0  502    0  0.00000000000E+00  0.00000000000E+00  0.14041432978E+03  0.14041432978E+03  0.00000000000E+00 0.  1.
          1   -1    0    0  501    0 -0.00000000000E+00 -0.00000000000E+00 -0.30089599453E+03  0.30089599453E+03  0.00000000000E+00 0.  1.
          2    1    1    2  501    0 -0.10146418123E+03 -0.48703654979E+02 -0.61816105126E+02  0.12840660783E+03  0.00000000000E+00 0.  1.
          1    1    1    2  502    0  0.12835650483E+03  0.78449161875E+02 -0.69509384039E+01  0.15059209434E+03  0.00000000000E+00 0.  1.
         22    1    1    2    0    0  0.15766584101E+02  0.43674931176E+02 -0.48084837011E+02  0.66844867700E+02  0.00000000000E+00 0. -1.
         22    1    1    2    0    0 -0.42658907703E+02 -0.73420438072E+02 -0.43629784207E+02  0.95466754438E+02  0.00000000000E+00 0.  1.
</event>
<event>
 6    1  0.2144783E-005  0.2326497E+02  0.7818608E-02  0.1700043E+00
          2   -1    0    0  502    0  0.00000000000E+00  0.00000000000E+00  0.13624017355E+03  0.13624017355E+03  0.00000000000E+00 0.  1.
          1   -1    0    0  501    0 -0.00000000000E+00 -0.00000000000E+00 -0.73734985235E+02  0.73734985235E+02  0.00000000000E+00 0. -1.
          2    1    1    2  501    0  0.19158233194E+02  0.15551705901E+02  0.21373735081E+02  0.32645520472E+02  0.00000000000E+00 0.  1.
          1    1    1    2  502    0 -0.29398767720E+02  0.85604764037E+01 -0.17760945981E+02  0.35398029632E+02  0.00000000000E+00 0. -1.
         22    1    1    2    0    0  0.15078486493E+02 -0.61960081021E+01  0.97628160733E+02  0.98979841581E+02  0.00000000000E+00 0.  1.
         22    1    1    2    0    0 -0.48379519672E+01 -0.17916174203E+02 -0.38735761514E+02  0.42951767105E+02  0.00000000000E+00 0. -1.
</event>
<event>
 6    1  0.2144783E-005  0.5381352E+02  0.7818608E-02  0.1430021E+00
          2   -1    0    0  502    0  0.00000000000E+00  0.00000000000E+00  0.89101455215E+02  0.89101455215E+02  0.00000000000E+00 0. -1.
          1   -1    0    0  501    0 -0.00000000000E+00 -0.00000000000E+00 -0.10391437126E+04  0.10391437126E+04  0.00000000000E+00 0. -1.
          2    1    1    2  501    0 -0.15614155059E+03  0.38428757920E+02 -0.58284152717E+03  0.60461657192E+03  0.00000000000E+00 0. -1.
          1    1    1    2  502    0  0.16275657926E+03 -0.36923070113E+02 -0.36048520752E+03  0.39724375645E+03  0.00000000000E+00 0. -1.
         22    1    1    2    0    0 -0.25614046054E+01  0.16448493052E+02  0.57355492708E+02  0.59722410040E+02  0.00000000000E+00 0. -1.
         22    1    1    2    0    0 -0.40536240623E+01 -0.17954180859E+02 -0.64071015453E+02  0.66662429445E+02  0.00000000000E+00 0. -1.
</event>
<event>
 6    1  0.2144783E-005  0.2825780E+02  0.7818608E-02  0.1659035E+00
          2   -1    0    0  502    0  0.00000000000E+00  0.00000000000E+00  0.81943936585E+02  0.81943936585E+02  0.00000000000E+00 0.  1.
          1   -1    0    0  501    0 -0.00000000000E+00 -0.00000000000E+00 -0.68351082738E+03  0.68351082738E+03  0.00000000000E+00 0. -1.
          2    1    1    2  501    0 -0.34473783853E+02  0.62233900721E+00  0.12337330862E+02  0.36620196774E+02  0.00000000000E+00 0.  1.
          1    1    1    2  502    0  0.30386461580E+02  0.92897040285E+01 -0.59649009279E+03  0.59733580710E+03  0.00000000000E+00 0. -1.
         22    1    1    2    0    0  0.81061327649E+01  0.88281425606E+01 -0.72339369535E+02  0.73325506301E+02  0.00000000000E+00 0.  1.
         22    1    1    2    0    0 -0.40188104922E+01 -0.18740185596E+02  0.54925240668E+02  0.58173253789E+02  0.00000000000E+00 0.  1.
</event>
<event>
 6    1  0.2144783E-005  0.1327416E+03  0.7818608E-02  0.1224228E+00
          2   -1    0    0  502    0  0.00000000000E+00  0.00000000000E+00  0.96678361899E+02  0.96678361899E+02  0.00000000000E+00 0.  1.
          1   -1    0    0  501    0 -0.00000000000E+00 -0.00000000000E+00 -0.30732094177E+03  0.30732094177E+03  0.00000000000E+00 0. -1.
          2    1    1    2  501    0  0.83714163062E+02  0.74448750911E+02  0.10042213347E+02  0.11247899207E+03  0.00000000000E+00 0.  1.
          1    1    1    2  502    0 -0.45133017845E+02 -0.33738363175E+02 -0.75276609784E+02  0.94031029082E+02  0.00000000000E+00 0. -1.
         22    1    1    2    0    0  0.16802361804E+02  0.37686327287E+01  0.14501554438E+02  0.22512597272E+02  0.00000000000E+00 0. -1.
         22    1    1    2    0    0 -0.55383507021E+02 -0.44479020464E+02 -0.15990973787E+03  0.17497668524E+03  0.00000000000E+00 0. -1.
</event>
<event>
 6    1  0.2144783E-005  0.1995516E+03  0.7818608E-02  0.1274849E+00
          2   -1    0    0  502    0  0.00000000000E+00  0.00000000000E+00  0.27752411889E+03  0.27752411889E+03  0.00000000000E+00 0.  1.
          1   -1    0    0  501    0 -0.00000000000E+00 -0.00000000000E+00 -0.26492380441E+03  0.26492380441E+03  0.00000000000E+00 0.  1.
          2    1    1    2  501    0  0.18863709435E+03 -0.42054197017E+02  0.16622432863E+03  0.25491770492E+03  0.00000000000E+00 0.  1.
          1    1    1    2  502    0 -0.22151435445E+02 -0.14855082007E+02 -0.13303983972E+02  0.29805293879E+02  0.00000000000E+00 0.  1.
         22    1    1    2    0    0 -0.15662304424E+03  0.66795709174E+02 -0.15996232199E+03  0.23362446192E+03  0.00000000000E+00 0.  1.
         22    1    1    2    0    0 -0.98626146663E+01 -0.98864301507E+01  0.19642291811E+02  0.24100462584E+02  0.00000000000E+00 0.  1.
</event>
<event>
 6    1  0.2144783E-005  0.2430107E+02  0.7818608E-02  0.1716725E+00
          2   -1    0    0  502    0  0.00000000000E+00  0.00000000000E+00  0.22379041062E+03  0.22379041062E+03  0.00000000000E+00 0. -1.
          1   -1    0    0  501    0 -0.00000000000E+00 -0.00000000000E+00 -0.17117837623E+03  0.17117837623E+03  0.00000000000E+00 0.  1.
          2    1    1    2  501    0 -0.68887761835E+00  0.26290277306E+02  0.18062144713E+03  0.18252605402E+03  0.00000000000E+00 0. -1.
          1    1    1    2  502    0  0.26670349930E+02 -0.15919659492E+02 -0.66846051938E+02  0.73709821486E+02  0.00000000000E+00 0.  1.
         22    1    1    2    0    0 -0.14398033343E+02 -0.12656062208E+02 -0.98099852857E+02  0.99955292033E+02  0.00000000000E+00 0.  1.
         22    1    1    2    0    0 -0.11583438968E+02  0.22854443939E+01  0.36936492056E+02  0.38777619316E+02  0.00000000000E+00 0. -1.
</event>
<event>
 6    1  0.2144783E-005  0.9309908E+02  0.7818608E-02  0.1319772E+00
          2   -1    0    0  502    0  0.00000000000E+00  0.00000000000E+00  0.15883427514E+03  0.15883427514E+03  0.00000000000E+00 0. -1.
          1   -1    0    0  501    0 -0.00000000000E+00 -0.00000000000E+00 -0.16929565971E+03  0.16929565971E+03  0.00000000000E+00 0. -1.
          2    1    1    2  501    0  0.72495762832E+01 -0.11325921309E+03 -0.56346869638E+02  0.12670901872E+03  0.00000000000E+00 0. -1.
          1    1    1    2  502    0  0.18970704387E+02  0.13316288187E+02 -0.14561263578E+02  0.27372277089E+02  0.00000000000E+00 0. -1.
         22    1    1    2    0    0  0.15299092448E+02  0.56840525808E+02 -0.29632075288E+02  0.65901194904E+02  0.00000000000E+00 0. -1.
         22    1    1    2    0    0 -0.41519373119E+02  0.43102399099E+02  0.90078823928E+02  0.10814744413E+03  0.00000000000E+00 0. -1.
</event>
<event>
 6    1  0.2144783E-005  0.3814887E+02  0.7818608E-02  0.1623060E+00
          2   -1    0    0  502    0  0.00000000000E+00  0.00000000000E+00  0.76238036625E+02  0.76238036625E+02  0.00000000000E+00 0.  1.
          1   -1    0    0  501    0 -0.00000000000E+00 -0.00000000000E+00 -0.29835491028E+03  0.29835491028E+03  0.00000000000E+00 0. -1.
          2    1    1    2  501    0 -0.25875004502E+02 -0.11423497385E+02 -0.26678861134E+00  0.28285744230E+02  0.00000000000E+00 0.  1.
          1    1    1    2  502    0  0.21681644179E+02  0.12030713401E+02 -0.21542186928E+03  0.21684421487E+03  0.00000000000E+00 0. -1.
         22    1    1    2    0    0  0.95623030750E+01  0.88174926750E+01 -0.66835597261E+02  0.68089521062E+02  0.00000000000E+00 0.  1.
         22    1    1    2    0    0 -0.53689427519E+01 -0.94247086906E+01  0.60407381499E+02  0.61373466740E+02  0.00000000000E+00 0.  1.
</event>
<event>
 6    1  0.2144783E-005  0.4301495E+02  0.7818608E-02  0.1491419E+00
          2   -1    0    0  502    0  0.00000000000E+00  0.00000000000E+00  0.27452177956E+03  0.27452177956E+03  0.00000000000E+00 0.  1.
          1   -1    0    0  501    0 -0.00000000000E+00 -0.00000000000E+00 -0.63692284958E+02  0.63692284958E+02  0.00000000000E+00 0. -1.
          2    1    1    2  501    0  0.56670115264E+02 -0.13061253826E+02  0.64539753528E+02  0.86876222875E+02  0.00000000000E+00 0.  1.
          1    1    1    2  502    0 -0.60810682689E+02  0.11950378390E+02  0.41683552643E+01  0.62113813748E+02  0.00000000000E+00 0. -1.
         22    1    1    2    0    0  0.43834471318E+01 -0.28971888234E+02  0.15408677523E+03  0.15684807687E+03  0.00000000000E+00 0.  1.
         22    1    1    2    0    0 -0.24287970710E+00  0.30082763670E+02 -0.11965389423E+02  0.32375951023E+02  0.00000000000E+00 0. -1.
</event>
<event>
 6    1  0.2144783E-005  0.7779873E+02  0.7818608E-02  0.1336364E+00
          2   -1    0    0  502    0  0.00000000000E+00  0.00000000000E+00  0.15576307579E+03  0.15576307579E+03  0.00000000000E+00 0.  1.
          1   -1    0    0  501    0 -0.00000000000E+00 -0.00000000000E+00 -0.29431119430E+03  0.29431119430E+03  0.00000000000E+00 0.  1.
          2    1    1    2  501    0 -0.16018832036E+02 -0.38244671557E+02 -0.20682267503E+03  0.21093808757E+03  0.00000000000E+00 0.  1.
          1    1    1    2  502    0  0.10804469858E+02  0.86756964065E+02  0.42947764382E+01  0.87532579577E+02  0.00000000000E+00 0.  1.
         22    1    1    2    0    0 -0.28636600714E+02  0.20118069267E+02 -0.18086622657E+02  0.39394384506E+02  0.00000000000E+00 0.  1.
         22    1    1    2    0    0  0.33850962892E+02 -0.68630361775E+02  0.82066402736E+02  0.11220921845E+03  0.00000000000E+00 0.  1.
</event>
<event>
 6    1  0.2144783E-005  0.6886834E+02  0.7818608E-02  0.1430072E+00
          2   -1    0    0  502    0  0.00000000000E+00  0.00000000000E+00  0.34468081036E+02  0.34468081036E+02  0.00000000000E+00 0.  1.
          1   -1    0    0  501    0 -0.00000000000E+00 -0.00000000000E+00 -0.32046963547E+03  0.32046963547E+03  0.00000000000E+00 0.  1.
          2    1    1    2  501    0 -0.18034838159E+02  0.13704107781E+02 -0.13637739839E+02  0.26439476270E+02  0.00000000000E+00 0.  1.
          1    1    1    2  502    0  0.87608098537E+01 -0.29570822485E+02 -0.14653404780E+03  0.14974449071E+03  0.00000000000E+00 0.  1.
         22    1    1    2    0    0 -0.11808985163E+01  0.37534035120E+02 -0.14386563752E+03  0.14868597772E+03  0.00000000000E+00 0.  1.
         22    1    1    2    0    0  0.10454926822E+02 -0.21667320416E+02  0.18035870721E+02  0.30067771809E+02  0.00000000000E+00 0. -1.
</event>
<event>
 6    1  0.2144783E-005  0.5388415E+02  0.7818608E-02  0.1526256E+00
          2   -1    0    0  502    0  0.00000000000E+00  0.00000000000E+00  0.45451786870E+02  0.45451786870E+02  0.00000000000E+00 0. -1.
          1   -1    0    0  501    0 -0.00000000000E+00 -0.00000000000E+00 -0.41802464966E+03  0.41802464966E+03  0.00000000000E+00 0.  1.
          2    1    1    2  501    0 -0.46677758946E+02  0.26286693174E+02 -0.74271825416E+01  0.54082959042E+02  0.00000000000E+00 0. -1.
          1    1    1    2  502    0  0.12182735441E+02 -0.17060266998E+02 -0.20261454922E+03  0.20369616419E+03  0.00000000000E+00 0.  1.
         22    1    1    2    0    0  0.25359733321E+02 -0.18253392093E+02 -0.18073667816E+03  0.18341769061E+03  0.00000000000E+00 0.  1.
         22    1    1    2    0    0  0.91352901842E+01  0.90269659171E+01  0.18205547132E+02  0.22279622680E+02  0.00000000000E+00 0. -1.
</event>
<event>
 6    1  0.2144783E-005  0.6940463E+02  0.7818608E-02  0.1436577E+00
          2   -1    0    0  502    0  0.00000000000E+00  0.00000000000E+00  0.10131564561E+03  0.10131564561E+03  0.00000000000E+00 0. -1.
          1   -1    0    0  501    0 -0.00000000000E+00 -0.00000000000E+00 -0.13901839492E+03  0.13901839492E+03  0.00000000000E+00 0. -1.
          2    1    1    2  501    0 -0.27844240740E+02 -0.49482992947E+02 -0.17636458013E+02  0.59455134216E+02  0.00000000000E+00 0. -1.
          1    1    1    2  502    0  0.48169528624E+01  0.27214202269E+02 -0.43398971607E+02  0.51451788856E+02  0.00000000000E+00 0. -1.
         22    1    1    2    0    0  0.38877958270E+01 -0.20949515788E+02  0.63762358394E+02  0.67228234516E+02  0.00000000000E+00 0. -1.
         22    1    1    2    0    0  0.19139492051E+02  0.43218306466E+02 -0.40429678084E+02  0.62198882946E+02  0.00000000000E+00 0.  1.
</event>
<event>
 6    1  0.2144783E-005  0.1122818E+03  0.7818608E-02  0.1355529E+00
          2   -1    0    0  502    0  0.00000000000E+00  0.00000000000E+00  0.32146593919E+03  0.32146593919E+03  0.00000000000E+00 0. -1.
          1   -1    0    0  501    0 -0.00000000000E+00 -0.00000000000E+00 -0.75083094030E+02  0.75083094030E+02  0.00000000000E+00 0. -1.
          2    1    1    2  501    0  0.31537631845E+01 -0.21392831404E+02  0.90572789855E-01  0.21624237816E+02  0.00000000000E+00 0. -1.
          1    1    1    2  502    0  0.72179544205E+02  0.93126741062E+02  0.68382498757E+02  0.13623010915E+03  0.00000000000E+00 0. -1.
         22    1    1    2    0    0 -0.90606607818E+02 -0.61619907333E+02  0.71772099397E+02  0.13098780329E+03  0.00000000000E+00 0. -1.
         22    1    1    2    0    0  0.15273300429E+02 -0.10114002325E+02  0.10613767421E+03  0.10770688296E+03  0.00000000000E+00 0. -1.
</event>
<event>
 6    1  0.2144783E-005  0.2467674E+02  0.7818608E-02  0.1671829E+00
          2   -1    0    0  502    0  0.00000000000E+00  0.00000000000E+00  0.40724295274E+02  0.40724295274E+02  0.00000000000E+00 0. -1.
          1   -1    0    0  501    0 -0.00000000000E+00 -0.00000000000E+00 -0.64198934848E+03  0.64198934848E+03  0.00000000000E+00 0. -1.
          2    1    1    2  501    0  0.20648345963E+02  0.67371181583E+01 -0.46101031430E+03  0.46152167104E+03  0.00000000000E+00 0. -1.
          1    1    1    2  502    0 -0.33037852647E+02 -0.16596203553E+02 -0.72431744083E+02  0.81322144776E+02  0.00000000000E+00 0. -1.
         22    1    1    2    0    0  0.15007768452E+02 -0.84103396027E+01 -0.10070416491E+03  0.10216308411E+03  0.00000000000E+00 0. -1.
         22    1    1    2    0    0 -0.26182617678E+01  0.18269424998E+02  0.32881170077E+02  0.37706743828E+02  0.00000000000E+00 0. -1.
</event>
<event>
 6    1  0.2144783E-005  0.7438004E+02  0.7818608E-02  0.1472194E+00
          2   -1    0    0  502    0  0.00000000000E+00  0.00000000000E+00  0.24387312445E+02  0.24387312445E+02  0.00000000000E+00 0. -1.
          1   -1    0    0  501    0 -0.00000000000E+00 -0.00000000000E+00 -0.36051767879E+03  0.36051767879E+03  0.00000000000E+00 0. -1.
          2    1    1    2  501    0 -0.92763942671E+01 -0.24237524009E+02 -0.40946478735E+02  0.48478069078E+02  0.00000000000E+00 0. -1.
          1    1    1    2  502    0 -0.25326462985E+02  0.39365121751E+01 -0.90217491133E+02  0.93787640773E+02  0.00000000000E+00 0. -1.
         22    1    1    2    0    0  0.44630221067E+02  0.22543246866E+02 -0.21934218628E+03  0.22496899629E+03  0.00000000000E+00 0. -1.
         22    1    1    2    0    0 -0.10027363815E+02 -0.22422350321E+01  0.14375789798E+02  0.17670285095E+02  0.00000000000E+00 0.  1.
</event>
<event>
 6    1  0.2144783E-005  0.2331360E+03  0.7818608E-02  0.1210736E+00
          2   -1    0    0  502    0  0.00000000000E+00  0.00000000000E+00  0.18706914181E+03  0.18706914181E+03  0.00000000000E+00 0. -1.
          1   -1    0    0  501    0 -0.00000000000E+00 -0.00000000000E+00 -0.73846572186E+03  0.73846572186E+03  0.00000000000E+00 0.  1.
          2    1    1    2  501    0 -0.23468161837E+03  0.17758919308E+02  0.15655906342E+02  0.23587273818E+03  0.00000000000E+00 0. -1.
          1    1    1    2  502    0  0.20984879675E+03  0.90419608308E+01 -0.50995480287E+03  0.55151806454E+03  0.00000000000E+00 0.  1.
         22    1    1    2    0    0  0.17753715379E+02  0.44441721757E+01 -0.90223264323E+02  0.92060754402E+02  0.00000000000E+00 0.  1.
         22    1    1    2    0    0  0.70791062408E+01 -0.31245052315E+02  0.33125580793E+02  0.46083306546E+02  0.00000000000E+00 0. -1.
</event>
<event>
 6    1  0.2144783E-005  0.6600240E+02  0.7818608E-02  0.1389663E+00
          2   -1    0    0  502    0  0.00000000000E+00  0.00000000000E+00  0.13391390544E+03  0.13391390544E+03  0.00000000000E+00 0. -1.
          1   -1    0    0  501    0 -0.00000000000E+00 -0.00000000000E+00 -0.75780382640E+02  0.75780382640E+02  0.00000000000E+00 0. -1.
          2    1    1    2  501    0 -0.26123571024E+02  0.14221120754E+02  0.28093213191E+02  0.40913443584E+02  0.00000000000E+00 0. -1.
          1    1    1    2  502    0 -0.37242936977E+01  0.28396162230E+02  0.99677957564E+01  0.30324401811E+02  0.00000000000E+00 0. -1.
         22    1    1    2    0    0  0.19151491631E+02 -0.47656052956E+02  0.70183755022E+02  0.86969181231E+02  0.00000000000E+00 0. -1.
         22    1    1    2    0    0  0.10696373091E+02  0.50387699718E+01 -0.50111241172E+02  0.51487261452E+02  0.00000000000E+00 0. -1.
</event>
<event>
 6    1  0.2144783E-005  0.7159906E+02  0.7818608E-02  0.1455997E+00
          2   -1    0    0  502    0  0.00000000000E+00  0.00000000000E+00  0.28290289528E+03  0.28290289528E+03  0.00000000000E+00 0. -1.
          1   -1    0    0  501    0 -0.00000000000E+00 -0.00000000000E+00 -0.51025945042E+02  0.51025945042E+02  0.00000000000E+00 0. -1.
          2    1    1    2  501    0  0.28151588319E+02 -0.20093908522E+02  0.87569418639E+02  0.94152430480E+02  0.00000000000E+00 0. -1.
          1    1    1    2  502    0 -0.34345834303E+02  0.45273758426E+02  0.13654915961E+02  0.58444899400E+02  0.00000000000E+00 0. -1.
         22    1    1    2    0    0  0.18246389091E+02 -0.33341849134E+02  0.15133814921E+03  0.15603796020E+03  0.00000000000E+00 0. -1.
         22    1    1    2    0    0 -0.12052143108E+02  0.81619992303E+01 -0.20685533567E+02  0.25293550242E+02  0.00000000000E+00 0. -1.
</event>
<event>
 6    1  0.2144783E-005  0.5233602E+02  0.7818608E-02  0.1499697E+00
          2   -1    0    0  502    0  0.00000000000E+00  0.00000000000E+00  0.99462023265E+02  0.99462023265E+02  0.00000000000E+00 0.  1.
          1   -1    0    0  501    0 -0.00000000000E+00 -0.00000000000E+00 -0.23247755043E+03  0.23247755043E+03  0.00000000000E+00 0.  1.
          2    1    1    2  501    0  0.19351137690E+02 -0.33947193615E+02  0.61069546062E+02  0.72500813377E+02  0.00000000000E+00 0.  1.
          1    1    1    2  502    0 -0.79619428815E+01  0.18690803119E+02 -0.10044519141E+03  0.10247914487E+03  0.00000000000E+00 0.  1.
         22    1    1    2    0    0 -0.10767387897E+02 -0.16927919033E+02  0.26127660264E+02  0.32941549991E+02  0.00000000000E+00 0.  1.
         22    1    1    2    0    0 -0.62180691167E+00  0.32184309529E+02 -0.11976754208E+03  0.12401806546E+03  0.00000000000E+00 0.  1.
</event>
<event>
 6    1  0.2144783E-005  0.2466264E+02  0.7818608E-02  0.1703448E+00
          2   -1    0    0  502    0  0.00000000000E+00  0.00000000000E+00  0.17765461919E+03  0.17765461919E+03  0.00000000000E+00 0.  1.
          1   -1    0    0  501    0 -0.00000000000E+00 -0.00000000000E+00 -0.85933103498E+02  0.85933103498E+02  0.00000000000E+00 0.  1.
          2    1    1    2  501    0  0.37167992678E+02  0.12361903856E+02  0.73079714246E+02  0.82915143254E+02  0.00000000000E+00 0.  1.
          1    1    1    2  502    0 -0.19595846983E+02 -0.97398090021E+01 -0.36138204408E+02  0.42247259275E+02  0.00000000000E+00 0.  1.
         22    1    1    2    0    0 -0.34180060070E-01 -0.13696183681E+02 -0.39543482207E+02  0.41848220999E+02  0.00000000000E+00 0. -1.
         22    1    1    2    0    0 -0.17537965635E+02  0.11074088826E+02  0.94323488058E+02  0.96577099156E+02  0.00000000000E+00 0. -1.
</event>
<event>
 6    1  0.2144783E-005  0.2532347E+02  0.7818608E-02  0.1664604E+00
          2   -1    0    0  502    0  0.00000000000E+00  0.00000000000E+00  0.12302568718E+03  0.12302568718E+03  0.00000000000E+00 0. -1.
          1   -1    0    0  501    0 -0.00000000000E+00 -0.00000000000E+00 -0.66181130641E+02  0.66181130641E+02  0.00000000000E+00 0.  1.
          2    1    1    2  501    0 -0.39856167426E+01 -0.26135260675E+02  0.22450473186E+02  0.34683724391E+02  0.00000000000E+00 0. -1.
          1    1    1    2  502    0 -0.66435763038E+01  0.22176541762E+02 -0.56543337415E+01  0.23830812002E+02  0.00000000000E+00 0.  1.
         22    1    1    2    0    0  0.27830812512E+02 -0.11474499827E+02 -0.38467240370E+02  0.48846154946E+02  0.00000000000E+00 0.  1.
         22    1    1    2    0    0 -0.17201619465E+02  0.15433218740E+02  0.78515657465E+02  0.81846126481E+02  0.00000000000E+00 0. -1.
</event>
<event>
 6    1  0.2144783E-005  0.1570658E+03  0.7818608E-02  0.1273421E+00
          2   -1    0    0  502    0  0.00000000000E+00  0.00000000000E+00  0.51541299984E+02  0.51541299984E+02  0.00000000000E+00 0.  1.
          1   -1    0    0  501    0 -0.00000000000E+00 -0.00000000000E+00 -0.88579289391E+03  0.88579289391E+03  0.00000000000E+00 0.  1.
          2    1    1    2  501    0 -0.91609384811E+02  0.10895565858E+03 -0.44117235225E+03  0.46356947625E+03  0.00000000000E+00 0.  1.
          1    1    1    2  502    0  0.83014808786E+02 -0.99277891011E+02 -0.26618716379E+03  0.29597831726E+03  0.00000000000E+00 0.  1.
         22    1    1    2    0    0  0.27503993955E+02 -0.32235526490E+02 -0.13947853376E+03  0.14577331797E+03  0.00000000000E+00 0. -1.
         22    1    1    2    0    0 -0.18909417930E+02  0.22557758920E+02  0.12586455877E+02  0.32013082411E+02  0.00000000000E+00 0.  1.
</event>
<event>
 6    1  0.2144783E-005  0.1132391E+03  0.7818608E-02  0.1307696E+00
          2   -1    0    0  502    0  0.00000000000E+00  0.00000000000E+00  0.66980595764E+03  0.66980595764E+03  0.00000000000E+00 0.  1.
          1   -1    0    0  501    0 -0.00000000000E+00 -0.00000000000E+00 -0.49937492642E+02  0.49937492642E+02  0.00000000000E+00 0.  1.
          2    1    1    2  501    0 -0.13838269880E+02  0.52316370556E+02  0.16346008386E+03  0.17218507298E+03  0.00000000000E+00 0.  1.
          1    1    1    2  502    0  0.79366099607E+02  0.73635516881E+02  0.23285456316E+03  0.25679255187E+03  0.00000000000E+00 0.  1.
         22    1    1    2    0    0 -0.24524265286E+02 -0.12058298101E+03  0.94218171641E+02  0.15497986567E+03  0.00000000000E+00 0.  1.
         22    1    1    2    0    0 -0.41003564442E+02 -0.53689064258E+01  0.12933564634E+03  0.13578595976E+03  0.00000000000E+00 0. -1.
</event>
<event>
 6    1  0.2144783E-005  0.1015807E+03  0.7818608E-02  0.1395456E+00
          2   -1    0    0  502    0  0.00000000000E+00  0.00000000000E+00  0.56987986340E+02  0.56987986340E+02  0.00000000000E+00 0. -1.
          1   -1    0    0  501    0 -0.00000000000E+00 -0.00000000000E+00 -0.43566524476E+03  0.43566524476E+03  0.00000000000E+00 0. -1.
          2    1    1    2  501    0  0.49615063428E+02  0.90662391752E+02 -0.13589606285E+03  0.17073096877E+03  0.00000000000E+00 0. -1.
          1    1    1    2  502    0 -0.18969838757E+02 -0.57038625145E+02 -0.13662865196E+03  0.14926703614E+03  0.00000000000E+00 0. -1.
         22    1    1    2    0    0 -0.12807425977E+02 -0.92530225665E+00  0.29398108604E+02  0.32080136127E+02  0.00000000000E+00 0. -1.
         22    1    1    2    0    0 -0.17837798694E+02 -0.32698464350E+02 -0.13555065221E+03  0.14057509007E+03  0.00000000000E+00 0. -1.
</event>
<event>
 6    1  0.2144783E-005  0.1027342E+03  0.7818608E-02  0.1274972E+00
          2   -1    0    0  502    0  0.00000000000E+00  0.00000000000E+00  0.36199053150E+03  0.36199053150E+03  0.00000000000E+00 0.  1.
          1   -1    0    0  501    0 -0.00000000000E+00 -0.00000000000E+00 -0.14642433559E+03  0.14642433559E+03  0.00000000000E+00 0.  1.
          2    1    1    2  501    0 -0.18641427468E+01  0.72860523398E+02  0.29441582404E+03  0.30330316244E+03  0.00000000000E+00 0.  1.
          1    1    1    2  502    0  0.10540010581E+02 -0.54507411254E+02 -0.45548735502E+02  0.71811120382E+02  0.00000000000E+00 0.  1.
         22    1    1    2    0    0 -0.29479599332E+01  0.23807875601E+02  0.41102090460E+02  0.47590831560E+02  0.00000000000E+00 0. -1.
         22    1    1    2    0    0 -0.57279079012E+01 -0.42160987746E+02 -0.74402983089E+02  0.85709752707E+02  0.00000000000E+00 0.  1.
</event>
<event>
 6    1  0.2144783E-005  0.5780908E+02  0.7818608E-02  0.1466972E+00
          2   -1    0    0  502    0  0.00000000000E+00  0.00000000000E+00  0.13194797889E+03  0.13194797889E+03  0.00000000000E+00 0.  1.
          1   -1    0    0  501    0 -0.00000000000E+00 -0.00000000000E+00 -0.41866028878E+03  0.41866028878E+03  0.00000000000E+00 0. -1.
          2    1    1    2  501    0 -0.33105898931E+02 -0.74808844711E+02  0.68027548434E+02  0.10639601091E+03  0.00000000000E+00 0.  1.
          1    1    1    2  502    0  0.39212017468E+02  0.52396345153E+02 -0.30201108669E+03  0.30902047794E+03  0.00000000000E+00 0. -1.
         22    1    1    2    0    0 -0.13648442361E+02  0.35812387256E+02 -0.88398496979E+02  0.96348852241E+02  0.00000000000E+00 0. -1.
         22    1    1    2    0    0  0.75423238244E+01 -0.13399887698E+02  0.35669725352E+02  0.38842926584E+02  0.00000000000E+00 0. -1.
</event>
<event>
 6    1  0.2144783E-005  0.6536408E+02  0.7818608E-02  0.1377020E+00
          2   -1    0    0  502    0  0.00000000000E+00  0.00000000000E+00  0.46332137488E+02  0.46332137488E+02  0.00000000000E+00 0.  1.
          1   -1    0    0  501    0 -0.00000000000E+00 -0.00000000000E+00 -0.20276631238E+03  0.20276631238E+03  0.00000000000E+00 0.  1.
          2    1    1    2  501    0  0.16645065736E+02 -0.12914926407E+02 -0.21418421323E+01  0.21176426166E+02  0.00000000000E+00 0.  1.
          1    1    1    2  502    0 -0.19867737122E+02  0.10701895101E+02 -0.77474409367E+02  0.80694123974E+02  0.00000000000E+00 0.  1.
         22    1    1    2    0    0 -0.27376004455E+02  0.31334212567E+02 -0.93086128443E+02  0.10196227638E+03  0.00000000000E+00 0.  1.
         22    1    1    2    0    0  0.30598675841E+02 -0.29121181261E+02  0.16268205048E+02  0.45265623345E+02  0.00000000000E+00 0. -1.
</event>
<event>
 6    1  0.2144783E-005  0.1146359E+03  0.7818608E-02  0.1328479E+00
          2   -1    0    0  502    0  0.00000000000E+00  0.00000000000E+00  0.38957721420E+02  0.38957721420E+02  0.00000000000E+00 0. -1.
          1   -1    0    0  501    0 -0.00000000000E+00 -0.00000000000E+00 -0.54796191629E+03  0.54796191629E+03  0.00000000000E+00 0.  1.
          2    1    1    2  501    0 -0.19709426209E+02  0.68786004827E+02 -0.55691002286E+02  0.90672287261E+02  0.00000000000E+00 0. -1.
          1    1    1    2  502    0 -0.18359013370E+02  0.13021135193E+02 -0.20080932283E+03  0.20206678963E+03  0.00000000000E+00 0.  1.
         22    1    1    2    0    0  0.27464570074E+02 -0.13156364805E+00  0.11514866203E+01  0.27489013074E+02  0.00000000000E+00 0. -1.
         22    1    1    2    0    0  0.10603869504E+02 -0.81675576372E+02 -0.25365535638E+03  0.26669154775E+03  0.00000000000E+00 0.  1.
</event>
<event>
 6    1  0.2144783E-005  0.5431093E+02  0.7818608E-02  0.1440836E+00
          2   -1    0    0  502    0  0.00000000000E+00  0.00000000000E+00  0.45778910360E+03  0.45778910360E+03  0.00000000000E+00 0.  1.
          1   -1    0    0  501    0 -0.00000000000E+00 -0.00000000000E+00 -0.73452107005E+02  0.73452107005E+02  0.00000000000E+00 0. -1.
          2    1    1    2  501    0 -0.52016566492E+02 -0.54018742657E+02  0.27359340743E+03  0.28368486096E+03  0.00000000000E+00 0.  1.
          1    1    1    2  502    0  0.62737541318E+02 -0.20536323627E+02 -0.29622937882E-01  0.66013184715E+02  0.00000000000E+00 0. -1.
         22    1    1    2    0    0 -0.14837153214E+02  0.40058513916E+02  0.13340696748E+03  0.14007942256E+03  0.00000000000E+00 0.  1.
         22    1    1    2    0    0  0.41161783879E+01  0.34496552368E+02 -0.22633755370E+02  0.41463742378E+02  0.00000000000E+00 0. -1.
</event>
<event>
 6    1  0.2144783E-005  0.2960322E+03  0.7818608E-02  0.1106009E+00
          2   -1    0    0  502    0  0.00000000000E+00  0.00000000000E+00  0.38983395754E+03  0.38983395754E+03  0.00000000000E+00 0.  1.
          1   -1    0    0  501    0 -0.00000000000E+00 -0.00000000000E+00 -0.77893295137E+03  0.77893295137E+03  0.00000000000E+00 0.  1.
          2    1    1    2  501    0  0.22738228199E+02 -0.19740999245E+03 -0.26086971322E+02  0.20042021409E+03  0.00000000000E+00 0.  1.
          1    1    1    2  502    0 -0.17627711359E+03  0.93879567568E+02 -0.60676258102E+03  0.63878621127E+03  0.00000000000E+00 0.  1.
         22    1    1    2    0    0 -0.12334937221E+02  0.30234904937E+02  0.10903731939E+02  0.34426610681E+02  0.00000000000E+00 0. -1.
         22    1    1    2    0    0  0.16587382261E+03  0.73295519948E+02  0.23284682658E+03  0.29513387287E+03  0.00000000000E+00 0.  1.
</event>
<event>
 6    1  0.2144783E-005  0.5406055E+02  0.7818608E-02  0.1471338E+00
          2   -1    0    0  502    0  0.00000000000E+00  0.00000000000E+00  0.19482062587E+03  0.19482062587E+03  0.00000000000E+00 0. -1.
          1   -1    0    0  501    0 -0.00000000000E+00 -0.00000000000E+00 -0.74090264394E+02  0.74090264394E+02  0.00000000000E+00 0. -1.
          2    1    1    2  501    0  0.62319649813E+02 -0.11012354160E+02  0.67944789425E+02  0.92852060327E+02  0.00000000000E+00 0. -1.
          1    1    1    2  502    0 -0.16601861808E+02 -0.14892207444E+02 -0.14755930388E+02  0.26742048158E+02  0.00000000000E+00 0. -1.
         22    1    1    2    0    0 -0.26662559949E+02  0.47974060273E+01  0.10148356980E+03  0.10503724171E+03  0.00000000000E+00 0. -1.
         22    1    1    2    0    0 -0.19055228055E+02  0.21107155576E+02 -0.33942067354E+02  0.44279540072E+02  0.00000000000E+00 0. -1.
</event>
<event>
 6    1  0.2144783E-005  0.4976396E+02  0.7818608E-02  0.1539756E+00
          2   -1    0    0  502    0  0.00000000000E+00  0.00000000000E+00  0.63220369761E+02  0.63220369761E+02  0.00000000000E+00 0.  1.
          1   -1    0    0  501    0 -0.00000000000E+00 -0.00000000000E+00 -0.54685931270E+03  0.54685931270E+03  0.00000000000E+00 0.  1.
          2    1    1    2  501    0 -0.69776302407E+02 -0.12787799953E+01 -0.24434670188E+02  0.73942009461E+02  0.00000000000E+00 0.  1.
          1    1    1    2  502    0  0.52361163539E+02  0.35444276707E+02 -0.37289518175E+03  0.37821793290E+03  0.00000000000E+00 0.  1.
         22    1    1    2    0    0  0.79926015838E+01 -0.39984113803E+02 -0.11773698089E+03  0.12459778371E+03  0.00000000000E+00 0.  1.
         22    1    1    2    0    0  0.94225372846E+01  0.58186170921E+01  0.31427889894E+02  0.33321956379E+02  0.00000000000E+00 0.  1.
</event>
<event>
 6    1  0.2144783E-005  0.4081849E+02  0.7818608E-02  0.1580201E+00
          2   -1    0    0  502    0  0.00000000000E+00  0.00000000000E+00  0.40334632282E+02  0.40334632282E+02  0.00000000000E+00 0. -1.
          1   -1    0    0  501    0 -0.00000000000E+00 -0.00000000000E+00 -0.71178817543E+03  0.71178817543E+03  0.00000000000E+00 0. -1.
          2    1    1    2  501    0  0.19454640128E+02  0.29638333870E+02 -0.46710428576E+03  0.46844778538E+03  0.00000000000E+00 0. -1.
          1    1    1    2  502    0 -0.53609581481E+02 -0.28592296537E+02 -0.99338692924E+02  0.11644605000E+03  0.00000000000E+00 0. -1.
         22    1    1    2    0    0  0.36679180789E+01  0.11332909708E+02  0.27883878457E+02  0.30321595329E+02  0.00000000000E+00 0. -1.
         22    1    1    2    0    0  0.30487023274E+02 -0.12378947041E+02 -0.13289444292E+03  0.13690737700E+03  0.00000000000E+00 0. -1.
</event>
<event>
 6    1  0.2144783E-005  0.5343576E+02  0.7818608E-02  0.1450285E+00
          2   -1    0    0  502    0  0.00000000000E+00  0.00000000000E+00  0.19222567700E+02  0.19222567700E+02  0.00000000000E+00 0. -1.
          1   -1    0    0  501    0 -0.00000000000E+00 -0.00000000000E+00 -0.21486150077E+04  0.21486150077E+04  0.00000000000E+00 0. -1.
          2    1    1    2  501    0 -0.30768512892E+02 -0.26107640236E+02 -0.18481801847E+04  0.18486206494E+04  0.00000000000E+00 0. -1.
          1    1    1    2  502    0  0.22208252241E+02  0.14761827533E+02 -0.69057993612E+02  0.74027863007E+02  0.00000000000E+00 0. -1.
         22    1    1    2    0    0  0.24840454688E+01 -0.37995077833E+02 -0.13483968885E+02  0.40393240008E+02  0.00000000000E+00 0. -1.
         22    1    1    2    0    0  0.60762151829E+01  0.49340890537E+02 -0.19867029278E+03  0.20479582296E+03  0.00000000000E+00 0. -1.
</event>
<event>
 6    1  0.2144783E-005  0.4097843E+02  0.7818608E-02  0.1546272E+00
          2   -1    0    0  502    0  0.00000000000E+00  0.00000000000E+00  0.44506128523E+02  0.44506128523E+02  0.00000000000E+00 0. -1.
          1   -1    0    0  501    0 -0.00000000000E+00 -0.00000000000E+00 -0.48448174713E+03  0.48448174713E+03  0.00000000000E+00 0. -1.
          2    1    1    2  501    0  0.49222071846E+02  0.40641877800E+02 -0.92277537097E+02  0.11220391455E+03  0.00000000000E+00 0. -1.
          1    1    1    2  502    0 -0.67273612726E+01 -0.47870884326E+02 -0.25379936627E+03  0.25836214366E+03  0.00000000000E+00 0. -1.
         22    1    1    2    0    0 -0.14079066198E+02  0.85889537834E+01  0.28409084361E+02  0.32849144681E+02  0.00000000000E+00 0. -1.
         22    1    1    2    0    0 -0.28415644376E+02 -0.13599472571E+01 -0.12230779960E+03  0.12557267276E+03  0.00000000000E+00 0. -1.
</event>
<event>
 6    1  0.2144783E-005  0.4123847E+02  0.7818608E-02  0.1510282E+00
          2   -1    0    0  502    0  0.00000000000E+00  0.00000000000E+00  0.32349263392E+03  0.32349263392E+03  0.00000000000E+00 0.  1.
          1   -1    0    0  501    0 -0.00000000000E+00 -0.00000000000E+00 -0.41585688263E+02  0.41585688263E+02  0.00000000000E+00 0.  1.
          2    1    1    2  501    0  0.29833021510E+02 -0.28620981795E+02  0.77618295379E+02  0.87941853226E+02  0.00000000000E+00 0.  1.
          1    1    1    2  502    0 -0.30124289964E+02  0.27192050770E+02  0.26910018148E+01  0.40670898216E+02  0.00000000000E+00 0.  1.
         22    1    1    2    0    0 -0.14690789073E+02 -0.33294923120E+02  0.19463987728E+03  0.19801275973E+03  0.00000000000E+00 0.  1.
         22    1    1    2    0    0  0.14982057527E+02  0.34723854146E+02  0.69577711792E+01  0.38452811006E+02  0.00000000000E+00 0.  1.
</event>
<event>
 6    1  0.2144783E-005  0.3556239E+03  0.7818608E-02  0.1202731E+00
          2   -1    0    0  502    0  0.00000000000E+00  0.00000000000E+00  0.11494273322E+03  0.11494273322E+03  0.00000000000E+00 0. -1.
          1   -1    0    0  501    0 -0.00000000000E+00 -0.00000000000E+00 -0.15290894292E+04  0.15290894292E+04  0.00000000000E+00 0. -1.
          2    1    1    2  501    0  0.10766902928E+03 -0.32778398865E+03 -0.10099387681E+04  0.10672447135E+04  0.00000000000E+00 0. -1.
          1    1    1    2  502    0 -0.43394786974E+02  0.22333529910E+03 -0.29510294396E+03  0.37262247771E+03  0.00000000000E+00 0. -1.
         22    1    1    2    0    0  0.10626493577E+02 -0.14050408669E+01  0.19044383028E+02  0.21853718917E+02  0.00000000000E+00 0. -1.
         22    1    1    2    0    0 -0.74900735880E+02  0.10585373041E+03 -0.12814936691E+03  0.18231125230E+03  0.00000000000E+00 0. -1.
</event>
<event>
 6    1  0.2144783E-005  0.6079302E+02  0.7818608E-02  0.1453257E+00
          2   -1    0    0  502    0  0.00000000000E+00  0.00000000000E+00  0.32013664464E+03  0.32013664464E+03  0.00000000000E+00 0. -1.
          1   -1    0    0  501    0 -0.00000000000E+00 -0.00000000000E+00 -0.74176894100E+02  0.74176894100E+02  0.00000000000E+00 0. -1.
          2    1    1    2  501    0  0.12586947212E+02  0.42501473054E+02  0.20043243538E+03  0.20527534583E+03  0.00000000000E+00 0. -1.
          1    1    1    2  502    0  0.97303551434E+01 -0.38608016695E+02 -0.24328114421E+02  0.46659574747E+02  0.00000000000E+00 0. -1.
         22    1    1    2    0    0 -0.20223939630E+02  0.14271282331E+02  0.10223726231E+03  0.10519094560E+03  0.00000000000E+00 0. -1.
         22    1    1    2    0    0 -0.20933627259E+01 -0.18164738690E+02 -0.32381832730E+02  0.37187672556E+02  0.00000000000E+00 0. -1.
</event>
<event>
 6    1  0.2144783E-005  0.4639832E+02  0.7818608E-02  0.1515017E+00
          2   -1    0    0  502    0  0.00000000000E+00  0.00000000000E+00  0.73757255424E+02  0.73757255424E+02  0.00000000000E+00 0.  1.
          1   -1    0    0  501    0 -0.00000000000E+00 -0.00000000000E+00 -0.29102606964E+03  0.29102606964E+03  0.00000000000E+00 0. -1.
          2    1    1    2  501    0 -0.25396505378E+01 -0.30083259498E+02  0.17228450665E+02  0.34760204821E+02  0.00000000000E+00 0.  1.
          1    1    1    2  502    0 -0.46411977806E+02 -0.23508449001E+01 -0.17872786351E+03  0.18467064561E+03  0.00000000000E+00 0. -1.
         22    1    1    2    0    0  0.63042166808E+02  0.19845762765E+02  0.18568419555E+02  0.68650967221E+02  0.00000000000E+00 0.  1.
         22    1    1    2    0    0 -0.14090538464E+02  0.12588341633E+02 -0.74337820922E+02  0.76701507408E+02  0.00000000000E+00 0.  1.
</event>
<event>
 6    1  0.2144783E-005  0.6122042E+02  0.7818608E-02  0.1498303E+00
          2   -1    0    0  502    0  0.00000000000E+00  0.00000000000E+00  0.90396989251E+02  0.90396989251E+02  0.00000000000E+00 0. -1.
          1   -1    0    0  501    0 -0.00000000000E+00 -0.00000000000E+00 -0.24728413809E+03  0.24728413809E+03  0.00000000000E+00 0.  1.
          2    1    1    2  501    0  0.23962321645E+00 -0.97601448959E+02 -0.63969343056E+01  0.97811149807E+02  0.00000000000E+00 0. -1.
          1    1    1    2  502    0  0.11404562821E+02  0.50307971458E+02 -0.32414573667E+02  0.60923399703E+02  0.00000000000E+00 0.  1.
         22    1    1    2    0    0 -0.22338432750E+02  0.46554697966E+02 -0.14288026094E+03  0.15192469993E+03  0.00000000000E+00 0.  1.
         22    1    1    2    0    0  0.10694246713E+02  0.73877953531E+00  0.24804620080E+02  0.27021877901E+02  0.00000000000E+00 0. -1.
</event>
<event>
 6    1  0.2144783E-005  0.8389355E+02  0.7818608E-02  0.1368184E+00
          2   -1    0    0  502    0  0.00000000000E+00  0.00000000000E+00  0.16648054304E+02  0.16648054304E+02  0.00000000000E+00 0.  1.
          1   -1    0    0  501    0 -0.00000000000E+00 -0.00000000000E+00 -0.98496258396E+03  0.98496258396E+03  0.00000000000E+00 0.  1.
          2    1    1    2  501    0 -0.41949715478E+02  0.43426437010E+02 -0.56034137947E+03  0.56358503849E+03  0.00000000000E+00 0.  1.
          1    1    1    2  502    0 -0.31117640034E+00 -0.21567054697E+02 -0.34317417102E+02  0.40532947039E+02  0.00000000000E+00 0.  1.
         22    1    1    2    0    0 -0.14971783064E+02  0.32214476918E+02 -0.35239550495E+02  0.50037513231E+02  0.00000000000E+00 0.  1.
         22    1    1    2    0    0  0.57232674942E+02 -0.54073859230E+02 -0.33841618259E+03  0.34745513951E+03  0.00000000000E+00 0.  1.
</event>
<event>
 6    1  0.2144783E-005  0.7547346E+02  0.7818608E-02  0.1412916E+00
          2   -1    0    0  502    0  0.00000000000E+00  0.00000000000E+00  0.33569534637E+03  0.33569534637E+03  0.00000000000E+00 0.  1.
          1   -1    0    0  501    0 -0.00000000000E+00 -0.00000000000E+00 -0.18503284006E+03  0.18503284006E+03  0.00000000000E+00 0.  1.
          2    1    1    2  501    0 -0.11269283046E+03 -0.26078862840E+02  0.25627336754E+03  0.28116866830E+03  0.00000000000E+00 0.  1.
          1    1    1    2  502    0  0.70871691329E+02  0.37929275687E+02 -0.66272652611E+02  0.10418008960E+03  0.00000000000E+00 0.  1.
         22    1    1    2    0    0 -0.22285918114E+01  0.16218272340E+02  0.38388223114E+02  0.41733136151E+02  0.00000000000E+00 0.  1.
         22    1    1    2    0    0  0.44049730941E+02 -0.28068685187E+02 -0.77726431740E+02  0.93646292373E+02  0.00000000000E+00 0.  1.
</event>
<event>
 6    1  0.2144783E-005  0.1931605E+03  0.7818608E-02  0.1253256E+00
          2   -1    0    0  502    0  0.00000000000E+00  0.00000000000E+00  0.18847093334E+03  0.18847093334E+03  0.00000000000E+00 0.  1.
          1   -1    0    0  501    0 -0.00000000000E+00 -0.00000000000E+00 -0.18004867119E+03  0.18004867119E+03  0.00000000000E+00 0.  1.
          2    1    1    2  501    0 -0.81196523949E+02  0.79792723810E+02  0.59794909421E+02  0.12858921209E+03  0.00000000000E+00 0.  1.
          1    1    1    2  502    0 -0.39338198427E+02 -0.37016734721E+02 -0.24987955253E+02  0.59515799689E+02  0.00000000000E+00 0.  1.
         22    1    1    2    0    0  0.13011047771E+03 -0.64206398049E+02 -0.43378619482E+02  0.15143613370E+03  0.00000000000E+00 0.  1.
         22    1    1    2    0    0 -0.95757553371E+01  0.21430408960E+02  0.16993927467E+02  0.28978459055E+02  0.00000000000E+00 0.  1.
</event>
<event>
 6    1  0.2144783E-005  0.5886808E+02  0.7818608E-02  0.1489575E+00
          2   -1    0    0  502    0  0.00000000000E+00  0.00000000000E+00  0.14432402136E+03  0.14432402136E+03  0.00000000000E+00 0.  1.
          1   -1    0    0  501    0 -0.00000000000E+00 -0.00000000000E+00 -0.58255473049E+03  0.58255473049E+03  0.00000000000E+00 0.  1.
          2    1    1    2  501    0 -0.44084386098E+02 -0.41163574286E+02  0.10308650907E+03  0.11943492495E+03  0.00000000000E+00 0.  1.
          1    1    1    2  502    0  0.13928513688E+02  0.28527103601E+02 -0.44617502395E+03  0.44730297465E+03  0.00000000000E+00 0.  1.
         22    1    1    2    0    0  0.15777555651E+02 -0.37546286376E+01  0.29468704063E+02  0.33636780727E+02  0.00000000000E+00 0.  1.
         22    1    1    2    0    0  0.14378316759E+02  0.16391099323E+02 -0.12461089833E+03  0.12650407152E+03  0.00000000000E+00 0.  1.
</event>
<event>
 6    1  0.2144783E-005  0.6543916E+02  0.7818608E-02  0.1376551E+00
          2   -1    0    0  502    0  0.00000000000E+00  0.00000000000E+00  0.24027557456E+03  0.24027557456E+03  0.00000000000E+00 0.  1.
          1   -1    0    0  501    0 -0.00000000000E+00 -0.00000000000E+00 -0.10458166976E+03  0.10458166976E+03  0.00000000000E+00 0. -1.
          2    1    1    2  501    0 -0.44417810845E+01 -0.50964096212E+02  0.17605908859E+03  0.18334086069E+03  0.00000000000E+00 0.  1.
          1    1    1    2  502    0  0.28496526219E+01  0.27977448715E+02 -0.22503357674E+02  0.36017485521E+02  0.00000000000E+00 0. -1.
         22    1    1    2    0    0  0.13355595101E+02  0.30653240275E+02 -0.66738158291E+02  0.74645661842E+02  0.00000000000E+00 0. -1.
         22    1    1    2    0    0 -0.11763466638E+02 -0.76665927779E+01  0.48876332173E+02  0.50853236267E+02  0.00000000000E+00 0.  1.
</event>
<event>
 6    1  0.2144783E-005  0.3558703E+02  0.7818608E-02  0.1561456E+00
          2   -1    0    0  502    0  0.00000000000E+00  0.00000000000E+00  0.13087269539E+03  0.13087269539E+03  0.00000000000E+00 0.  1.
          1   -1    0    0  501    0 -0.00000000000E+00 -0.00000000000E+00 -0.23803042890E+03  0.23803042890E+03  0.00000000000E+00 0. -1.
          2    1    1    2  501    0  0.92676593087E+01 -0.36787462234E+02 -0.12649549376E+02  0.39990223631E+02  0.00000000000E+00 0.  1.
          1    1    1    2  502    0 -0.18723804656E+02  0.11122729141E+02 -0.17352372204E+03  0.17488504246E+03  0.00000000000E+00 0. -1.
         22    1    1    2    0    0  0.19386560622E+02  0.20560113733E+02  0.11392437977E+03  0.11737683466E+03  0.00000000000E+00 0.  1.
         22    1    1    2    0    0 -0.99304152741E+01  0.51046193606E+01 -0.34908841860E+02  0.36651023538E+02  0.00000000000E+00 0. -1.
</event>
<event>
 6    1  0.2144783E-005  0.9374831E+02  0.7818608E-02  0.1372495E+00
          2   -1    0    0  502    0  0.00000000000E+00  0.00000000000E+00  0.15188311868E+03  0.15188311868E+03  0.00000000000E+00 0. -1.
          1   -1    0    0  501    0 -0.00000000000E+00 -0.00000000000E+00 -0.43117801597E+03  0.43117801597E+03  0.00000000000E+00 0. -1.
          2    1    1    2  501    0 -0.13993297724E+03  0.89632993451E+02  0.39578816985E+02  0.17082679646E+03  0.00000000000E+00 0. -1.
          1    1    1    2  502    0  0.10634185662E+03 -0.58190075324E+02 -0.11763152051E+03  0.16891373525E+03  0.00000000000E+00 0. -1.
         22    1    1    2    0    0  0.34285993107E+02 -0.45811029739E+02 -0.21555960887E+03  0.22302494198E+03  0.00000000000E+00 0.  1.
         22    1    1    2    0    0 -0.69487248750E+00  0.14368111612E+02  0.14317415106E+02  0.20295660974E+02  0.00000000000E+00 0. -1.
</event>
<event>
 6    1  0.2144783E-005  0.3244706E+02  0.7818608E-02  0.1652769E+00
          2   -1    0    0  502    0  0.00000000000E+00  0.00000000000E+00  0.97961746803E+02  0.97961746803E+02  0.00000000000E+00 0.  1.
          1   -1    0    0  501    0 -0.00000000000E+00 -0.00000000000E+00 -0.15454535515E+03  0.15454535515E+03  0.00000000000E+00 0. -1.
          2    1    1    2  501    0 -0.24879483855E+02  0.73284401717E+01  0.34488298517E+02  0.43152491085E+02  0.00000000000E+00 0.  1.
          1    1    1    2  502    0  0.20839622185E+02  0.42653473344E+01 -0.82529374272E+02  0.85226642891E+02  0.00000000000E+00 0. -1.
         22    1    1    2    0    0  0.10794205754E+02 -0.10293393141E+01 -0.65202065836E+02  0.66097532530E+02  0.00000000000E+00 0. -1.
         22    1    1    2    0    0 -0.67543440837E+01 -0.10564448192E+02  0.56659533249E+02  0.58030435442E+02  0.00000000000E+00 0.  1.
</event>
<event>
 6    1  0.2144783E-005  0.1997954E+03  0.7818608E-02  0.1240661E+00
          2   -1    0    0  502    0  0.00000000000E+00  0.00000000000E+00  0.11054827954E+04  0.11054827954E+04  0.00000000000E+00 0. -1.
          1   -1    0    0  501    0 -0.00000000000E+00 -0.00000000000E+00 -0.93189735477E+02  0.93189735477E+02  0.00000000000E+00 0. -1.
          2    1    1    2  501    0  0.14425179368E+03  0.14369090002E+03  0.87291180217E+03  0.89634294167E+03  0.00000000000E+00 0. -1.
          1    1    1    2  502    0 -0.82469761625E+02 -0.52673603412E+02  0.31816569172E+02  0.10289831949E+03  0.00000000000E+00 0. -1.
         22    1    1    2    0    0 -0.27248295608E+02  0.18977535886E+01  0.95791275008E+02  0.99609434543E+02  0.00000000000E+00 0. -1.
         22    1    1    2    0    0 -0.34533736442E+02 -0.92915050192E+02  0.11773413544E+02  0.99821835143E+02  0.00000000000E+00 0. -1.
</event>
<event>
 6    1  0.2144783E-005  0.1536364E+03  0.7818608E-02  0.1330264E+00
          2   -1    0    0  502    0  0.00000000000E+00  0.00000000000E+00  0.10842911280E+03  0.10842911280E+03  0.00000000000E+00 0. -1.
          1   -1    0    0  501    0 -0.00000000000E+00 -0.00000000000E+00 -0.63865115501E+03  0.63865115501E+03  0.00000000000E+00 0. -1.
          2    1    1    2  501    0 -0.84903787242E+02 -0.10664956995E+03 -0.74156115749E+01  0.13652023716E+03  0.00000000000E+00 0. -1.
          1    1    1    2  502    0  0.50942457142E+02  0.97747512959E+02 -0.43986073951E+03  0.45346133285E+03  0.00000000000E+00 0. -1.
         22    1    1    2    0    0  0.38161181642E+02  0.19129644109E+02 -0.11527824774E+03  0.12292800117E+03  0.00000000000E+00 0. -1.
         22    1    1    2    0    0 -0.41998515418E+01 -0.10227587114E+02  0.32332556617E+02  0.34170696635E+02  0.00000000000E+00 0. -1.
</event>
<event>
 6    1  0.2144783E-005  0.8715185E+02  0.7818608E-02  0.1408775E+00
          2   -1    0    0  502    0  0.00000000000E+00  0.00000000000E+00  0.12106113804E+03  0.12106113804E+03  0.00000000000E+00 0.  1.
          1   -1    0    0  501    0 -0.00000000000E+00 -0.00000000000E+00 -0.27711976883E+03  0.27711976883E+03  0.00000000000E+00 0. -1.
          2    1    1    2  501    0 -0.65102462004E+02 -0.30063861005E+02  0.34580699603E+02  0.79611500944E+02  0.00000000000E+00 0.  1.
          1    1    1    2  502    0  0.57453107730E+02  0.39008492237E+02 -0.17780721980E+03  0.19088721662E+03  0.00000000000E+00 0. -1.
         22    1    1    2    0    0 -0.10733921430E+02 -0.12501043503E+02  0.54947004029E+02  0.57364330465E+02  0.00000000000E+00 0. -1.
         22    1    1    2    0    0  0.18383275704E+02  0.35564122711E+01 -0.67779114614E+02  0.70317858839E+02  0.00000000000E+00 0. -1.
</event>
<event>
 6    1  0.2144783E-005  0.8091171E+02  0.7818608E-02  0.1450965E+00
          2   -1    0    0  502    0  0.00000000000E+00  0.00000000000E+00  0.72306390956E+02  0.72306390956E+02  0.00000000000E+00 0.  1.
          1   -1    0    0  501    0 -0.00000000000E+00 -0.00000000000E+00 -0.31812375679E+03  0.31812375679E+03  0.00000000000E+00 0.  1.
          2    1    1    2  501    0  0.70888608574E+02  0.78473901272E+01  0.25232931894E+02  0.75653666199E+02  0.00000000000E+00 0.  1.
          1    1    1    2  502    0 -0.19168397434E+02 -0.97438256141E+01 -0.62544500685E+02  0.66137615346E+02  0.00000000000E+00 0.  1.
         22    1    1    2    0    0 -0.58768796157E+02  0.10156101111E+02 -0.22282491188E+03  0.23066828812E+03  0.00000000000E+00 0.  1.
         22    1    1    2    0    0  0.70485850160E+01 -0.82596656243E+01  0.14319114833E+02  0.17970578081E+02  0.00000000000E+00 0.  1.
</event>
<event>
 6    1  0.2144783E-005  0.8152144E+02  0.7818608E-02  0.1338648E+00
          2   -1    0    0  502    0  0.00000000000E+00  0.00000000000E+00  0.44583315489E+03  0.44583315489E+03  0.00000000000E+00 0.  1.
          1   -1    0    0  501    0 -0.00000000000E+00 -0.00000000000E+00 -0.19506500738E+03  0.19506500738E+03  0.00000000000E+00 0.  1.
          2    1    1    2  501    0  0.45106531058E+02 -0.60697156077E+02  0.23485940290E+03  0.24673403298E+03  0.00000000000E+00 0.  1.
          1    1    1    2  502    0  0.51029450909E+02  0.63245456236E+02 -0.14536094004E+03  0.16653466752E+03  0.00000000000E+00 0.  1.
         22    1    1    2    0    0 -0.97762543836E+02 -0.13222467601E+02  0.18042851905E+03  0.20563754305E+03  0.00000000000E+00 0.  1.
         22    1    1    2    0    0  0.16265618691E+01  0.10674167442E+02 -0.19158834388E+02  0.21991918725E+02  0.00000000000E+00 0.  1.
</event>
<event>
 6    1  0.2144783E-005  0.1111185E+03  0.7818608E-02  0.1388437E+00
          2   -1    0    0  502    0  0.00000000000E+00  0.00000000000E+00  0.85860061430E+02  0.85860061430E+02  0.00000000000E+00 0. -1.
          1   -1    0    0  501    0 -0.00000000000E+00 -0.00000000000E+00 -0.37963180565E+03  0.37963180565E+03  0.00000000000E+00 0.  1.
          2    1    1    2  501    0 -0.29598812436E+02  0.72228802347E+02  0.40967836766E+02  0.88155846292E+02  0.00000000000E+00 0. -1.
          1    1    1    2  502    0 -0.19254183860E+02 -0.79944554371E+01 -0.61975902664E+02  0.65388434948E+02  0.00000000000E+00 0.  1.
         22    1    1    2    0    0 -0.91328002281E+01  0.60910995675E+01  0.10004055143E+02  0.14852294545E+02  0.00000000000E+00 0.  1.
         22    1    1    2    0    0  0.57985796524E+02 -0.70325446478E+02 -0.28276773347E+03  0.29709529130E+03  0.00000000000E+00 0.  1.
</event>
<event>
 6    1  0.2144783E-005  0.8632548E+02  0.7818608E-02  0.1440970E+00
          2   -1    0    0  502    0  0.00000000000E+00  0.00000000000E+00  0.11815686561E+03  0.11815686561E+03  0.00000000000E+00 0.  1.
          1   -1    0    0  501    0 -0.00000000000E+00 -0.00000000000E+00 -0.32144961166E+03  0.32144961166E+03  0.00000000000E+00 0.  1.
          2    1    1    2  501    0  0.71524306998E+02 -0.46830783573E+02  0.35300832292E+02  0.92493229710E+02  0.00000000000E+00 0.  1.
          1    1    1    2  502    0 -0.61005764283E+02  0.28853492304E+02 -0.20232674971E+03  0.21328464769E+03  0.00000000000E+00 0.  1.
         22    1    1    2    0    0 -0.15066276825E+02  0.86595094378E+01 -0.83592911220E+02  0.85380059776E+02  0.00000000000E+00 0.  1.
         22    1    1    2    0    0  0.45477341092E+01  0.93177818308E+01  0.47326082593E+02  0.48448540095E+02  0.00000000000E+00 0. -1.
</event>
<event>
 6    1  0.2144783E-005  0.5811442E+02  0.7818608E-02  0.1442123E+00
          2   -1    0    0  502    0  0.00000000000E+00  0.00000000000E+00  0.85198405421E+02  0.85198405421E+02  0.00000000000E+00 0.  1.
          1   -1    0    0  501    0 -0.00000000000E+00 -0.00000000000E+00 -0.14318948769E+03  0.14318948769E+03  0.00000000000E+00 0. -1.
          2    1    1    2  501    0  0.38107715140E+02 -0.21099898435E+02  0.15077636334E+02  0.46094888921E+02  0.00000000000E+00 0.  1.
          1    1    1    2  502    0 -0.79618600925E+01  0.27058060684E+02 -0.42380009909E+02  0.50907711636E+02  0.00000000000E+00 0. -1.
         22    1    1    2    0    0 -0.87079466018E+01 -0.32249544319E+02  0.40516828867E+02  0.52511664078E+02  0.00000000000E+00 0.  1.
         22    1    1    2    0    0 -0.21437908446E+02  0.26291382070E+02 -0.71205537561E+02  0.78873628477E+02  0.00000000000E+00 0. -1.
</event>
<event>
 6    1  0.2144783E-005  0.1297742E+03  0.7818608E-02  0.1270944E+00
          2   -1    0    0  502    0  0.00000000000E+00  0.00000000000E+00  0.10938841670E+03  0.10938841670E+03  0.00000000000E+00 0. -1.
          1   -1    0    0  501    0 -0.00000000000E+00 -0.00000000000E+00 -0.34665787425E+03  0.34665787425E+03  0.00000000000E+00 0.  1.
          2    1    1    2  501    0 -0.14197612999E+03 -0.11771679855E+02 -0.76253800360E+02  0.16158723961E+03  0.00000000000E+00 0. -1.
          1    1    1    2  502    0  0.14838765672E+02 -0.35066956280E+02 -0.93933087577E+02  0.10135731513E+03  0.00000000000E+00 0.  1.
         22    1    1    2    0    0  0.11387172878E+03  0.54022593751E+02 -0.17486085891E+01  0.12604867664E+03  0.00000000000E+00 0.  1.
         22    1    1    2    0    0  0.13265635544E+02 -0.71839576161E+01 -0.65333961027E+02  0.67053059564E+02  0.00000000000E+00 0.  1.
</event>
<event>
 6    1  0.2144783E-005  0.1295455E+03  0.7818608E-02  0.1277278E+00
          2   -1    0    0  502    0  0.00000000000E+00  0.00000000000E+00  0.50961034699E+03  0.50961034699E+03  0.00000000000E+00 0.  1.
          1   -1    0    0  501    0 -0.00000000000E+00 -0.00000000000E+00 -0.25839313830E+03  0.25839313830E+03  0.00000000000E+00 0.  1.
          2    1    1    2  501    0 -0.60903801784E+02 -0.16154315749E+03  0.31590879186E+03  0.36000531882E+03  0.00000000000E+00 0.  1.
          1    1    1    2  502    0  0.27064327317E+02  0.10826252174E+03 -0.18932442573E+03  0.21976576076E+03  0.00000000000E+00 0.  1.
         22    1    1    2    0    0  0.21445331985E+02  0.43748214536E+02  0.15039859039E+03  0.15809346770E+03  0.00000000000E+00 0.  1.
         22    1    1    2    0    0  0.12394142482E+02  0.95324212142E+01 -0.25765747841E+02  0.30138938002E+02  0.00000000000E+00 0. -1.
</event>
<event>
 6    1  0.2144783E-005  0.9187074E+02  0.7818608E-02  0.1391418E+00
          2   -1    0    0  502    0  0.00000000000E+00  0.00000000000E+00  0.34001050694E+02  0.34001050694E+02  0.00000000000E+00 0. -1.
          1   -1    0    0  501    0 -0.00000000000E+00 -0.00000000000E+00 -0.12330348295E+04  0.12330348295E+04  0.00000000000E+00 0. -1.
          2    1    1    2  501    0  0.17343932113E+02 -0.18560324974E+02 -0.71731960015E+02  0.76097120392E+02  0.00000000000E+00 0. -1.
          1    1    1    2  502    0 -0.35973844490E+02  0.51081961184E+02 -0.10190258757E+04  0.10209393809E+04  0.00000000000E+00 0. -1.
         22    1    1    2    0    0  0.16096735347E+02 -0.91496467101E+01  0.26976359713E+02  0.32719182556E+02  0.00000000000E+00 0. -1.
         22    1    1    2    0    0  0.25331770308E+01 -0.23371989500E+02 -0.13525230288E+03  0.13728019636E+03  0.00000000000E+00 0.  1.
</event>
<event>
 6    1  0.2144783E-005  0.4133915E+02  0.7818608E-02  0.1577639E+00
          2   -1    0    0  502    0  0.00000000000E+00  0.00000000000E+00  0.21172064139E+03  0.21172064139E+03  0.00000000000E+00 0.  1.
          1   -1    0    0  501    0 -0.00000000000E+00 -0.00000000000E+00 -0.61609687254E+02  0.61609687254E+02  0.00000000000E+00 0.  1.
          2    1    1    2  501    0 -0.49474729070E+02  0.27250456513E+02  0.92048128568E+02  0.10799626924E+03  0.00000000000E+00 0.  1.
          1    1    1    2  502    0  0.19697345005E+02  0.11922720768E+02  0.20260133066E+01  0.23113662640E+02  0.00000000000E+00 0.  1.
         22    1    1    2    0    0  0.16058778784E+02 -0.33831739749E+02  0.94170445291E+02  0.10134369125E+03  0.00000000000E+00 0.  1.
         22    1    1    2    0    0  0.13718605281E+02 -0.53414375318E+01 -0.38133633028E+02  0.40876705514E+02  0.00000000000E+00 0.  1.
</event>
<event>
 6    1  0.2144783E-005  0.7850152E+02  0.7818608E-02  0.1437521E+00
          2   -1    0    0  502    0  0.00000000000E+00  0.00000000000E+00  0.15732548047E+03  0.15732548047E+03  0.00000000000E+00 0. -1.
          1   -1    0    0  501    0 -0.00000000000E+00 -0.00000000000E+00 -0.18270249918E+03  0.18270249918E+03  0.00000000000E+00 0.  1.
          2    1    1    2  501    0 -0.85146192099E+02  0.93873825523E+01  0.95438358110E+02  0.12824381926E+03  0.00000000000E+00 0. -1.
          1    1    1    2  502    0  0.33348553743E+02 -0.38293398172E+01 -0.54488497677E+02  0.63998330129E+02  0.00000000000E+00 0.  1.
         22    1    1    2    0    0  0.40667614036E+02 -0.14879498940E+02 -0.10116505926E+03  0.11004373465E+03  0.00000000000E+00 0.  1.
         22    1    1    2    0    0  0.11130024320E+02  0.93214562052E+01  0.34838180116E+02  0.37742095609E+02  0.00000000000E+00 0. -1.
</event>
<event>
 6    1  0.2144783E-005  0.9478440E+02  0.7818608E-02  0.1378459E+00
          2   -1    0    0  502    0  0.00000000000E+00  0.00000000000E+00  0.94304434732E+02  0.94304434732E+02  0.00000000000E+00 0. -1.
          1   -1    0    0  501    0 -0.00000000000E+00 -0.00000000000E+00 -0.43914436397E+03  0.43914436397E+03  0.00000000000E+00 0. -1.
          2    1    1    2  501    0  0.15684332783E+02 -0.85362855379E+02 -0.94860589382E+02  0.12857428511E+03  0.00000000000E+00 0. -1.
          1    1    1    2  502    0  0.64166591079E+01 -0.20608461736E+02 -0.23932450028E+03  0.24029585648E+03  0.00000000000E+00 0. -1.
         22    1    1    2    0    0 -0.32455054172E+01  0.97199744921E+02  0.43521684704E+02  0.10654792704E+03  0.00000000000E+00 0. -1.
         22    1    1    2    0    0 -0.18855486473E+02  0.87715721936E+01 -0.54176524278E+02  0.58030730064E+02  0.00000000000E+00 0. -1.
</event>
<event>
 6    1  0.2144783E-005  0.6187425E+02  0.7818608E-02  0.1462155E+00
          2   -1    0    0  502    0  0.00000000000E+00  0.00000000000E+00  0.20362719034E+03  0.20362719034E+03  0.00000000000E+00 0. -1.
          1   -1    0    0  501    0 -0.00000000000E+00 -0.00000000000E+00 -0.72661423654E+02  0.72661423654E+02  0.00000000000E+00 0.  1.
          2    1    1    2  501    0  0.15350341925E+02  0.38992236803E+02  0.56582928038E+02  0.70410619038E+02  0.00000000000E+00 0. -1.
          1    1    1    2  502    0 -0.31151291669E+02 -0.31971934661E+02 -0.22317135372E+02  0.49906533739E+02  0.00000000000E+00 0.  1.
         22    1    1    2    0    0  0.17899029939E+02  0.10241186340E+02  0.12284950916E+03  0.12456829079E+03  0.00000000000E+00 0. -1.
         22    1    1    2    0    0 -0.20980801954E+01 -0.17261488482E+02 -0.26149535134E+02  0.31403170427E+02  0.00000000000E+00 0.  1.
</event>
<event>
 6    1  0.2144783E-005  0.3847938E+02  0.7818608E-02  0.1572216E+00
          2   -1    0    0  502    0  0.00000000000E+00  0.00000000000E+00  0.41605224880E+02  0.41605224880E+02  0.00000000000E+00 0.  1.
          1   -1    0    0  501    0 -0.00000000000E+00 -0.00000000000E+00 -0.40630156546E+03  0.40630156546E+03  0.00000000000E+00 0.  1.
          2    1    1    2  501    0  0.37585155105E+02 -0.24463969679E+01 -0.23449225404E+01  0.37737612592E+02  0.00000000000E+00 0.  1.
          1    1    1    2  502    0 -0.18504582321E+02  0.40747041547E+02 -0.17945128945E+03  0.18494730668E+03  0.00000000000E+00 0.  1.
         22    1    1    2    0    0  0.31955258572E+00 -0.36077610131E+02 -0.19754539762E+03  0.20081304785E+03  0.00000000000E+00 0.  1.
         22    1    1    2    0    0 -0.19400125370E+02 -0.22230344479E+01  0.14645269024E+02  0.24408823227E+02  0.00000000000E+00 0.  1.
</event>
<event>
 6    1  0.2144783E-005  0.5254531E+02  0.7818608E-02  0.1504762E+00
          2   -1    0    0  502    0  0.00000000000E+00  0.00000000000E+00  0.71915194923E+02  0.71915194923E+02  0.00000000000E+00 0.  1.
          1   -1    0    0  501    0 -0.00000000000E+00 -0.00000000000E+00 -0.25373025281E+03  0.25373025281E+03  0.00000000000E+00 0.  1.
          2    1    1    2  501    0 -0.28026624456E+02 -0.36048667487E+02  0.67113300271E+01  0.46152357001E+02  0.00000000000E+00 0.  1.
          1    1    1    2  502    0  0.32709637792E+02  0.13735555643E+02 -0.13312635597E+03  0.13777232141E+03  0.00000000000E+00 0.  1.
         22    1    1    2    0    0 -0.15860738587E+02  0.95121267061E+01  0.40396335743E+02  0.44428679076E+02  0.00000000000E+00 0. -1.
         22    1    1    2    0    0  0.11177725251E+02  0.12800985138E+02 -0.95796367691E+02  0.97292090249E+02  0.00000000000E+00 0.  1.
</event>
<event>
 6    1  0.2144783E-005  0.6804113E+02  0.7818608E-02  0.1395671E+00
          2   -1    0    0  502    0  0.00000000000E+00  0.00000000000E+00  0.22955291007E+03  0.22955291007E+03  0.00000000000E+00 0. -1.
          1   -1    0    0  501    0 -0.00000000000E+00 -0.00000000000E+00 -0.13595463405E+03  0.13595463405E+03  0.00000000000E+00 0. -1.
          2    1    1    2  501    0  0.20411580432E+02 -0.27833570936E+02  0.14054457505E+03  0.14472082732E+03  0.00000000000E+00 0. -1.
          1    1    1    2  502    0 -0.41885868582E+02  0.24328443960E+02 -0.74041106571E+02  0.88478159083E+02  0.00000000000E+00 0. -1.
         22    1    1    2    0    0  0.42573325792E+02 -0.84940928029E+00  0.71348631813E+02  0.83089330402E+02  0.00000000000E+00 0. -1.
         22    1    1    2    0    0 -0.21099037642E+02  0.43545362569E+01 -0.44253824264E+02  0.49219227314E+02  0.00000000000E+00 0. -1.
</event>
<event>
 6    1  0.2144783E-005  0.5262308E+02  0.7818608E-02  0.1496530E+00
          2   -1    0    0  502    0  0.00000000000E+00  0.00000000000E+00  0.17970107925E+03  0.17970107925E+03  0.00000000000E+00 0. -1.
          1   -1    0    0  501    0 -0.00000000000E+00 -0.00000000000E+00 -0.77464310994E+02  0.77464310994E+02  0.00000000000E+00 0. -1.
          2    1    1    2  501    0 -0.34043210893E+02 -0.18310741806E+02  0.51673515622E+02  0.64531974169E+02  0.00000000000E+00 0. -1.
          1    1    1    2  502    0  0.28743826091E+02  0.10884886837E+02 -0.29662812729E+02  0.42714994543E+02  0.00000000000E+00 0. -1.
         22    1    1    2    0    0 -0.18993766540E+02  0.80158585860E+01  0.10975604290E+03  0.11167544989E+03  0.00000000000E+00 0. -1.
         22    1    1    2    0    0  0.24293151342E+02 -0.59000361702E+00 -0.29529977536E+02  0.38242971638E+02  0.00000000000E+00 0. -1.
</event>
<event>
 6    1  0.2144783E-005  0.4773231E+02  0.7818608E-02  0.1537750E+00
          2   -1    0    0  502    0  0.00000000000E+00  0.00000000000E+00  0.38689174481E+02  0.38689174481E+02  0.00000000000E+00 0. -1.
          1   -1    0    0  501    0 -0.00000000000E+00 -0.00000000000E+00 -0.33065206185E+03  0.33065206185E+03  0.00000000000E+00 0. -1.
          2    1    1    2  501    0 -0.73663526003E+01  0.20145072742E+02 -0.28541449926E+02  0.35702961646E+02  0.00000000000E+00 0. -1.
          1    1    1    2  502    0 -0.39111511481E+02  0.25507646900E+02 -0.14644756022E+03  0.15371154242E+03  0.00000000000E+00 0. -1.
         22    1    1    2    0    0  0.32631493496E+02 -0.37872343000E+02 -0.14185638607E+03  0.15040732363E+03  0.00000000000E+00 0. -1.
         22    1    1    2    0    0  0.13846370585E+02 -0.77803766417E+01  0.24882508850E+02  0.29519408628E+02  0.00000000000E+00 0. -1.
</event>
<event>
 6    1  0.2144783E-005  0.1641917E+03  0.7818608E-02  0.1292652E+00
          2   -1    0    0  502    0  0.00000000000E+00  0.00000000000E+00  0.90254593296E+02  0.90254593296E+02  0.00000000000E+00 0. -1.
          1   -1    0    0  501    0 -0.00000000000E+00 -0.00000000000E+00 -0.98235232699E+03  0.98235232699E+03  0.00000000000E+00 0. -1.
          2    1    1    2  501    0  0.73655603113E+02  0.13746656544E+03 -0.76720264558E+03  0.78289341795E+03  0.00000000000E+00 0. -1.
          1    1    1    2  502    0 -0.79579037980E+02 -0.89860286683E+02 -0.10087199394E+03  0.15678920106E+03  0.00000000000E+00 0. -1.
         22    1    1    2    0    0 -0.11049206917E+02 -0.41916750757E+02 -0.70700740819E+02  0.82931861910E+02  0.00000000000E+00 0. -1.
         22    1    1    2    0    0  0.16972641784E+02 -0.56895280032E+01  0.46677646640E+02  0.49992439368E+02  0.00000000000E+00 0. -1.
</event>
<event>
 6    1  0.5811336E-005  0.2055436E+03  0.7818608E-02  0.1212785E+00
          2   -1    0    0  502    0  0.00000000000E+00  0.00000000000E+00  0.59918305032E+03  0.59918305032E+03  0.00000000000E+00 0. -1.
          1   -1    0    0  501    0 -0.00000000000E+00 -0.00000000000E+00 -0.48901417142E+03  0.48901417142E+03  0.00000000000E+00 0. -1.
          2    1    1    2  501    0  0.29519908536E+03 -0.23818270251E+03 -0.23341153986E+03  0.44537001102E+03  0.00000000000E+00 0. -1.
          1    1    1    2  502    0 -0.34196880086E+03  0.15021764215E+03  0.30444022233E+03  0.48186289517E+03  0.00000000000E+00 0. -1.
         22    1    1    2    0    0  0.71499353416E+02  0.92214053012E+02  0.57294788150E+02  0.12999339161E+03  0.00000000000E+00 0. -1.
         22    1    1    2    0    0 -0.24729637918E+02 -0.42489926504E+01 -0.18154591711E+02  0.30970923950E+02  0.00000000000E+00 0. -1.
</event>
<event>
 6    1  0.2144783E-005  0.2259692E+03  0.7818608E-02  0.1189734E+00
          2   -1    0    0  502    0  0.00000000000E+00  0.00000000000E+00  0.42405171424E+03  0.42405171424E+03  0.00000000000E+00 0.  1.
          1   -1    0    0  501    0 -0.00000000000E+00 -0.00000000000E+00 -0.23133214569E+03  0.23133214569E+03  0.00000000000E+00 0.  1.
          2    1    1    2  501    0  0.34444847994E+02 -0.21542884476E+03  0.25262977757E+03  0.33379310841E+03  0.00000000000E+00 0.  1.
          1    1    1    2  502    0 -0.47012936533E+02  0.17882283207E+03 -0.36179767559E+02  0.18840593688E+03  0.00000000000E+00 0.  1.
         22    1    1    2    0    0 -0.79648439152E+01 -0.14965450867E+02  0.43096488751E+02  0.46311022456E+02  0.00000000000E+00 0. -1.
         22    1    1    2    0    0  0.20532932455E+02  0.51571463560E+02 -0.66826930207E+02  0.86873792191E+02  0.00000000000E+00 0.  1.
</event>
<event>
 6    1  0.2144783E-005  0.8460393E+02  0.7818608E-02  0.1407081E+00
          2   -1    0    0  502    0  0.00000000000E+00  0.00000000000E+00  0.25881237394E+03  0.25881237394E+03  0.00000000000E+00 0. -1.
          1   -1    0    0  501    0 -0.00000000000E+00 -0.00000000000E+00 -0.98705313511E+02  0.98705313511E+02  0.00000000000E+00 0.  1.
          2    1    1    2  501    0  0.35387612702E+02  0.83316862192E+02  0.14858313393E+03  0.17398543142E+03  0.00000000000E+00 0. -1.
          1    1    1    2  502    0  0.27273552392E+01 -0.29943629140E+02 -0.19673751996E+02  0.35932101390E+02  0.00000000000E+00 0.  1.
         22    1    1    2    0    0 -0.20008624638E+02 -0.49601620814E+02 -0.44561516576E+02  0.69616051360E+02  0.00000000000E+00 0.  1.
         22    1    1    2    0    0 -0.18106343304E+02 -0.37716122377E+01  0.75759195071E+02  0.77984103281E+02  0.00000000000E+00 0.  1.
</event>
<event>
 6    1  0.2144783E-005  0.1073963E+03  0.7818608E-02  0.1317026E+00
          2   -1    0    0  502    0  0.00000000000E+00  0.00000000000E+00  0.37980686128E+02  0.37980686128E+02  0.00000000000E+00 0. -1.
          1   -1    0    0  501    0 -0.00000000000E+00 -0.00000000000E+00 -0.41451105750E+03  0.41451105750E+03  0.00000000000E+00 0. -1.
          2    1    1    2  501    0  0.72731541170E+01 -0.60010631885E+02 -0.38279786738E+02  0.71550798618E+02  0.00000000000E+00 0. -1.
          1    1    1    2  502    0 -0.11310221788E+02  0.36221671913E+02 -0.36066865044E+02  0.52352166977E+02  0.00000000000E+00 0. -1.
         22    1    1    2    0    0 -0.36650554435E+02  0.28429603959E+02 -0.27624843027E+03  0.28011551323E+03  0.00000000000E+00 0. -1.
         22    1    1    2    0    0  0.40687622105E+02 -0.46406439861E+01 -0.25935289316E+02  0.48473264808E+02  0.00000000000E+00 0.  1.
</event>
<event>
 6    1  0.2144783E-005  0.9139599E+02  0.7818608E-02  0.1357892E+00
          2   -1    0    0  502    0  0.00000000000E+00  0.00000000000E+00  0.16490992240E+03  0.16490992240E+03  0.00000000000E+00 0. -1.
          1   -1    0    0  501    0 -0.00000000000E+00 -0.00000000000E+00 -0.12346148451E+03  0.12346148451E+03  0.00000000000E+00 0.  1.
          2    1    1    2  501    0  0.69394685249E+02 -0.47905209626E+02  0.41478068605E+02  0.93973196313E+02  0.00000000000E+00 0. -1.
          1    1    1    2  502    0 -0.23738222129E+02  0.30178304183E+02 -0.41457672234E+02  0.56506387429E+02  0.00000000000E+00 0.  1.
         22    1    1    2    0    0 -0.28744026554E+02  0.45639276460E+02 -0.28295446873E+02  0.60908085933E+02  0.00000000000E+00 0.  1.
         22    1    1    2    0    0 -0.16912436566E+02 -0.27912371017E+02  0.69723488389E+02  0.76983737241E+02  0.00000000000E+00 0.  1.
</event>
<event>
 6    1  0.2144783E-005  0.3654146E+02  0.7818608E-02  0.1598550E+00
          2   -1    0    0  502    0  0.00000000000E+00  0.00000000000E+00  0.21727195525E+03  0.21727195525E+03  0.00000000000E+00 0. -1.
          1   -1    0    0  501    0 -0.00000000000E+00 -0.00000000000E+00 -0.17935921626E+03  0.17935921626E+03  0.00000000000E+00 0. -1.
          2    1    1    2  501    0 -0.11386416512E+02 -0.37426303283E+02  0.16013225124E+03  0.16484148915E+03  0.00000000000E+00 0. -1.
          1    1    1    2  502    0  0.89273712010E+00  0.23713043778E+02 -0.10046431006E+03  0.10322878968E+03  0.00000000000E+00 0. -1.
         22    1    1    2    0    0  0.16271460776E+02  0.27883592235E+01  0.51597617641E+02  0.54174251533E+02  0.00000000000E+00 0. -1.
         22    1    1    2    0    0 -0.57777813843E+01  0.10924900281E+02 -0.73352819834E+02  0.74386641149E+02  0.00000000000E+00 0.  1.
</event>
<event>
 6    1  0.2144783E-005  0.6011644E+02  0.7818608E-02  0.1483793E+00
          2   -1    0    0  502    0  0.00000000000E+00  0.00000000000E+00  0.17872739245E+03  0.17872739245E+03  0.00000000000E+00 0.  1.
          1   -1    0    0  501    0 -0.00000000000E+00 -0.00000000000E+00 -0.29623620435E+03  0.29623620435E+03  0.00000000000E+00 0.  1.
          2    1    1    2  501    0 -0.11998822737E+02  0.61825156037E+02  0.10279839395E+03  0.12055634145E+03  0.00000000000E+00 0.  1.
          1    1    1    2  502    0  0.17070351570E+02 -0.37535666303E+02 -0.22367150794E+03  0.22744068812E+03  0.00000000000E+00 0.  1.
         22    1    1    2    0    0 -0.13791686537E+02 -0.90801621328E+01  0.62833493030E+02  0.64966974751E+02  0.00000000000E+00 0.  1.
         22    1    1    2    0    0  0.87201577044E+01 -0.15209327601E+02 -0.59469190941E+02  0.61999592480E+02  0.00000000000E+00 0.  1.
</event>
<event>
 6    1  0.2144783E-005  0.1343434E+03  0.7818608E-02  0.1344643E+00
          2   -1    0    0  502    0  0.00000000000E+00  0.00000000000E+00  0.22643462566E+03  0.22643462566E+03  0.00000000000E+00 0.  1.
          1   -1    0    0  501    0 -0.00000000000E+00 -0.00000000000E+00 -0.17936431636E+03  0.17936431636E+03  0.00000000000E+00 0. -1.
          2    1    1    2  501    0  0.30603485273E+01 -0.47460603778E+02  0.13216870133E+03  0.14046508554E+03  0.00000000000E+00 0.  1.
          1    1    1    2  502    0  0.25320534769E+00 -0.27890732403E+02 -0.11013482319E+03  0.11361177908E+03  0.00000000000E+00 0. -1.
         22    1    1    2    0    0  0.94093786277E+01  0.77339203590E+02 -0.38493520497E+02  0.86900172257E+02  0.00000000000E+00 0.  1.
         22    1    1    2    0    0 -0.12722932503E+02 -0.19878674093E+01  0.63529951660E+02  0.64821905142E+02  0.00000000000E+00 0. -1.
</event>
<event>
 6    1  0.2144783E-005  0.6645001E+02  0.7818608E-02  0.1414583E+00
          2   -1    0    0  502    0  0.00000000000E+00  0.00000000000E+00  0.17820714836E+03  0.17820714836E+03  0.00000000000E+00 0. -1.
          1   -1    0    0  501    0 -0.00000000000E+00 -0.00000000000E+00 -0.11937290494E+03  0.11937290494E+03  0.00000000000E+00 0. -1.
          2    1    1    2  501    0 -0.12830796946E+02 -0.16935280269E+02  0.25298641783E+02  0.33037166103E+02  0.00000000000E+00 0. -1.
          1    1    1    2  502    0  0.13610900010E+02  0.20650712410E+02 -0.87901228885E+02  0.91314481665E+02  0.00000000000E+00 0. -1.
         22    1    1    2    0    0  0.82429409035E+01 -0.32943465865E+02  0.13540682146E+03  0.13960023394E+03  0.00000000000E+00 0. -1.
         22    1    1    2    0    0 -0.90230439666E+01  0.29228033723E+02 -0.13969990938E+02  0.33628171591E+02  0.00000000000E+00 0. -1.
</event>
<event>
 6    1  0.2144783E-005  0.8480775E+02  0.7818608E-02  0.1370814E+00
          2   -1    0    0  502    0  0.00000000000E+00  0.00000000000E+00  0.52857472377E+02  0.52857472377E+02  0.00000000000E+00 0. -1.
          1   -1    0    0  501    0 -0.00000000000E+00 -0.00000000000E+00 -0.66421616962E+03  0.66421616962E+03  0.00000000000E+00 0. -1.
          2    1    1    2  501    0 -0.10102890263E+02  0.72095263945E+02 -0.69688981371E+02  0.10077871600E+03  0.00000000000E+00 0. -1.
          1    1    1    2  502    0  0.75862038133E+02  0.38275701347E+02 -0.31926107476E+03  0.33037510802E+03  0.00000000000E+00 0. -1.
         22    1    1    2    0    0 -0.39392006369E+02 -0.90659177547E+02 -0.23153920505E+03  0.25175627125E+03  0.00000000000E+00 0. -1.
         22    1    1    2    0    0 -0.26367141501E+02 -0.19711787746E+02  0.91305639337E+01  0.34163546725E+02  0.00000000000E+00 0. -1.
</event>
<event>
 6    1  0.2144783E-005  0.3106321E+02  0.7818608E-02  0.1616178E+00
          2   -1    0    0  502    0  0.00000000000E+00  0.00000000000E+00  0.14140559955E+03  0.14140559955E+03  0.00000000000E+00 0. -1.
          1   -1    0    0  501    0 -0.00000000000E+00 -0.00000000000E+00 -0.53528200226E+03  0.53528200226E+03  0.00000000000E+00 0. -1.
          2    1    1    2  501    0  0.39508433743E+02 -0.48401276731E+02  0.93274548697E+02  0.11226638571E+03  0.00000000000E+00 0. -1.
          1    1    1    2  502    0 -0.17096227319E+02  0.38639424799E+02 -0.41316157855E+03  0.41531647707E+03  0.00000000000E+00 0. -1.
         22    1    1    2    0    0 -0.35800824628E+01  0.12908375290E+02  0.35510294859E+02  0.37952920626E+02  0.00000000000E+00 0.  1.
         22    1    1    2    0    0 -0.18832123961E+02 -0.31465233581E+01 -0.10949966772E+03  0.11115181839E+03  0.00000000000E+00 0.  1.
</event>
<event>
 6    1  0.2144783E-005  0.3343294E+02  0.7818608E-02  0.1601447E+00
          2   -1    0    0  502    0  0.00000000000E+00  0.00000000000E+00  0.72742550787E+02  0.72742550787E+02  0.00000000000E+00 0. -1.
          1   -1    0    0  501    0 -0.00000000000E+00 -0.00000000000E+00 -0.34773389397E+03  0.34773389397E+03  0.00000000000E+00 0. -1.
          2    1    1    2  501    0 -0.70666483363E+01  0.60205442463E+02 -0.91380353570E+01  0.61303641907E+02  0.00000000000E+00 0. -1.
          1    1    1    2  502    0 -0.17061379539E+02 -0.56051080106E+02 -0.21773646553E+03  0.22548166816E+03  0.00000000000E+00 0. -1.
         22    1    1    2    0    0  0.14609348864E+02 -0.96260075690E+01 -0.89336903365E+02  0.91033924439E+02  0.00000000000E+00 0. -1.
         22    1    1    2    0    0  0.95186790108E+01  0.54716452120E+01  0.41220061073E+02  0.42657210250E+02  0.00000000000E+00 0.  1.
</event>
<event>
 6    1  0.2144783E-005  0.4984255E+02  0.7818608E-02  0.1512696E+00
          2   -1    0    0  502    0  0.00000000000E+00  0.00000000000E+00  0.10279391491E+03  0.10279391491E+03  0.00000000000E+00 0. -1.
          1   -1    0    0  501    0 -0.00000000000E+00 -0.00000000000E+00 -0.17960407298E+03  0.17960407298E+03  0.00000000000E+00 0.  1.
          2    1    1    2  501    0 -0.21693700022E+02 -0.56498161030E+02  0.41468812439E+02  0.73364304846E+02  0.00000000000E+00 0. -1.
          1    1    1    2  502    0  0.18202660631E+02  0.22003671778E+02 -0.64483809454E+02  0.70524181012E+02  0.00000000000E+00 0.  1.
         22    1    1    2    0    0 -0.22560283453E+01  0.19324713065E+02  0.39384646346E+02  0.43928175090E+02  0.00000000000E+00 0. -1.
         22    1    1    2    0    0  0.57470677363E+01  0.15169776187E+02 -0.93179807400E+02  0.94581326932E+02  0.00000000000E+00 0.  1.
</event>
<event>
 6    1  0.2144783E-005  0.3591637E+03  0.7818608E-02  0.1170853E+00
          2   -1    0    0  502    0  0.00000000000E+00  0.00000000000E+00  0.48885867145E+03  0.48885867145E+03  0.00000000000E+00 0.  1.
          1   -1    0    0  501    0 -0.00000000000E+00 -0.00000000000E+00 -0.98592096861E+03  0.98592096861E+03  0.00000000000E+00 0.  1.
          2    1    1    2  501    0 -0.35735456672E+03  0.90170059567E+01  0.33881663208E+03  0.49252441861E+03  0.00000000000E+00 0.  1.
          1    1    1    2  502    0  0.31294073977E+03  0.32936161990E+02 -0.75530101770E+03  0.81822755069E+03  0.00000000000E+00 0.  1.
         22    1    1    2    0    0  0.62665050093E+01 -0.20178190663E+02  0.34721446784E+02  0.40644893040E+02  0.00000000000E+00 0.  1.
         22    1    1    2    0    0  0.38147321945E+02 -0.21774977283E+02 -0.11529935832E+03  0.12338277771E+03  0.00000000000E+00 0.  1.
</event>
<event>
 6    1  0.2144783E-005  0.9517377E+02  0.7818608E-02  0.1353844E+00
          2   -1    0    0  502    0  0.00000000000E+00  0.00000000000E+00  0.43221482374E+03  0.43221482374E+03  0.00000000000E+00 0. -1.
          1   -1    0    0  501    0 -0.00000000000E+00 -0.00000000000E+00 -0.15655005413E+03  0.15655005413E+03  0.00000000000E+00 0. -1.
          2    1    1    2  501    0 -0.14249307346E+03 -0.54751327577E+02  0.30992508568E+03  0.34547871510E+03  0.00000000000E+00 0. -1.
          1    1    1    2  502    0  0.95411698323E+02  0.18105709461E+02  0.43834766265E+01  0.97213290035E+02  0.00000000000E+00 0. -1.
         22    1    1    2    0    0 -0.14495275464E+02  0.15339219874E+02  0.39222869775E+02  0.44540298501E+02  0.00000000000E+00 0. -1.
         22    1    1    2    0    0  0.61576650599E+02  0.21306398242E+02 -0.77866662472E+02  0.10153257423E+03  0.00000000000E+00 0.  1.
</event>
<event>
 6    1  0.2144783E-005  0.4182422E+02  0.7818608E-02  0.1505376E+00
          2   -1    0    0  502    0  0.00000000000E+00  0.00000000000E+00  0.56945673642E+03  0.56945673642E+03  0.00000000000E+00 0. -1.
          1   -1    0    0  501    0 -0.00000000000E+00 -0.00000000000E+00 -0.25584395726E+02  0.25584395726E+02  0.00000000000E+00 0.  1.
          2    1    1    2  501    0 -0.32268956346E+02 -0.25367271769E+02  0.30981070467E+03  0.31251793028E+03  0.00000000000E+00 0. -1.
          1    1    1    2  502    0  0.21350765651E+02 -0.23837268098E+01  0.60841169634E+01  0.22328318939E+02  0.00000000000E+00 0.  1.
         22    1    1    2    0    0 -0.35089740198E-01  0.46793201366E+02  0.23300670833E+03  0.23765885436E+03  0.00000000000E+00 0. -1.
         22    1    1    2    0    0  0.10953280435E+02 -0.19042202787E+02 -0.50291892663E+01  0.22536028575E+02  0.00000000000E+00 0.  1.
</event>
<event>
 6    1  0.2144783E-005  0.3076514E+02  0.7818608E-02  0.1639367E+00
          2   -1    0    0  502    0  0.00000000000E+00  0.00000000000E+00  0.10310380422E+03  0.10310380422E+03  0.00000000000E+00 0.  1.
          1   -1    0    0  501    0 -0.00000000000E+00 -0.00000000000E+00 -0.14287225634E+03  0.14287225634E+03  0.00000000000E+00 0. -1.
          2    1    1    2  501    0  0.26544873704E+02 -0.30655770838E+02  0.15833571316E+02  0.43532844913E+02  0.00000000000E+00 0.  1.
          1    1    1    2  502    0 -0.37606873329E+02  0.18277194064E+02 -0.67052785143E+02  0.79021571358E+02  0.00000000000E+00 0. -1.
         22    1    1    2    0    0 -0.15459975810E+02  0.33374434393E+00  0.62642382158E+02  0.64522788840E+02  0.00000000000E+00 0.  1.
         22    1    1    2    0    0  0.26521975435E+02  0.12044832431E+02 -0.51191620445E+02  0.58898855447E+02  0.00000000000E+00 0. -1.
</event>
<event>
 6    1  0.2144783E-005  0.7457299E+02  0.7818608E-02  0.1409171E+00
          2   -1    0    0  502    0  0.00000000000E+00  0.00000000000E+00  0.33089121100E+03  0.33089121100E+03  0.00000000000E+00 0. -1.
          1   -1    0    0  501    0 -0.00000000000E+00 -0.00000000000E+00 -0.16385596339E+03  0.16385596339E+03  0.00000000000E+00 0. -1.
          2    1    1    2  501    0  0.11973078013E+03 -0.95530424685E+02  0.18957110993E+03  0.24371854150E+03  0.00000000000E+00 0. -1.
          1    1    1    2  502    0 -0.90269431200E+02  0.70872955406E+02 -0.35562325904E+01  0.11482244035E+03  0.00000000000E+00 0. -1.
         22    1    1    2    0    0 -0.37305163326E+02  0.13240280307E+02 -0.71588640990E+02  0.81804118186E+02  0.00000000000E+00 0. -1.
         22    1    1    2    0    0  0.78438143989E+01  0.11417188971E+02  0.52609011263E+02  0.54402074358E+02  0.00000000000E+00 0. -1.
</event>
<event>
 6    1  0.2144783E-005  0.5764707E+02  0.7818608E-02  0.1464765E+00
          2   -1    0    0  502    0  0.00000000000E+00  0.00000000000E+00  0.68003220971E+03  0.68003220971E+03  0.00000000000E+00 0. -1.
          1   -1    0    0  501    0 -0.00000000000E+00 -0.00000000000E+00 -0.12997801632E+03  0.12997801632E+03  0.00000000000E+00 0.  1.
          2    1    1    2  501    0 -0.18517974396E+02 -0.29712361131E+02  0.54374152182E+03  0.54486749061E+03  0.00000000000E+00 0. -1.
          1    1    1    2  502    0  0.17844452905E+02  0.42127784777E+02 -0.96076491754E+02  0.10641365992E+03  0.00000000000E+00 0.  1.
         22    1    1    2    0    0  0.26512380106E+01 -0.24411261346E+02  0.12802389495E+03  0.13035741798E+03  0.00000000000E+00 0. -1.
         22    1    1    2    0    0 -0.19777165200E+01  0.11995837700E+02 -0.25634731627E+02  0.28371657518E+02  0.00000000000E+00 0.  1.
</event>
<event>
 6    1  0.2144783E-005  0.3491868E+03  0.7818608E-02  0.1194112E+00
          2   -1    0    0  502    0  0.00000000000E+00  0.00000000000E+00  0.31799510507E+03  0.31799510507E+03  0.00000000000E+00 0.  1.
          1   -1    0    0  501    0 -0.00000000000E+00 -0.00000000000E+00 -0.39365468066E+03  0.39365468066E+03  0.00000000000E+00 0.  1.
          2    1    1    2  501    0 -0.90855050929E+01  0.21604966919E+03  0.14599368129E+03  0.26091025456E+03  0.00000000000E+00 0.  1.
          1    1    1    2  502    0 -0.12918908569E+03 -0.41975798003E+02 -0.71097118454E+02  0.15331858247E+03  0.00000000000E+00 0.  1.
         22    1    1    2    0    0  0.12681486372E+03 -0.16663852648E+03 -0.17267970079E+03  0.27141976205E+03  0.00000000000E+00 0.  1.
         22    1    1    2    0    0  0.11459727062E+02 -0.74353447099E+01  0.22123562368E+02  0.26001186649E+02  0.00000000000E+00 0. -1.
</event>
<event>
 6    1  0.2144783E-005  0.4737060E+02  0.7818608E-02  0.1535308E+00
          2   -1    0    0  502    0  0.00000000000E+00  0.00000000000E+00  0.13357367081E+03  0.13357367081E+03  0.00000000000E+00 0.  1.
          1   -1    0    0  501    0 -0.00000000000E+00 -0.00000000000E+00 -0.12041658305E+03  0.12041658305E+03  0.00000000000E+00 0.  1.
          2    1    1    2  501    0  0.34585096310E+02  0.16053614850E+02  0.67890244226E+02  0.77864836079E+02  0.00000000000E+00 0.  1.
          1    1    1    2  502    0 -0.13306553913E+02 -0.22128357070E+02 -0.46585652305E+02  0.53263041261E+02  0.00000000000E+00 0.  1.
         22    1    1    2    0    0 -0.31763577120E+01  0.16473012607E+02  0.54397309802E+02  0.56925536505E+02  0.00000000000E+00 0.  1.
         22    1    1    2    0    0 -0.18102184685E+02 -0.10398270386E+02 -0.62544813966E+02  0.65936840017E+02  0.00000000000E+00 0.  1.
</event>
<event>
 6    1  0.2144783E-005  0.1127433E+03  0.7818608E-02  0.1351784E+00
          2   -1    0    0  502    0  0.00000000000E+00  0.00000000000E+00  0.32454615782E+03  0.32454615782E+03  0.00000000000E+00 0. -1.
          1   -1    0    0  501    0 -0.00000000000E+00 -0.00000000000E+00 -0.15933552541E+03  0.15933552541E+03  0.00000000000E+00 0. -1.
          2    1    1    2  501    0  0.13719743544E+02  0.10312531078E+03  0.17444139152E+03  0.20310800123E+03  0.00000000000E+00 0. -1.
          1    1    1    2  502    0 -0.18674519383E+02 -0.77100446566E+02 -0.97664118532E+02  0.12582327521E+03  0.00000000000E+00 0. -1.
         22    1    1    2    0    0  0.18916542445E+02  0.37330813519E+01  0.11254503417E+03  0.11418474588E+03  0.00000000000E+00 0. -1.
         22    1    1    2    0    0 -0.13961766605E+02 -0.29757945563E+02 -0.24111674755E+02  0.40765660922E+02  0.00000000000E+00 0. -1.
</event>
<event>
 6    1  0.2144783E-005  0.5320893E+02  0.7818608E-02  0.1546756E+00
          2   -1    0    0  502    0  0.00000000000E+00  0.00000000000E+00  0.10791393148E+03  0.10791393148E+03  0.00000000000E+00 0.  1.
          1   -1    0    0  501    0 -0.00000000000E+00 -0.00000000000E+00 -0.12247617470E+03  0.12247617470E+03  0.00000000000E+00 0.  1.
          2    1    1    2  501    0 -0.21579681172E+02 -0.37557319659E+02  0.38972932159E+02  0.58267695514E+02  0.00000000000E+00 0.  1.
          1    1    1    2  502    0  0.48010524852E+01  0.20385246751E+02 -0.42023857219E+02  0.46953306227E+02  0.00000000000E+00 0.  1.
         22    1    1    2    0    0 -0.30567752071E+01 -0.97322237954E+01  0.52218415640E+02  0.53205478916E+02  0.00000000000E+00 0.  1.
         22    1    1    2    0    0  0.19835403894E+02  0.26904296703E+02 -0.63729733803E+02  0.71963625529E+02  0.00000000000E+00 0.  1.
</event>
<event>
 6    1  0.2144783E-005  0.4214137E+02  0.7818608E-02  0.1563908E+00
          2   -1    0    0  502    0  0.00000000000E+00  0.00000000000E+00  0.86314686786E+02  0.86314686786E+02  0.00000000000E+00 0. -1.
          1   -1    0    0  501    0 -0.00000000000E+00 -0.00000000000E+00 -0.20848780777E+03  0.20848780777E+03  0.00000000000E+00 0. -1.
          2    1    1    2  501    0  0.58502141546E+01  0.55601351833E+02  0.23794438583E+02  0.60761094779E+02  0.00000000000E+00 0. -1.
          1    1    1    2  502    0 -0.62093396913E+00 -0.23536104106E+02 -0.90615156358E+02  0.93623930259E+02  0.00000000000E+00 0. -1.
         22    1    1    2    0    0 -0.70459582609E+01 -0.15666871409E+02 -0.95489142337E+02  0.97022021684E+02  0.00000000000E+00 0. -1.
         22    1    1    2    0    0  0.18166780754E+01 -0.16398376318E+02  0.40136739126E+02  0.43395447835E+02  0.00000000000E+00 0. -1.
</event>
<event>
 6    1  0.2144783E-005  0.7439358E+02  0.7818608E-02  0.1390705E+00
          2   -1    0    0  502    0  0.00000000000E+00  0.00000000000E+00  0.22025684033E+03  0.22025684033E+03  0.00000000000E+00 0.  1.
          1   -1    0    0  501    0 -0.00000000000E+00 -0.00000000000E+00 -0.39211458732E+02  0.39211458732E+02  0.00000000000E+00 0.  1.
          2    1    1    2  501    0 -0.19553360929E+02 -0.20983204021E+02  0.30860815574E+02  0.42130970942E+02  0.00000000000E+00 0.  1.
          1    1    1    2  502    0  0.28010180178E+01  0.29686049423E+02  0.45076584499E+02  0.54046329222E+02  0.00000000000E+00 0.  1.
         22    1    1    2    0    0 -0.11111889504E+02 -0.33475450530E+02  0.11852845222E+03  0.12366516835E+03  0.00000000000E+00 0.  1.
         22    1    1    2    0    0  0.27864232415E+02  0.24772605128E+02 -0.13420470699E+02  0.39625830549E+02  0.00000000000E+00 0.  1.
</event>
<event>
 6    1  0.2144783E-005  0.1534051E+03  0.7818608E-02  0.1285093E+00
          2   -1    0    0  502    0  0.00000000000E+00  0.00000000000E+00  0.61243886836E+02  0.61243886836E+02  0.00000000000E+00 0. -1.
          1   -1    0    0  501    0 -0.00000000000E+00 -0.00000000000E+00 -0.62912532401E+03  0.62912532401E+03  0.00000000000E+00 0. -1.
          2    1    1    2  501    0  0.78561814975E+02  0.12375074938E+03 -0.25901705977E+03  0.29761727772E+03  0.00000000000E+00 0. -1.
          1    1    1    2  502    0 -0.12654340373E+02 -0.88503701281E+02 -0.15357215064E+03  0.17770043028E+03  0.00000000000E+00 0. -1.
         22    1    1    2    0    0 -0.40632645915E+02 -0.34286750429E+02 -0.17505673270E+03  0.18295205064E+03  0.00000000000E+00 0. -1.
         22    1    1    2    0    0 -0.25274828688E+02 -0.96029767510E+00  0.19764505937E+02  0.32099452203E+02  0.00000000000E+00 0. -1.
</event>
<event>
 6    1  0.2144783E-005  0.6122659E+02  0.7818608E-02  0.1392991E+00
          2   -1    0    0  502    0  0.00000000000E+00  0.00000000000E+00  0.29942443869E+03  0.29942443869E+03  0.00000000000E+00 0. -1.
          1   -1    0    0  501    0 -0.00000000000E+00 -0.00000000000E+00 -0.14136610313E+03  0.14136610313E+03  0.00000000000E+00 0. -1.
          2    1    1    2  501    0  0.32170915551E+02 -0.31681651617E+02  0.23572719437E+03  0.24001251013E+03  0.00000000000E+00 0. -1.
          1    1    1    2  502    0 -0.15739563555E+02  0.28703671688E+02 -0.67561228515E+02  0.75074324691E+02  0.00000000000E+00 0. -1.
         22    1    1    2    0    0 -0.22559067338E+02  0.16932686281E+02 -0.63870839102E+02  0.69821998478E+02  0.00000000000E+00 0. -1.
         22    1    1    2    0    0  0.61277153420E+01 -0.13954706353E+02  0.53763208816E+02  0.55881708518E+02  0.00000000000E+00 0.  1.
</event>
<event>
 6    1  0.2144783E-005  0.7781360E+02  0.7818608E-02  0.1367211E+00
          2   -1    0    0  502    0  0.00000000000E+00  0.00000000000E+00  0.45032893722E+03  0.45032893722E+03  0.00000000000E+00 0. -1.
          1   -1    0    0  501    0 -0.00000000000E+00 -0.00000000000E+00 -0.84301880835E+02  0.84301880835E+02  0.00000000000E+00 0.  1.
          2    1    1    2  501    0  0.53044093681E+02 -0.99954998364E+02  0.25159015486E+03  0.27586642346E+03  0.00000000000E+00 0. -1.
          1    1    1    2  502    0 -0.23482558615E+02  0.50820772143E+02 -0.28402249532E+02  0.62776342827E+02  0.00000000000E+00 0.  1.
         22    1    1    2    0    0 -0.16123638583E+02  0.59321434324E+01 -0.20356223256E+02  0.26637152102E+02  0.00000000000E+00 0.  1.
         22    1    1    2    0    0 -0.13437896483E+02  0.43202082789E+02  0.16319537432E+03  0.16935089966E+03  0.00000000000E+00 0. -1.
</event>
<event>
 6    1  0.2144783E-005  0.1858141E+03  0.7818608E-02  0.1224022E+00
          2   -1    0    0  502    0  0.00000000000E+00  0.00000000000E+00  0.75822426942E+02  0.75822426942E+02  0.00000000000E+00 0. -1.
          1   -1    0    0  501    0 -0.00000000000E+00 -0.00000000000E+00 -0.15910021022E+04  0.15910021022E+04  0.00000000000E+00 0.  1.
          2    1    1    2  501    0  0.20024406064E+03  0.14727399901E+02 -0.10128542648E+03  0.22488512122E+03  0.00000000000E+00 0. -1.
          1    1    1    2  502    0 -0.74144484559E+02  0.10601814174E+02 -0.74461951990E+03  0.74837693208E+03  0.00000000000E+00 0.  1.
         22    1    1    2    0    0 -0.24099388157E+02 -0.41296154345E+02 -0.65898740231E+02  0.81417423426E+02  0.00000000000E+00 0. -1.
         22    1    1    2    0    0 -0.10200018793E+03  0.15966940270E+02 -0.60337598868E+03  0.61214505245E+03  0.00000000000E+00 0.  1.
</event>
<event>
 6    1  0.2144783E-005  0.2127647E+03  0.7818608E-02  0.1264617E+00
          2   -1    0    0  502    0  0.00000000000E+00  0.00000000000E+00  0.18524561654E+04  0.18524561654E+04  0.00000000000E+00 0.  1.
          1   -1    0    0  501    0 -0.00000000000E+00 -0.00000000000E+00 -0.11994326944E+03  0.11994326944E+03  0.00000000000E+00 0.  1.
          2    1    1    2  501    0 -0.35717850461E+03 -0.63266506198E+02  0.36209463251E+03  0.51253454309E+03  0.00000000000E+00 0.  1.
          1    1    1    2  502    0  0.21338999360E+03 -0.54018786396E+02  0.10290637613E+04  0.10523428830E+04  0.00000000000E+00 0.  1.
         22    1    1    2    0    0 -0.11094078708E+02 -0.66805681252E+01  0.71103537249E+02  0.72273242505E+02  0.00000000000E+00 0. -1.
         22    1    1    2    0    0  0.15488258972E+03  0.12396586072E+03  0.27025096497E+03  0.33524876628E+03  0.00000000000E+00 0.  1.
</event>
<event>
 6    1  0.2144783E-005  0.5533054E+02  0.7818608E-02  0.1504861E+00
          2   -1    0    0  502    0  0.00000000000E+00  0.00000000000E+00  0.27422379807E+03  0.27422379807E+03  0.00000000000E+00 0. -1.
          1   -1    0    0  501    0 -0.00000000000E+00 -0.00000000000E+00 -0.11901039748E+03  0.11901039748E+03  0.00000000000E+00 0. -1.
          2    1    1    2  501    0 -0.58180202586E+02 -0.43764851650E+02 -0.41132721591E+02  0.83619369756E+02  0.00000000000E+00 0. -1.
          1    1    1    2  502    0 -0.94857519230E+01  0.42373860143E+02 -0.23696352623E+02  0.49467571606E+02  0.00000000000E+00 0. -1.
         22    1    1    2    0    0  0.54904805710E+02 -0.79565626955E+01  0.23311533306E+03  0.23962596497E+03  0.00000000000E+00 0. -1.
         22    1    1    2    0    0  0.12761148798E+02  0.93475542023E+01 -0.13072858257E+02  0.20521289220E+02  0.00000000000E+00 0.  1.
</event>
<event>
 6    1  0.2144783E-005  0.5818283E+02  0.7818608E-02  0.1518434E+00
          2   -1    0    0  502    0  0.00000000000E+00  0.00000000000E+00  0.40816689765E+03  0.40816689765E+03  0.00000000000E+00 0.  1.
          1   -1    0    0  501    0 -0.00000000000E+00 -0.00000000000E+00 -0.53263883697E+02  0.53263883697E+02  0.00000000000E+00 0.  1.
          2    1    1    2  501    0 -0.35640618229E+02 -0.53907052829E+02  0.26266566037E+03  0.27049856404E+03  0.00000000000E+00 0.  1.
          1    1    1    2  502    0  0.15303659383E+02  0.17998730323E+02 -0.89217626725E+01  0.25253794426E+02  0.00000000000E+00 0.  1.
         22    1    1    2    0    0  0.14142133701E+01 -0.11233839235E+02 -0.26211119680E+02  0.28552091662E+02  0.00000000000E+00 0. -1.
         22    1    1    2    0    0  0.18922745476E+02  0.47142161741E+02  0.12737023593E+03  0.13712633121E+03  0.00000000000E+00 0.  1.
</event>
<event>
 6    1  0.2144783E-005  0.5938500E+02  0.7818608E-02  0.1413738E+00
          2   -1    0    0  502    0  0.00000000000E+00  0.00000000000E+00  0.71531917595E+02  0.71531917595E+02  0.00000000000E+00 0.  1.
          1   -1    0    0  501    0 -0.00000000000E+00 -0.00000000000E+00 -0.35713366065E+03  0.35713366065E+03  0.00000000000E+00 0.  1.
          2    1    1    2  501    0  0.84039477976E+02 -0.19593798162E+02 -0.99915929563E+02  0.13202175489E+03  0.00000000000E+00 0.  1.
          1    1    1    2  502    0 -0.70960684805E+02  0.50452207652E+02 -0.13584312041E+03  0.16135116178E+03  0.00000000000E+00 0.  1.
         22    1    1    2    0    0 -0.43091042734E+02 -0.15030351997E+02 -0.78551519729E+02  0.90846522755E+02  0.00000000000E+00 0.  1.
         22    1    1    2    0    0  0.30012249563E+02 -0.15828057493E+02  0.28708826650E+02  0.44446138814E+02  0.00000000000E+00 0. -1.
</event>
<event>
 6    1  0.2144783E-005  0.1032312E+03  0.7818608E-02  0.1281604E+00
          2   -1    0    0  502    0  0.00000000000E+00  0.00000000000E+00  0.14399441405E+04  0.14399441405E+04  0.00000000000E+00 0.  1.
          1   -1    0    0  501    0 -0.00000000000E+00 -0.00000000000E+00 -0.31592876599E+02  0.31592876599E+02  0.00000000000E+00 0.  1.
          2    1    1    2  501    0  0.92503568969E+01 -0.51330234193E+02  0.79521372981E+03  0.79692235388E+03  0.00000000000E+00 0.  1.
          1    1    1    2  502    0  0.83804650079E+02 -0.20461210828E+00  0.77505129364E+02  0.11415036714E+03  0.00000000000E+00 0.  1.
         22    1    1    2    0    0 -0.10480676823E+02  0.19229372607E+02  0.49856033219E+01  0.22460400665E+02  0.00000000000E+00 0.  1.
         22    1    1    2    0    0 -0.82574330153E+02  0.32305473695E+02  0.53064680140E+03  0.53800389540E+03  0.00000000000E+00 0.  1.
</event>
<event>
 6    1  0.2144783E-005  0.3192412E+03  0.7818608E-02  0.1079206E+00
          2   -1    0    0  502    0  0.00000000000E+00  0.00000000000E+00  0.10504496598E+03  0.10504496598E+03  0.00000000000E+00 0.  1.
          1   -1    0    0  501    0 -0.00000000000E+00 -0.00000000000E+00 -0.11999363531E+04  0.11999363531E+04  0.00000000000E+00 0.  1.
          2    1    1    2  501    0 -0.34624976225E+02  0.18404399918E+03 -0.22398024164E+03  0.29195587211E+03  0.00000000000E+00 0.  1.
          1    1    1    2  502    0  0.41035826102E+02 -0.27465445902E+03 -0.79366896304E+03  0.84085042295E+03  0.00000000000E+00 0.  1.
         22    1    1    2    0    0 -0.15370197967E+01 -0.12827002277E+02 -0.66867924325E+02  0.68104432460E+02  0.00000000000E+00 0.  1.
         22    1    1    2    0    0 -0.48738300805E+01  0.10343746211E+03 -0.10374258069E+02  0.10407059152E+03  0.00000000000E+00 0.  1.
</event>
<event>
 6    1  0.2144783E-005  0.1791220E+03  0.7818608E-02  0.1240334E+00
          2   -1    0    0  502    0  0.00000000000E+00  0.00000000000E+00  0.88236877062E+02  0.88236877062E+02  0.00000000000E+00 0.  1.
          1   -1    0    0  501    0 -0.00000000000E+00 -0.00000000000E+00 -0.99979996265E+03  0.99979996265E+03  0.00000000000E+00 0.  1.
          2    1    1    2  501    0  0.66134245879E+02 -0.99595025565E+02 -0.22995997779E+02  0.12174450094E+03  0.00000000000E+00 0.  1.
          1    1    1    2  502    0 -0.26811858221E+02  0.10158222347E+01 -0.75401718454E+03  0.75449441496E+03  0.00000000000E+00 0.  1.
         22    1    1    2    0    0 -0.27439460432E+02  0.26515139727E+02  0.18356803787E+02  0.42343226953E+02  0.00000000000E+00 0. -1.
         22    1    1    2    0    0 -0.11882927225E+02  0.72064063604E+02 -0.15290670706E+03  0.16945469686E+03  0.00000000000E+00 0.  1.
</event>
<event>
 6    1  0.2144783E-005  0.3805875E+02  0.7818608E-02  0.1552973E+00
          2   -1    0    0  502    0  0.00000000000E+00  0.00000000000E+00  0.15758668504E+03  0.15758668504E+03  0.00000000000E+00 0.  1.
          1   -1    0    0  501    0 -0.00000000000E+00 -0.00000000000E+00 -0.17771373246E+03  0.17771373246E+03  0.00000000000E+00 0. -1.
          2    1    1    2  501    0 -0.32472852458E+01 -0.53484074898E+02  0.26300690967E+02  0.59689341381E+02  0.00000000000E+00 0.  1.
          1    1    1    2  502    0 -0.65488028188E+01  0.45804684801E+02 -0.12153919155E+03  0.13004895636E+03  0.00000000000E+00 0. -1.
         22    1    1    2    0    0 -0.17167558075E+02  0.58651796888E+01 -0.31079174633E+02  0.35986670851E+02  0.00000000000E+00 0. -1.
         22    1    1    2    0    0  0.26963646140E+02  0.18142104075E+01  0.10619062780E+03  0.10957544891E+03  0.00000000000E+00 0.  1.
</event>
<event>
 6    1  0.2144783E-005  0.1051000E+03  0.7818608E-02  0.1285247E+00
          2   -1    0    0  502    0  0.00000000000E+00  0.00000000000E+00  0.18742283084E+03  0.18742283084E+03  0.00000000000E+00 0.  1.
          1   -1    0    0  501    0 -0.00000000000E+00 -0.00000000000E+00 -0.17807311052E+03  0.17807311052E+03  0.00000000000E+00 0.  1.
          2    1    1    2  501    0 -0.98278962601E+02  0.51522108773E+02  0.66581174286E+02  0.12940763096E+03  0.00000000000E+00 0.  1.
          1    1    1    2  502    0  0.40689241821E+01 -0.54032274023E+02  0.20448954952E+02  0.57915477540E+02  0.00000000000E+00 0.  1.
         22    1    1    2    0    0  0.99600427473E+02  0.22717866041E+02 -0.10317696552E+03  0.14519584293E+03  0.00000000000E+00 0. -1.
         22    1    1    2    0    0 -0.53903890542E+01 -0.20207700792E+02  0.25496556604E+02  0.32976989919E+02  0.00000000000E+00 0.  1.
</event>
<event>
 6    1  0.2197090E-005  0.3379947E+02  0.7818608E-02  0.1605878E+00
          2   -1    0    0  502    0  0.00000000000E+00  0.00000000000E+00  0.13560270502E+04  0.13560270502E+04  0.00000000000E+00 0.  1.
          1   -1    0    0  501    0 -0.00000000000E+00 -0.00000000000E+00 -0.17379619792E+03  0.17379619792E+03  0.00000000000E+00 0. -1.
          2    1    1    2  501    0 -0.22572325705E+02  0.23834826982E+02  0.12757411499E+04  0.12761634263E+04  0.00000000000E+00 0.  1.
          1    1    1    2  502    0  0.37043472624E+02 -0.49520273917E+02  0.34017524312E+02  0.70580934771E+02  0.00000000000E+00 0. -1.
         22    1    1    2    0    0 -0.24788074589E+02  0.13512936092E+02 -0.15159564220E+03  0.15420209732E+03  0.00000000000E+00 0. -1.
         22    1    1    2    0    0  0.10316927670E+02  0.12172510843E+02  0.24067820211E+02  0.28876789753E+02  0.00000000000E+00 0. -1.
</event>
<event>
 6    1  0.2144783E-005  0.9190684E+02  0.7818608E-02  0.1382116E+00
          2   -1    0    0  502    0  0.00000000000E+00  0.00000000000E+00  0.56546676208E+02  0.56546676208E+02  0.00000000000E+00 0. -1.
          1   -1    0    0  501    0 -0.00000000000E+00 -0.00000000000E+00 -0.11227263717E+04  0.11227263717E+04  0.00000000000E+00 0.  1.
          2    1    1    2  501    0  0.14019677630E+02 -0.28766314538E+02 -0.26205887243E+01  0.32107938242E+02  0.00000000000E+00 0. -1.
          1    1    1    2  502    0  0.30945263214E+02  0.78018520827E+02 -0.97486786513E+03  0.97847424768E+03  0.00000000000E+00 0.  1.
         22    1    1    2    0    0 -0.23892674190E+02 -0.53473561929E+02  0.16881446261E+02  0.60952973128E+02  0.00000000000E+00 0. -1.
         22    1    1    2    0    0 -0.21072266654E+02  0.42213556396E+01 -0.10557268788E+03  0.10773788884E+03  0.00000000000E+00 0.  1.
</event>
<event>
 6    1  0.2144783E-005  0.4113114E+02  0.7818608E-02  0.1552825E+00
          2   -1    0    0  502    0  0.00000000000E+00  0.00000000000E+00  0.16708060703E+03  0.16708060703E+03  0.00000000000E+00 0.  1.
          1   -1    0    0  501    0 -0.00000000000E+00 -0.00000000000E+00 -0.92468565910E+02  0.92468565910E+02  0.00000000000E+00 0. -1.
          2    1    1    2  501    0  0.59417092740E+02 -0.79541441030E+01  0.61254774773E+02  0.85707681982E+02  0.00000000000E+00 0.  1.
          1    1    1    2  502    0 -0.40772293306E+02  0.10773140845E+01 -0.86748691503E+01  0.41698847248E+02  0.00000000000E+00 0. -1.
         22    1    1    2    0    0 -0.22688271497E+02  0.21569425635E+02 -0.49739600387E+02  0.58770959090E+02  0.00000000000E+00 0. -1.
         22    1    1    2    0    0  0.40434720624E+01 -0.14692595616E+02  0.71771735887E+02  0.73371684624E+02  0.00000000000E+00 0. -1.
</event>
<event>
 6    1  0.2144783E-005  0.9245565E+02  0.7818608E-02  0.1361615E+00
          2   -1    0    0  502    0  0.00000000000E+00  0.00000000000E+00  0.34899689945E+03  0.34899689945E+03  0.00000000000E+00 0.  1.
          1   -1    0    0  501    0 -0.00000000000E+00 -0.00000000000E+00 -0.98378262375E+02  0.98378262375E+02  0.00000000000E+00 0. -1.
          2    1    1    2  501    0 -0.50090678184E+02 -0.54217391162E+02  0.14880585593E+03  0.16610774908E+03  0.00000000000E+00 0.  1.
          1    1    1    2  502    0  0.71777108114E+02  0.32254516517E+02 -0.43344026841E+02  0.89838809808E+02  0.00000000000E+00 0. -1.
         22    1    1    2    0    0  0.63946892687E+01  0.12558995628E+02 -0.19539110278E+02  0.24091435251E+02  0.00000000000E+00 0. -1.
         22    1    1    2    0    0 -0.28081119199E+02  0.94038790180E+01  0.16469591826E+03  0.16733716768E+03  0.00000000000E+00 0.  1.
</event>
<event>
 6    1  0.2144783E-005  0.1020525E+03  0.7818608E-02  0.1277695E+00
          2   -1    0    0  502    0  0.00000000000E+00  0.00000000000E+00  0.32243396212E+03  0.32243396212E+03  0.00000000000E+00 0. -1.
          1   -1    0    0  501    0 -0.00000000000E+00 -0.00000000000E+00 -0.20930595023E+03  0.20930595023E+03  0.00000000000E+00 0. -1.
          2    1    1    2  501    0  0.53637976524E+02  0.63188806349E+02  0.23380270324E+03  0.24805959327E+03  0.00000000000E+00 0. -1.
          1    1    1    2  502    0 -0.44190579825E+02 -0.68640852317E+02 -0.12989846201E+03  0.15342093855E+03  0.00000000000E+00 0. -1.
         22    1    1    2    0    0 -0.14589576000E+02 -0.81128502893E+01 -0.58584602860E+02  0.60916580336E+02  0.00000000000E+00 0. -1.
         22    1    1    2    0    0  0.51421793006E+01  0.13564896257E+02  0.67808373518E+02  0.69342800186E+02  0.00000000000E+00 0. -1.
</event>
<event>
 6    1  0.2144783E-005  0.1197978E+03  0.7818608E-02  0.1353877E+00
          2   -1    0    0  502    0  0.00000000000E+00  0.00000000000E+00  0.90608600738E+02  0.90608600738E+02  0.00000000000E+00 0.  1.
          1   -1    0    0  501    0 -0.00000000000E+00 -0.00000000000E+00 -0.30334872375E+03  0.30334872375E+03  0.00000000000E+00 0. -1.
          2    1    1    2  501    0  0.39265775082E+02 -0.27501157189E+02  0.19187362243E+02  0.51635933315E+02  0.00000000000E+00 0.  1.
          1    1    1    2  502    0 -0.98049966298E+02  0.29956012964E+02 -0.14683126959E+03  0.17908260757E+03  0.00000000000E+00 0. -1.
         22    1    1    2    0    0 -0.14396286974E+02  0.57722008837E+01 -0.88179091433E+02  0.89532807103E+02  0.00000000000E+00 0. -1.
         22    1    1    2    0    0  0.73180478190E+02 -0.82270566587E+01  0.30828757675E+01  0.73705976503E+02  0.00000000000E+00 0.  1.
</event>
<event>
 6    1  0.2144783E-005  0.9243747E+02  0.7818608E-02  0.1424709E+00
          2   -1    0    0  502    0  0.00000000000E+00  0.00000000000E+00  0.10460416647E+03  0.10460416647E+03  0.00000000000E+00 0. -1.
          1   -1    0    0  501    0 -0.00000000000E+00 -0.00000000000E+00 -0.42308016997E+03  0.42308016997E+03  0.00000000000E+00 0. -1.
          2    1    1    2  501    0  0.48131588310E+02 -0.72686519667E+02  0.34097327453E+02  0.93608801263E+02  0.00000000000E+00 0. -1.
          1    1    1    2  502    0 -0.38599332446E+02  0.59087100795E+02 -0.27554519946E+03  0.28444041712E+03  0.00000000000E+00 0. -1.
         22    1    1    2    0    0 -0.20690470009E+01  0.21398844127E+02 -0.11147874759E+03  0.11353282631E+03  0.00000000000E+00 0.  1.
         22    1    1    2    0    0 -0.74632088635E+01 -0.77994252553E+01  0.34450616091E+02  0.36102291754E+02  0.00000000000E+00 0. -1.
</event>
<event>
 6    1  0.2144783E-005  0.5566266E+02  0.7818608E-02  0.1460327E+00
          2   -1    0    0  502    0  0.00000000000E+00  0.00000000000E+00  0.20205023252E+03  0.20205023252E+03  0.00000000000E+00 0.  1.
          1   -1    0    0  501    0 -0.00000000000E+00 -0.00000000000E+00 -0.19363736854E+03  0.19363736854E+03  0.00000000000E+00 0. -1.
          2    1    1    2  501    0 -0.74482937257E+02 -0.17193473332E+02  0.15298059790E+03  0.17101575016E+03  0.00000000000E+00 0.  1.
          1    1    1    2  502    0  0.23171035771E+02  0.14493278968E+02 -0.56774830721E+02  0.63010581947E+02  0.00000000000E+00 0. -1.
         22    1    1    2    0    0  0.28919043646E+02 -0.31058068465E+01  0.29902059341E+02  0.41714389296E+02  0.00000000000E+00 0.  1.
         22    1    1    2    0    0  0.22392857840E+02  0.58060012099E+01 -0.11769496254E+03  0.11994687966E+03  0.00000000000E+00 0. -1.
</event>
<event>
 6    1  0.2144783E-005  0.6389745E+02  0.7818608E-02  0.1409051E+00
          2   -1    0    0  502    0  0.00000000000E+00  0.00000000000E+00  0.43773280893E+03  0.43773280893E+03  0.00000000000E+00 0.  1.
          1   -1    0    0  501    0 -0.00000000000E+00 -0.00000000000E+00 -0.69498966758E+02  0.69498966758E+02  0.00000000000E+00 0.  1.
          2    1    1    2  501    0  0.33490952917E+02 -0.64541467847E+02  0.22159043945E+02  0.76014921086E+02  0.00000000000E+00 0.  1.
          1    1    1    2  502    0  0.13150187158E+02  0.26221127566E+02 -0.23523543873E+02  0.37600958358E+02  0.00000000000E+00 0.  1.
         22    1    1    2    0    0 -0.56099994101E+02  0.31045977989E+02  0.37505409004E+03  0.38049524641E+03  0.00000000000E+00 0.  1.
         22    1    1    2    0    0  0.94588540257E+01  0.72743622932E+01 -0.54557479432E+01  0.13120649827E+02  0.00000000000E+00 0.  1.
</event>
<event>
 6    1  0.2144783E-005  0.8251056E+02  0.7818608E-02  0.1369723E+00
          2   -1    0    0  502    0  0.00000000000E+00  0.00000000000E+00  0.25865975184E+03  0.25865975184E+03  0.00000000000E+00 0. -1.
          1   -1    0    0  501    0 -0.00000000000E+00 -0.00000000000E+00 -0.10314922058E+03  0.10314922058E+03  0.00000000000E+00 0. -1.
          2    1    1    2  501    0 -0.32326055305E+02 -0.62491747712E+01  0.11080662655E+03  0.11559469938E+03  0.00000000000E+00 0. -1.
          1    1    1    2  502    0  0.45948799087E+02 -0.43530341749E+02 -0.47182081141E+02  0.78945117462E+02  0.00000000000E+00 0. -1.
         22    1    1    2    0    0  0.28614310898E+02  0.22496836378E+02 -0.22171488684E+02  0.42619964168E+02  0.00000000000E+00 0. -1.
         22    1    1    2    0    0 -0.42237054680E+02  0.27282680142E+02  0.11405747453E+03  0.12464919142E+03  0.00000000000E+00 0.  1.
</event>
<event>
 6    1  0.2144783E-005  0.1526938E+03  0.7818608E-02  0.1260772E+00
          2   -1    0    0  502    0  0.00000000000E+00  0.00000000000E+00  0.31657705732E+03  0.31657705732E+03  0.00000000000E+00 0.  1.
          1   -1    0    0  501    0 -0.00000000000E+00 -0.00000000000E+00 -0.46198894457E+03  0.46198894457E+03  0.00000000000E+00 0. -1.
          2    1    1    2  501    0 -0.13162217325E+03 -0.24904950601E+03  0.56963149971E+02  0.28739320345E+03  0.00000000000E+00 0.  1.
          1    1    1    2  502    0  0.85665041873E+02  0.12120399167E+03 -0.25918055898E+03  0.29866949818E+03  0.00000000000E+00 0. -1.
         22    1    1    2    0    0  0.34977685709E+02 -0.22527098838E+01 -0.20664839783E+02  0.40688435736E+02  0.00000000000E+00 0.  1.
         22    1    1    2    0    0  0.10979445664E+02  0.13009822422E+03  0.77470361545E+02  0.15181486453E+03  0.00000000000E+00 0.  1.
</event>
<event>
 6    1  0.2144783E-005  0.1415184E+03  0.7818608E-02  0.1307797E+00
          2   -1    0    0  502    0  0.00000000000E+00  0.00000000000E+00  0.36182402812E+03  0.36182402812E+03  0.00000000000E+00 0. -1.
          1   -1    0    0  501    0 -0.00000000000E+00 -0.00000000000E+00 -0.94248272693E+02  0.94248272693E+02  0.00000000000E+00 0. -1.
          2    1    1    2  501    0 -0.38747305063E+02  0.14029646841E+03  0.17821743557E+03  0.23009977627E+03  0.00000000000E+00 0. -1.
          1    1    1    2  502    0  0.93002813856E+01 -0.48448924338E+02  0.11434322220E+02  0.50641260134E+02  0.00000000000E+00 0. -1.
         22    1    1    2    0    0  0.44290161982E+02 -0.76783629059E+02 -0.59413857607E+01  0.88840554954E+02  0.00000000000E+00 0. -1.
         22    1    1    2    0    0 -0.14843138304E+02 -0.15063915012E+02  0.83865383390E+02  0.86490709451E+02  0.00000000000E+00 0. -1.
</event>
<event>
 6    1  0.2144783E-005  0.7723637E+02  0.7818608E-02  0.1348135E+00
          2   -1    0    0  502    0  0.00000000000E+00  0.00000000000E+00  0.40616331794E+03  0.40616331794E+03  0.00000000000E+00 0. -1.
          1   -1    0    0  501    0 -0.00000000000E+00 -0.00000000000E+00 -0.90900151363E+02  0.90900151363E+02  0.00000000000E+00 0.  1.
          2    1    1    2  501    0 -0.33832819423E+02 -0.17706033618E+02  0.83348493437E+02  0.91679521458E+02  0.00000000000E+00 0. -1.
          1    1    1    2  502    0  0.73172817554E+02 -0.10631431344E+02 -0.51930214070E+02  0.90355053509E+02  0.00000000000E+00 0.  1.
         22    1    1    2    0    0 -0.52455355754E+02  0.36359984996E+02  0.29110982645E+03  0.29802440153E+03  0.00000000000E+00 0. -1.
         22    1    1    2    0    0  0.13115357623E+02 -0.80225200349E+01 -0.72649392376E+01  0.17004492801E+02  0.00000000000E+00 0. -1.
</event>
<event>
 6    1  0.2144783E-005  0.4763332E+02  0.7818608E-02  0.1482879E+00
          2   -1    0    0  502    0  0.00000000000E+00  0.00000000000E+00  0.14685381678E+03  0.14685381678E+03  0.00000000000E+00 0. -1.
          1   -1    0    0  501    0 -0.00000000000E+00 -0.00000000000E+00 -0.99927459904E+02  0.99927459904E+02  0.00000000000E+00 0. -1.
          2    1    1    2  501    0  0.25588848985E+02 -0.30821726069E+01  0.21421288936E+02  0.33513588289E+02  0.00000000000E+00 0. -1.
          1    1    1    2  502    0 -0.26034157194E+02 -0.20351087909E+02 -0.53104411184E+02  0.62546163808E+02  0.00000000000E+00 0. -1.
         22    1    1    2    0    0  0.21350079295E+02  0.25974595969E+02  0.10881981756E+03  0.11389582176E+03  0.00000000000E+00 0. -1.
         22    1    1    2    0    0 -0.20904771086E+02 -0.25413354529E+01 -0.30210338435E+02  0.36825702823E+02  0.00000000000E+00 0. -1.
</event>
<event>
 6    1  0.2144783E-005  0.1733266E+03  0.7818608E-02  0.1251438E+00
          2   -1    0    0  502    0  0.00000000000E+00  0.00000000000E+00  0.36724509328E+03  0.36724509328E+03  0.00000000000E+00 0. -1.
          1   -1    0    0  501    0 -0.00000000000E+00 -0.00000000000E+00 -0.18579894694E+03  0.18579894694E+03  0.00000000000E+00 0. -1.
          2    1    1    2  501    0  0.12197660611E+03  0.60226412688E+02 -0.11508387075E+03  0.17818476515E+03  0.00000000000E+00 0. -1.
          1    1    1    2  502    0 -0.59389816183E+02 -0.31287322165E+02  0.17044826729E+03  0.18319022522E+03  0.00000000000E+00 0. -1.
         22    1    1    2    0    0 -0.66042484797E+02 -0.62446446992E+02  0.40136798767E+02  0.99358598800E+02  0.00000000000E+00 0. -1.
         22    1    1    2    0    0  0.34556948686E+01  0.33507356469E+02  0.85944951041E+02  0.92310451055E+02  0.00000000000E+00 0. -1.
</event>
<event>
 6    1  0.2144783E-005  0.8400078E+02  0.7818608E-02  0.1395550E+00
          2   -1    0    0  502    0  0.00000000000E+00  0.00000000000E+00  0.16018605177E+03  0.16018605177E+03  0.00000000000E+00 0. -1.
          1   -1    0    0  501    0 -0.00000000000E+00 -0.00000000000E+00 -0.76381599771E+02  0.76381599771E+02  0.00000000000E+00 0.  1.
          2    1    1    2  501    0 -0.55640539382E+02 -0.66147247158E+01  0.54209715276E+01  0.56293970708E+02  0.00000000000E+00 0. -1.
          1    1    1    2  502    0  0.29671575002E+02 -0.11218710203E+02  0.13515522199E+02  0.34480881109E+02  0.00000000000E+00 0.  1.
         22    1    1    2    0    0  0.19684022077E+02  0.39618616605E+02 -0.26557047078E+02  0.51598180746E+02  0.00000000000E+00 0.  1.
         22    1    1    2    0    0  0.62849423037E+01 -0.21785181686E+02  0.91425005348E+02  0.94194618974E+02  0.00000000000E+00 0. -1.
</event>
<event>
 6    1  0.2144783E-005  0.2458239E+02  0.7818608E-02  0.1682039E+00
          2   -1    0    0  502    0  0.00000000000E+00  0.00000000000E+00  0.18723953562E+03  0.18723953562E+03  0.00000000000E+00 0. -1.
          1   -1    0    0  501    0 -0.00000000000E+00 -0.00000000000E+00 -0.22865854193E+03  0.22865854193E+03  0.00000000000E+00 0. -1.
          2    1    1    2  501    0  0.24820531780E+02  0.15712760406E+02  0.95459722651E+02  0.99877466357E+02  0.00000000000E+00 0. -1.
          1    1    1    2  502    0  0.11815938395E+01 -0.29705063439E+02 -0.17552729592E+03  0.17802701641E+03  0.00000000000E+00 0. -1.
         22    1    1    2    0    0 -0.10580279433E+02  0.14742835017E+02  0.86152783927E+02  0.88043146670E+02  0.00000000000E+00 0.  1.
         22    1    1    2    0    0 -0.15421846187E+02 -0.75053198308E+00 -0.47504216961E+02  0.49950448117E+02  0.00000000000E+00 0.  1.
</event>
<event>
 6    1  0.2144783E-005  0.4049715E+02  0.7818608E-02  0.1530279E+00
          2   -1    0    0  502    0  0.00000000000E+00  0.00000000000E+00  0.14022678514E+03  0.14022678514E+03  0.00000000000E+00 0. -1.
          1   -1    0    0  501    0 -0.00000000000E+00 -0.00000000000E+00 -0.16250553162E+04  0.16250553162E+04  0.00000000000E+00 0.  1.
          2    1    1    2  501    0 -0.20336376335E+02  0.83310891506E+02 -0.58915664726E+02  0.10404483839E+03  0.00000000000E+00 0. -1.
          1    1    1    2  502    0  0.26282338086E+02 -0.73145969728E+02 -0.15074436870E+04  0.15094461115E+04  0.00000000000E+00 0.  1.
         22    1    1    2    0    0 -0.18307539921E+02 -0.49268952412E+01  0.11457017237E+03  0.11612822530E+03  0.00000000000E+00 0. -1.
         22    1    1    2    0    0  0.12361578169E+02 -0.52380265366E+01 -0.33039351732E+02  0.35662926124E+02  0.00000000000E+00 0. -1.
</event>
<event>
 6    1  0.2144783E-005  0.7228438E+02  0.7818608E-02  0.1389557E+00
          2   -1    0    0  502    0  0.00000000000E+00  0.00000000000E+00  0.33381504404E+03  0.33381504404E+03  0.00000000000E+00 0.  1.
          1   -1    0    0  501    0 -0.00000000000E+00 -0.00000000000E+00 -0.19303922704E+03  0.19303922704E+03  0.00000000000E+00 0.  1.
          2    1    1    2  501    0 -0.47201090433E+02  0.14447839571E+02  0.25432991042E+03  0.25907602425E+03  0.00000000000E+00 0.  1.
          1    1    1    2  502    0  0.39755017602E+02 -0.36325606276E+02 -0.12431675272E+03  0.13547939365E+03  0.00000000000E+00 0.  1.
         22    1    1    2    0    0  0.78099376936E+01 -0.17286883772E+02 -0.53654698919E+02  0.56909210093E+02  0.00000000000E+00 0.  1.
         22    1    1    2    0    0 -0.36386486244E+00  0.39164650477E+02  0.64417358229E+02  0.75389643094E+02  0.00000000000E+00 0.  1.
</event>
<event>
 6    1  0.2144783E-005  0.5928057E+02  0.7818608E-02  0.1451851E+00
          2   -1    0    0  502    0  0.00000000000E+00  0.00000000000E+00  0.18834947777E+03  0.18834947777E+03  0.00000000000E+00 0. -1.
          1   -1    0    0  501    0 -0.00000000000E+00 -0.00000000000E+00 -0.12355992306E+03  0.12355992306E+03  0.00000000000E+00 0. -1.
          2    1    1    2  501    0 -0.25749721945E+02  0.69697878666E+02  0.60758899632E+02  0.95981698022E+02  0.00000000000E+00 0. -1.
          1    1    1    2  502    0 -0.43496680271E+02 -0.55170674007E+02 -0.98417525844E+01  0.70940993501E+02  0.00000000000E+00 0. -1.
         22    1    1    2    0    0  0.23112850092E+02  0.67285196307E+01  0.67174661444E+02  0.71357634181E+02  0.00000000000E+00 0. -1.
         22    1    1    2    0    0  0.46133552125E+02 -0.21255724289E+02 -0.53302253783E+02  0.73629075134E+02  0.00000000000E+00 0. -1.
</event>
<event>
 6    1  0.2144783E-005  0.2030021E+03  0.7818608E-02  0.1256222E+00
          2   -1    0    0  502    0  0.00000000000E+00  0.00000000000E+00  0.30289305809E+03  0.30289305809E+03  0.00000000000E+00 0.  1.
          1   -1    0    0  501    0 -0.00000000000E+00 -0.00000000000E+00 -0.90120114236E+03  0.90120114236E+03  0.00000000000E+00 0. -1.
          2    1    1    2  501    0  0.79610279638E+02 -0.19386054709E+03  0.22027687017E+03  0.30404211529E+03  0.00000000000E+00 0.  1.
          1    1    1    2  502    0 -0.62833501331E+02  0.15998572750E+03 -0.70828166340E+03  0.72883907456E+03  0.00000000000E+00 0. -1.
         22    1    1    2    0    0  0.86897307864E+01  0.16971724423E+02  0.25596918316E+02  0.31917911559E+02  0.00000000000E+00 0.  1.
         22    1    1    2    0    0 -0.25466509094E+02  0.16903095166E+02 -0.13590020935E+03  0.13929509903E+03  0.00000000000E+00 0. -1.
</event>
<event>
 6    1  0.2144783E-005  0.1246476E+03  0.7818608E-02  0.1329436E+00
          2   -1    0    0  502    0  0.00000000000E+00  0.00000000000E+00  0.13421507159E+03  0.13421507159E+03  0.00000000000E+00 0.  1.
          1   -1    0    0  501    0 -0.00000000000E+00 -0.00000000000E+00 -0.25610625521E+03  0.25610625521E+03  0.00000000000E+00 0.  1.
          2    1    1    2  501    0 -0.98140051194E+02  0.42736041629E+02 -0.11604896493E+03  0.15787717113E+03  0.00000000000E+00 0.  1.
          1    1    1    2  502    0  0.71409601354E+02 -0.48239864496E+02 -0.47132697133E+02  0.98223758995E+02  0.00000000000E+00 0.  1.
         22    1    1    2    0    0  0.46715895343E+02  0.11974753663E+02 -0.32067065347E+02  0.57914301195E+02  0.00000000000E+00 0.  1.
         22    1    1    2    0    0 -0.19985445502E+02 -0.64709307956E+01  0.73357543789E+02  0.76306095484E+02  0.00000000000E+00 0.  1.
</event>
<event>
 6    1  0.2144783E-005  0.4585971E+02  0.7818608E-02  0.1565469E+00
          2   -1    0    0  502    0  0.00000000000E+00  0.00000000000E+00  0.30282141764E+02  0.30282141764E+02  0.00000000000E+00 0. -1.
          1   -1    0    0  501    0 -0.00000000000E+00 -0.00000000000E+00 -0.10767757267E+04  0.10767757267E+04  0.00000000000E+00 0.  1.
          2    1    1    2  501    0 -0.26500719220E+02 -0.32912179712E+02 -0.99437566504E+02  0.10804318269E+03  0.00000000000E+00 0. -1.
          1    1    1    2  502    0  0.49828761181E+02 -0.10602260420E+02 -0.79458991089E+03  0.79622135104E+03  0.00000000000E+00 0.  1.
         22    1    1    2    0    0 -0.12012286438E+02 -0.36438483667E+01  0.20014020237E+02  0.23624852644E+02  0.00000000000E+00 0. -1.
         22    1    1    2    0    0 -0.11315755523E+02  0.47158288499E+02 -0.17248012778E+03  0.17916848210E+03  0.00000000000E+00 0. -1.
</event>
<event>
 6    1  0.2144783E-005  0.2846996E+02  0.7818608E-02  0.1651133E+00
          2   -1    0    0  502    0  0.00000000000E+00  0.00000000000E+00  0.84931625838E+02  0.84931625838E+02  0.00000000000E+00 0.  1.
          1   -1    0    0  501    0 -0.00000000000E+00 -0.00000000000E+00 -0.72936956694E+03  0.72936956694E+03  0.00000000000E+00 0.  1.
          2    1    1    2  501    0 -0.23288919399E+02 -0.11211441120E+02 -0.52870961922E+02  0.58850733158E+02  0.00000000000E+00 0.  1.
          1    1    1    2  502    0  0.19546925757E+02  0.22300410334E+02 -0.62416977955E+03  0.62487383072E+03  0.00000000000E+00 0.  1.
         22    1    1    2    0    0  0.10811945471E+02  0.10422301373E+02 -0.46202990578E+02  0.48582289665E+02  0.00000000000E+00 0. -1.
         22    1    1    2    0    0 -0.70699518295E+01 -0.21511270588E+02  0.78805790946E+02  0.81994339242E+02  0.00000000000E+00 0.  1.
</event>
<event>
 6    1  0.2144783E-005  0.1760113E+03  0.7818608E-02  0.1240206E+00
          2   -1    0    0  502    0  0.00000000000E+00  0.00000000000E+00  0.60104530342E+02  0.60104530342E+02  0.00000000000E+00 0.  1.
          1   -1    0    0  501    0 -0.00000000000E+00 -0.00000000000E+00 -0.11013571200E+04  0.11013571200E+04  0.00000000000E+00 0.  1.
          2    1    1    2  501    0  0.15582716087E+03  0.86916104226E+02 -0.23643994684E+03  0.29620999595E+03  0.00000000000E+00 0.  1.
          1    1    1    2  502    0 -0.17727290401E+02  0.14867048122E+02  0.83695768724E+01  0.24603572135E+02  0.00000000000E+00 0.  1.
         22    1    1    2    0    0 -0.12900352747E+03 -0.11300273263E+03 -0.80685421659E+03  0.82487893324E+03  0.00000000000E+00 0.  1.
         22    1    1    2    0    0 -0.90963429962E+01  0.11219580283E+02 -0.63280031136E+01  0.15769149027E+02  0.00000000000E+00 0.  1.
</event>
<event>
 6    1  0.2144783E-005  0.2268644E+02  0.7818608E-02  0.1742329E+00
          2   -1    0    0  502    0  0.00000000000E+00  0.00000000000E+00  0.70109380538E+02  0.70109380538E+02  0.00000000000E+00 0.  1.
          1   -1    0    0  501    0 -0.00000000000E+00 -0.00000000000E+00 -0.14146307774E+03  0.14146307774E+03  0.00000000000E+00 0. -1.
          2    1    1    2  501    0 -0.14021986628E+02  0.38143194406E+02 -0.34757441866E+01  0.40787255192E+02  0.00000000000E+00 0.  1.
          1    1    1    2  502    0  0.20124854435E+02 -0.10240054386E+02 -0.18814291596E+02  0.29391258022E+02  0.00000000000E+00 0. -1.
         22    1    1    2    0    0 -0.51153626444E+01 -0.16793864980E+02 -0.93728102595E+02  0.95358051847E+02  0.00000000000E+00 0. -1.
         22    1    1    2    0    0 -0.98750516284E+00 -0.11109275040E+02  0.44664441178E+02  0.46035893215E+02  0.00000000000E+00 0.  1.
</event>
<event>
 6    1  0.2144783E-005  0.3459934E+02  0.7818608E-02  0.1634313E+00
          2   -1    0    0  502    0  0.00000000000E+00  0.00000000000E+00  0.17358436882E+03  0.17358436882E+03  0.00000000000E+00 0. -1.
          1   -1    0    0  501    0 -0.00000000000E+00 -0.00000000000E+00 -0.39336521914E+03  0.39336521914E+03  0.00000000000E+00 0. -1.
          2    1    1    2  501    0  0.18483143317E+02 -0.37053057127E+02  0.93154380619E+02  0.10194260276E+03  0.00000000000E+00 0. -1.
          1    1    1    2  502    0  0.47314285724E+01  0.26294396276E+02 -0.33553237075E+03  0.33659434563E+03  0.00000000000E+00 0. -1.
         22    1    1    2    0    0 -0.33017948696E+02  0.34820617138E+01  0.71061056822E+02  0.78434580935E+02  0.00000000000E+00 0. -1.
         22    1    1    2    0    0  0.98033768067E+01  0.72765991375E+01 -0.48463917020E+02  0.49978058633E+02  0.00000000000E+00 0.  1.
</event>
<event>
 6    1  0.2144783E-005  0.6083395E+02  0.7818608E-02  0.1452864E+00
          2   -1    0    0  502    0  0.00000000000E+00  0.00000000000E+00  0.18870556322E+03  0.18870556322E+03  0.00000000000E+00 0.  1.
          1   -1    0    0  501    0 -0.00000000000E+00 -0.00000000000E+00 -0.34730623429E+03  0.34730623429E+03  0.00000000000E+00 0. -1.
          2    1    1    2  501    0  0.12488108257E+03 -0.31401209845E+01  0.94326096087E+02  0.15653292799E+03  0.00000000000E+00 0.  1.
          1    1    1    2  502    0 -0.12019362926E+03 -0.16093448735E+02 -0.21583400138E+03  0.24756781649E+03  0.00000000000E+00 0. -1.
         22    1    1    2    0    0  0.49435654132E-01  0.30776001406E+02 -0.80797455039E+02  0.86460357663E+02  0.00000000000E+00 0. -1.
         22    1    1    2    0    0 -0.47368889657E+01 -0.11542431686E+02  0.43704689259E+02  0.45450695369E+02  0.00000000000E+00 0.  1.
</event>
<event>
 6    1  0.2144783E-005  0.4035537E+02  0.7818608E-02  0.1546682E+00
          2   -1    0    0  502    0  0.00000000000E+00  0.00000000000E+00  0.38451349594E+02  0.38451349594E+02  0.00000000000E+00 0.  1.
          1   -1    0    0  501    0 -0.00000000000E+00 -0.00000000000E+00 -0.18614037522E+04  0.18614037522E+04  0.00000000000E+00 0. -1.
          2    1    1    2  501    0  0.24478380265E+02 -0.58096133716E+02 -0.29856680554E+03  0.30514994548E+03  0.00000000000E+00 0.  1.
          1    1    1    2  502    0 -0.41595152434E+02 -0.29355239427E+01 -0.14107860034E+04  0.14114021119E+04  0.00000000000E+00 0. -1.
         22    1    1    2    0    0  0.10961881965E+02  0.38450567332E+02  0.22042775703E+02  0.45656247602E+02  0.00000000000E+00 0.  1.
         22    1    1    2    0    0  0.61548902035E+01  0.22581090327E+02 -0.13564236934E+03  0.13764679682E+03  0.00000000000E+00 0.  1.
</event>
<event>
 6    1  0.2144783E-005  0.1230402E+03  0.7818608E-02  0.1355242E+00
          2   -1    0    0  502    0  0.00000000000E+00  0.00000000000E+00  0.43408957725E+03  0.43408957725E+03  0.00000000000E+00 0.  1.
          1   -1    0    0  501    0 -0.00000000000E+00 -0.00000000000E+00 -0.88397986820E+02  0.88397986820E+02  0.00000000000E+00 0. -1.
          2    1    1    2  501    0  0.27908206267E+02 -0.81670658628E+02  0.33014695991E+03  0.34124181982E+03  0.00000000000E+00 0.  1.
          1    1    1    2  502    0 -0.33082461609E+02  0.24275661983E+02  0.23341158086E+02  0.47207697376E+02  0.00000000000E+00 0. -1.
         22    1    1    2    0    0 -0.86721976764E+01  0.55403915586E+02 -0.58738853554E+02  0.81209936532E+02  0.00000000000E+00 0. -1.
         22    1    1    2    0    0  0.13846453019E+02  0.19910810595E+01  0.50942325992E+02  0.52828110344E+02  0.00000000000E+00 0.  1.
</event>
<event>
 6    1  0.2144783E-005  0.5156467E+02  0.7818608E-02  0.1485312E+00
          2   -1    0    0  502    0  0.00000000000E+00  0.00000000000E+00  0.69820811160E+02  0.69820811160E+02  0.00000000000E+00 0.  1.
          1   -1    0    0  501    0 -0.00000000000E+00 -0.00000000000E+00 -0.20430410373E+03  0.20430410373E+03  0.00000000000E+00 0.  1.
          2    1    1    2  501    0 -0.15919435357E+02  0.35763871183E+02 -0.96261783755E+02  0.10391734175E+03  0.00000000000E+00 0.  1.
          1    1    1    2  502    0  0.32669813714E+01 -0.32675304119E+02 -0.26216458549E+02  0.42019654513E+02  0.00000000000E+00 0.  1.
         22    1    1    2    0    0  0.46468068691E+01  0.25188471815E+02  0.51885002430E+02  0.57862815380E+02  0.00000000000E+00 0.  1.
         22    1    1    2    0    0  0.80056471166E+01 -0.28277038879E+02 -0.63890052699E+02  0.70325103252E+02  0.00000000000E+00 0.  1.
</event>
<event>
 6    1  0.2144783E-005  0.6761050E+02  0.7818608E-02  0.1437332E+00
          2   -1    0    0  502    0  0.00000000000E+00  0.00000000000E+00  0.15365077333E+03  0.15365077333E+03  0.00000000000E+00 0.  1.
          1   -1    0    0  501    0 -0.00000000000E+00 -0.00000000000E+00 -0.14754775449E+03  0.14754775449E+03  0.00000000000E+00 0.  1.
          2    1    1    2  501    0 -0.82871880843E+02 -0.11067071658E+02 -0.34319938541E+01  0.83677997654E+02  0.00000000000E+00 0.  1.
          1    1    1    2  502    0  0.31493128859E+02  0.13638068095E+02 -0.56592503475E+02  0.66185538574E+02  0.00000000000E+00 0.  1.
         22    1    1    2    0    0  0.22788209826E+02 -0.21524175267E+00  0.10250454004E+03  0.10500728339E+03  0.00000000000E+00 0.  1.
         22    1    1    2    0    0  0.28590542158E+02 -0.23557546849E+01 -0.36377023876E+02  0.46327708201E+02  0.00000000000E+00 0. -1.
</event>
<event>
 6    1  0.2144783E-005  0.8259456E+02  0.7818608E-02  0.1324417E+00
          2   -1    0    0  502    0  0.00000000000E+00  0.00000000000E+00  0.26095016476E+03  0.26095016476E+03  0.00000000000E+00 0.  1.
          1   -1    0    0  501    0 -0.00000000000E+00 -0.00000000000E+00 -0.57718744428E+02  0.57718744428E+02  0.00000000000E+00 0.  1.
          2    1    1    2  501    0  0.34624014327E+01  0.52301278997E+02  0.10886839327E+03  0.12082937996E+03  0.00000000000E+00 0.  1.
          1    1    1    2  502    0 -0.62983825066E+01 -0.31420461870E+02 -0.11143836596E+02  0.33927866724E+02  0.00000000000E+00 0.  1.
         22    1    1    2    0    0 -0.78580739960E+01  0.24473200905E+02  0.11372604425E+03  0.11659459692E+03  0.00000000000E+00 0.  1.
         22    1    1    2    0    0  0.10694055070E+02 -0.45354018031E+02 -0.82191805994E+01  0.47317065581E+02  0.00000000000E+00 0. -1.
</event>
<event>
 6    1  0.2144783E-005  0.5373029E+02  0.7818608E-02  0.1491196E+00
          2   -1    0    0  502    0  0.00000000000E+00  0.00000000000E+00  0.41972999888E+02  0.41972999888E+02  0.00000000000E+00 0.  1.
          1   -1    0    0  501    0 -0.00000000000E+00 -0.00000000000E+00 -0.16691711152E+04  0.16691711152E+04  0.00000000000E+00 0.  1.
          2    1    1    2  501    0  0.10457399300E+03 -0.42596790185E+02 -0.20423714357E+03  0.23337312904E+03  0.00000000000E+00 0.  1.
          1    1    1    2  502    0 -0.94498138884E+02  0.65885680803E+01 -0.12889204095E+04  0.12923966611E+04  0.00000000000E+00 0.  1.
         22    1    1    2    0    0 -0.42628108195E+01  0.97980190666E+01  0.23366753703E+02  0.25693927538E+02  0.00000000000E+00 0.  1.
         22    1    1    2    0    0 -0.58130432994E+01  0.26210203039E+02 -0.15740731592E+03  0.15968039742E+03  0.00000000000E+00 0.  1.
</event>
<event>
 6    1  0.2144783E-005  0.8035089E+02  0.7818608E-02  0.1342269E+00
          2   -1    0    0  502    0  0.00000000000E+00  0.00000000000E+00  0.42661191001E+02  0.42661191001E+02  0.00000000000E+00 0.  1.
          1   -1    0    0  501    0 -0.00000000000E+00 -0.00000000000E+00 -0.44690099332E+03  0.44690099332E+03  0.00000000000E+00 0. -1.
          2    1    1    2  501    0 -0.29103273389E+02  0.24242293296E+02 -0.23938129762E+02  0.44807626167E+02  0.00000000000E+00 0.  1.
          1    1    1    2  502    0  0.32192865490E+02  0.63296645348E+02 -0.18627282267E+03  0.19934996956E+03  0.00000000000E+00 0. -1.
         22    1    1    2    0    0 -0.65466119757E+01  0.20609074606E+02  0.17707261865E+01  0.21696256721E+02  0.00000000000E+00 0.  1.
         22    1    1    2    0    0  0.34570198752E+01 -0.10814801325E+03 -0.19579957607E+03  0.22370833187E+03  0.00000000000E+00 0.  1.
</event>
<event>
 6    1  0.2144783E-005  0.4205997E+02  0.7818608E-02  0.1494669E+00
          2   -1    0    0  502    0  0.00000000000E+00  0.00000000000E+00  0.15397613704E+03  0.15397613704E+03  0.00000000000E+00 0.  1.
          1   -1    0    0  501    0 -0.00000000000E+00 -0.00000000000E+00 -0.16695728403E+03  0.16695728403E+03  0.00000000000E+00 0. -1.
          2    1    1    2  501    0 -0.10525217373E+01  0.29614621490E+02  0.92395979882E+02  0.97031699492E+02  0.00000000000E+00 0.  1.
          1    1    1    2  502    0  0.24940691741E+01 -0.23234642845E+02 -0.96218349893E+02  0.99015351665E+02  0.00000000000E+00 0. -1.
         22    1    1    2    0    0 -0.77778791679E+01 -0.16214553217E+02 -0.65201221463E+02  0.67635836807E+02  0.00000000000E+00 0. -1.
         22    1    1    2    0    0  0.63363317311E+01  0.98345745728E+01  0.56042444490E+02  0.57250533108E+02  0.00000000000E+00 0.  1.
</event>
<event>
 6    1  0.2144783E-005  0.7014066E+02  0.7818608E-02  0.1465449E+00
          2   -1    0    0  502    0  0.00000000000E+00  0.00000000000E+00  0.18274214681E+03  0.18274214681E+03  0.00000000000E+00 0.  1.
          1   -1    0    0  501    0 -0.00000000000E+00 -0.00000000000E+00 -0.14938877037E+03  0.14938877037E+03  0.00000000000E+00 0.  1.
          2    1    1    2  501    0  0.13830578818E+02 -0.20456028223E+02  0.41596355739E+02  0.48373451519E+02  0.00000000000E+00 0.  1.
          1    1    1    2  502    0 -0.61618984438E+02  0.24213501191E+02 -0.10207065460E+03  0.12166187329E+03  0.00000000000E+00 0.  1.
         22    1    1    2    0    0  0.40994687872E+02 -0.15421374059E+02  0.12266792087E+03  0.13025283882E+03  0.00000000000E+00 0.  1.
         22    1    1    2    0    0  0.67937177485E+01  0.11663901090E+02 -0.28840245559E+02  0.31842753546E+02  0.00000000000E+00 0.  1.
</event>
<event>
 6    1  0.2144783E-005  0.4659491E+02  0.7818608E-02  0.1544839E+00
          2   -1    0    0  502    0  0.00000000000E+00  0.00000000000E+00  0.17061397856E+03  0.17061397856E+03  0.00000000000E+00 0. -1.
          1   -1    0    0  501    0 -0.00000000000E+00 -0.00000000000E+00 -0.12532987363E+03  0.12532987363E+03  0.00000000000E+00 0.  1.
          2    1    1    2  501    0  0.48927213747E+01 -0.35248565303E+02  0.91847818916E+02  0.98500872676E+02  0.00000000000E+00 0. -1.
          1    1    1    2  502    0 -0.16843384044E+02  0.19657236305E+02 -0.64368643836E+02  0.69378878879E+02  0.00000000000E+00 0.  1.
         22    1    1    2    0    0  0.14589847792E+02 -0.54414425199E+01  0.70009325945E+02  0.71720141345E+02  0.00000000000E+00 0. -1.
         22    1    1    2    0    0 -0.26391851231E+01  0.21032771518E+02 -0.52204396096E+02  0.56343959282E+02  0.00000000000E+00 0.  1.
</event>
<event>
 6    1  0.2144783E-005  0.8305881E+02  0.7818608E-02  0.1327995E+00
          2   -1    0    0  502    0  0.00000000000E+00  0.00000000000E+00  0.61927063892E+02  0.61927063892E+02  0.00000000000E+00 0. -1.
          1   -1    0    0  501    0 -0.00000000000E+00 -0.00000000000E+00 -0.41447342065E+03  0.41447342065E+03  0.00000000000E+00 0.  1.
          2    1    1    2  501    0 -0.43670889805E+02  0.37486238324E+02  0.19740699669E+02  0.60844555249E+02  0.00000000000E+00 0. -1.
          1    1    1    2  502    0  0.37286676880E+02  0.32613467415E+01 -0.18424575975E+03  0.18800912914E+03  0.00000000000E+00 0.  1.
         22    1    1    2    0    0 -0.34980429292E+02 -0.63876385350E+02 -0.72950824248E+02  0.10308077317E+03  0.00000000000E+00 0. -1.
         22    1    1    2    0    0  0.41364642216E+02  0.23128800284E+02 -0.11509047243E+03  0.12446602698E+03  0.00000000000E+00 0.  1.
</event>
<event>
 6    1  0.2144783E-005  0.5905056E+02  0.7818608E-02  0.1447037E+00
          2   -1    0    0  502    0  0.00000000000E+00  0.00000000000E+00  0.21853603601E+03  0.21853603601E+03  0.00000000000E+00 0. -1.
          1   -1    0    0  501    0 -0.00000000000E+00 -0.00000000000E+00 -0.15728798301E+03  0.15728798301E+03  0.00000000000E+00 0. -1.
          2    1    1    2  501    0 -0.77183160876E+01  0.31026402401E+02  0.14955278999E+03  0.15293216484E+03  0.00000000000E+00 0. -1.
          1    1    1    2  502    0  0.30566921488E+01 -0.38937716193E+02 -0.92770463409E+02  0.10065708117E+03  0.00000000000E+00 0. -1.
         22    1    1    2    0    0  0.20777565639E+02  0.21082623742E+02  0.57824428246E+02  0.64960362990E+02  0.00000000000E+00 0. -1.
         22    1    1    2    0    0 -0.16115941700E+02 -0.13171309950E+02 -0.53358701824E+02  0.57274410019E+02  0.00000000000E+00 0. -1.
</event>
<event>
 6    1  0.2144783E-005  0.7455097E+02  0.7818608E-02  0.1416438E+00
          2   -1    0    0  502    0  0.00000000000E+00  0.00000000000E+00  0.30950575914E+02  0.30950575914E+02  0.00000000000E+00 0. -1.
          1   -1    0    0  501    0 -0.00000000000E+00 -0.00000000000E+00 -0.46325082126E+03  0.46325082126E+03  0.00000000000E+00 0.  1.
          2    1    1    2  501    0 -0.69040856666E+02 -0.15869959763E+02 -0.70236829446E+02  0.99758246389E+02  0.00000000000E+00 0. -1.
          1    1    1    2  502    0  0.24619746957E+02 -0.36155978948E+01 -0.78311111360E+02  0.82169548197E+02  0.00000000000E+00 0.  1.
         22    1    1    2    0    0  0.47043491636E+02 -0.37340029905E+01 -0.28499277254E+03  0.28887352471E+03  0.00000000000E+00 0.  1.
         22    1    1    2    0    0 -0.26223819268E+01  0.23219560648E+02  0.12404679949E+01  0.23400077874E+02  0.00000000000E+00 0. -1.
</event>
<event>
 6    1  0.2144783E-005  0.1093260E+03  0.7818608E-02  0.1293942E+00
          2   -1    0    0  502    0  0.00000000000E+00  0.00000000000E+00  0.10835428142E+04  0.10835428142E+04  0.00000000000E+00 0. -1.
          1   -1    0    0  501    0 -0.00000000000E+00 -0.00000000000E+00 -0.59220469862E+02  0.59220469862E+02  0.00000000000E+00 0.  1.
          2    1    1    2  501    0 -0.22619876898E+02 -0.95371352879E+02  0.93825646438E+03  0.94336236237E+03  0.00000000000E+00 0. -1.
          1    1    1    2  502    0 -0.83131318774E+01  0.31971836342E+02  0.22686387099E+02  0.40074663321E+02  0.00000000000E+00 0.  1.
         22    1    1    2    0    0  0.68820290921E+02  0.17912184845E+02 -0.19821078399E+01  0.71140758780E+02  0.00000000000E+00 0.  1.
         22    1    1    2    0    0 -0.37887282146E+02  0.45487331693E+02  0.65361600704E+02  0.88185499599E+02  0.00000000000E+00 0.  1.
</event>
<event>
 6    1  0.2144783E-005  0.4465463E+02  0.7818608E-02  0.1515628E+00
          2   -1    0    0  502    0  0.00000000000E+00  0.00000000000E+00  0.97878015364E+02  0.97878015364E+02  0.00000000000E+00 0.  1.
          1   -1    0    0  501    0 -0.00000000000E+00 -0.00000000000E+00 -0.33638529173E+03  0.33638529173E+03  0.00000000000E+00 0.  1.
          2    1    1    2  501    0 -0.26758091328E+02  0.91380157199E+02 -0.12084740265E+03  0.15385195257E+03  0.00000000000E+00 0.  1.
          1    1    1    2  502    0 -0.39466582350E+00 -0.68870621690E+02 -0.13559319774E+03  0.15208166743E+03  0.00000000000E+00 0.  1.
         22    1    1    2    0    0  0.49852737264E+01 -0.13585133075E+02  0.69767434734E+02  0.71252394656E+02  0.00000000000E+00 0. -1.
         22    1    1    2    0    0  0.22167483425E+02 -0.89244024334E+01 -0.51834110700E+02  0.57077292440E+02  0.00000000000E+00 0.  1.
</event>
<event>
 6    1  0.2144783E-005  0.2390459E+02  0.7818608E-02  0.1741649E+00
          2   -1    0    0  502    0  0.00000000000E+00  0.00000000000E+00  0.87431590503E+02  0.87431590503E+02  0.00000000000E+00 0.  1.
          1   -1    0    0  501    0 -0.00000000000E+00 -0.00000000000E+00 -0.13037127071E+03  0.13037127071E+03  0.00000000000E+00 0.  1.
          2    1    1    2  501    0 -0.15596729187E+02 -0.18326584862E+02  0.10737990248E+02  0.26351965934E+02  0.00000000000E+00 0.  1.
          1    1    1    2  502    0  0.28376134668E+02 -0.11721634398E+02 -0.53776699468E+02  0.61923623419E+02  0.00000000000E+00 0.  1.
         22    1    1    2    0    0 -0.88037058628E+01  0.78986739824E+01  0.62283299562E+02  0.63396401254E+02  0.00000000000E+00 0.  1.
         22    1    1    2    0    0 -0.39756996182E+01  0.22149545277E+02 -0.62184270550E+02  0.66130870607E+02  0.00000000000E+00 0. -1.
</event>
<event>
 6    1  0.2144783E-005  0.1786182E+03  0.7818608E-02  0.1240350E+00
          2   -1    0    0  502    0  0.00000000000E+00  0.00000000000E+00  0.58065693972E+02  0.58065693972E+02  0.00000000000E+00 0. -1.
          1   -1    0    0  501    0 -0.00000000000E+00 -0.00000000000E+00 -0.80698962833E+03  0.80698962833E+03  0.00000000000E+00 0. -1.
          2    1    1    2  501    0 -0.33319653085E+02 -0.12235877474E+03 -0.49721655442E+03  0.51313367754E+03  0.00000000000E+00 0. -1.
          1    1    1    2  502    0 -0.48812782812E+02  0.68320913266E+02 -0.65500500610E+02  0.10649296003E+03  0.00000000000E+00 0. -1.
         22    1    1    2    0    0  0.58385209568E+02  0.84301752489E+02 -0.17899745241E+03  0.20629034427E+03  0.00000000000E+00 0. -1.
         22    1    1    2    0    0  0.23747226329E+02 -0.30263891015E+02 -0.72094269153E+01  0.39138340462E+02  0.00000000000E+00 0. -1.
</event>
<event>
 6    1  0.2144783E-005  0.2758454E+03  0.7818608E-02  0.1161218E+00
          2   -1    0    0  502    0  0.00000000000E+00  0.00000000000E+00  0.27343388789E+03  0.27343388789E+03  0.00000000000E+00 0. -1.
          1   -1    0    0  501    0 -0.00000000000E+00 -0.00000000000E+00 -0.96279793763E+03  0.96279793763E+03  0.00000000000E+00 0.  1.
          2    1    1    2  501    0 -0.21902723093E+03 -0.23155508402E+03 -0.12788721021E+03  0.34343241455E+03  0.00000000000E+00 0. -1.
          1    1    1    2  502    0  0.41315672404E+03  0.11247880340E+03 -0.39418760797E+03  0.58200844506E+03  0.00000000000E+00 0.  1.
         22    1    1    2    0    0 -0.19099589566E+03  0.75109450533E+02 -0.95072279629E+02  0.22618488029E+03  0.00000000000E+00 0. -1.
         22    1    1    2    0    0 -0.31335974582E+01  0.43966830083E+02 -0.72216951921E+02  0.84606085629E+02  0.00000000000E+00 0.  1.
</event>
<event>
 6    1  0.2144783E-005  0.5017777E+02  0.7818608E-02  0.1449692E+00
          2   -1    0    0  502    0  0.00000000000E+00  0.00000000000E+00  0.15948660278E+03  0.15948660278E+03  0.00000000000E+00 0.  1.
          1   -1    0    0  501    0 -0.00000000000E+00 -0.00000000000E+00 -0.12467510088E+03  0.12467510088E+03  0.00000000000E+00 0.  1.
          2    1    1    2  501    0 -0.24550189108E+02  0.11708986270E+02  0.59233433575E+02  0.65179841959E+02  0.00000000000E+00 0.  1.
          1    1    1    2  502    0  0.28002231323E+02 -0.18145616042E+02 -0.78360144152E+02  0.85168659330E+02  0.00000000000E+00 0.  1.
         22    1    1    2    0    0 -0.10623555654E+02  0.17051466758E+02  0.91732612132E+02  0.93906786666E+02  0.00000000000E+00 0.  1.
         22    1    1    2    0    0  0.71715134402E+01 -0.10614836985E+02 -0.37794399652E+02  0.39906415703E+02  0.00000000000E+00 0. -1.
</event>
<event>
 6    1  0.2144783E-005  0.1310919E+03  0.7818608E-02  0.1295849E+00
          2   -1    0    0  502    0  0.00000000000E+00  0.00000000000E+00  0.14526633451E+03  0.14526633451E+03  0.00000000000E+00 0.  1.
          1   -1    0    0  501    0 -0.00000000000E+00 -0.00000000000E+00 -0.22244067475E+03  0.22244067475E+03  0.00000000000E+00 0.  1.
          2    1    1    2  501    0 -0.51534193303E+02 -0.12463679071E+03  0.27824882853E+02  0.13771102637E+03  0.00000000000E+00 0.  1.
          1    1    1    2  502    0  0.30334558131E+02  0.51144463287E+02 -0.45136875363E+02  0.74654397456E+02  0.00000000000E+00 0.  1.
         22    1    1    2    0    0  0.45490132142E+02  0.50947034539E+02 -0.88327411858E+02  0.11165430639E+03  0.00000000000E+00 0.  1.
         22    1    1    2    0    0 -0.24290496970E+02  0.22545292880E+02  0.28465064129E+02  0.43687279041E+02  0.00000000000E+00 0.  1.
</event>
<event>
 6    1  0.2144783E-005  0.4662284E+02  0.7818608E-02  0.1570703E+00
          2   -1    0    0  502    0  0.00000000000E+00  0.00000000000E+00  0.15940445486E+03  0.15940445486E+03  0.00000000000E+00 0. -1.
          1   -1    0    0  501    0 -0.00000000000E+00 -0.00000000000E+00 -0.25250658824E+03  0.25250658824E+03  0.00000000000E+00 0. -1.
          2    1    1    2  501    0  0.17826628703E+02  0.16154483115E+02  0.62506748468E+02  0.66976485572E+02  0.00000000000E+00 0. -1.
          1    1    1    2  502    0 -0.10415679818E+02 -0.40256779130E+02 -0.20441575096E+03  0.20860223847E+03  0.00000000000E+00 0. -1.
         22    1    1    2    0    0 -0.10774774583E+02  0.30102019953E+01 -0.41784971606E+02  0.43256686598E+02  0.00000000000E+00 0. -1.
         22    1    1    2    0    0  0.33638256977E+01  0.21092094020E+02  0.90591840724E+02  0.93075632468E+02  0.00000000000E+00 0.  1.
</event>
<event>
 6    1  0.2144783E-005  0.1327298E+03  0.7818608E-02  0.1254586E+00
          2   -1    0    0  502    0  0.00000000000E+00  0.00000000000E+00  0.10933812994E+04  0.10933812994E+04  0.00000000000E+00 0. -1.
          1   -1    0    0  501    0 -0.00000000000E+00 -0.00000000000E+00 -0.43096436095E+02  0.43096436095E+02  0.00000000000E+00 0. -1.
          2    1    1    2  501    0 -0.31439781914E+02  0.12522515013E+03  0.10334506231E+03  0.16537835413E+03  0.00000000000E+00 0. -1.
          1    1    1    2  502    0  0.38129048119E+02 -0.50990269571E+02  0.42792885598E+03  0.43263950083E+03  0.00000000000E+00 0. -1.
         22    1    1    2    0    0 -0.63527298186E+02 -0.30480288974E+02  0.22217569059E+03  0.23308110846E+03  0.00000000000E+00 0. -1.
         22    1    1    2    0    0  0.56838031980E+02 -0.43754591583E+02  0.29683525443E+03  0.30537877208E+03  0.00000000000E+00 0. -1.
</event>
<event>
 6    1  0.2144783E-005  0.6213811E+02  0.7818608E-02  0.1390035E+00
          2   -1    0    0  502    0  0.00000000000E+00  0.00000000000E+00  0.54987713022E+02  0.54987713022E+02  0.00000000000E+00 0. -1.
          1   -1    0    0  501    0 -0.00000000000E+00 -0.00000000000E+00 -0.23541285190E+03  0.23541285190E+03  0.00000000000E+00 0. -1.
          2    1    1    2  501    0  0.25755589198E+02  0.28491209640E+01  0.21410953087E+02  0.33613937247E+02  0.00000000000E+00 0. -1.
          1    1    1    2  502    0 -0.20094554241E+02 -0.19906962093E+02 -0.78365743374E+02  0.83314272394E+02  0.00000000000E+00 0. -1.
         22    1    1    2    0    0  0.47841905690E+01 -0.43226694581E+02 -0.97967736445E+02  0.10718727997E+03  0.00000000000E+00 0.  1.
         22    1    1    2    0    0 -0.10445225526E+02  0.60284535710E+02 -0.25502612141E+02  0.66285075304E+02  0.00000000000E+00 0. -1.
</event>
<event>
 6    1  0.2144783E-005  0.4884370E+02  0.7818608E-02  0.1466600E+00
          2   -1    0    0  502    0  0.00000000000E+00  0.00000000000E+00  0.44904818870E+03  0.44904818870E+03  0.00000000000E+00 0. -1.
          1   -1    0    0  501    0 -0.00000000000E+00 -0.00000000000E+00 -0.85686280395E+02  0.85686280395E+02  0.00000000000E+00 0.  1.
          2    1    1    2  501    0  0.18301312810E+02  0.29224084094E+02  0.11047406068E+03  0.11573030383E+03  0.00000000000E+00 0. -1.
          1    1    1    2  502    0  0.27537308614E+02 -0.21984303438E+02 -0.65301601430E+02  0.74201833620E+02  0.00000000000E+00 0.  1.
         22    1    1    2    0    0  0.10378973705E+02  0.97745762720E+01 -0.59027302222E+01  0.15430737525E+02  0.00000000000E+00 0.  1.
         22    1    1    2    0    0 -0.56217595130E+02 -0.17014356928E+02  0.32409217928E+03  0.32937159412E+03  0.00000000000E+00 0. -1.
</event>
<event>
 6    1  0.2144783E-005  0.5937135E+02  0.7818608E-02  0.1405123E+00
          2   -1    0    0  502    0  0.00000000000E+00  0.00000000000E+00  0.29464423856E+03  0.29464423856E+03  0.00000000000E+00 0. -1.
          1   -1    0    0  501    0 -0.00000000000E+00 -0.00000000000E+00 -0.70134760353E+02  0.70134760353E+02  0.00000000000E+00 0. -1.
          2    1    1    2  501    0 -0.25998607300E+02 -0.14679603741E+02  0.42664756854E+02  0.52073984147E+02  0.00000000000E+00 0. -1.
          1    1    1    2  502    0  0.25335088160E+02 -0.21778554793E+02 -0.41798473478E+02  0.53509667594E+02  0.00000000000E+00 0. -1.
         22    1    1    2    0    0  0.94445434790E+01  0.60852383446E+02  0.22495903033E+03  0.23323545463E+03  0.00000000000E+00 0. -1.
         22    1    1    2    0    0 -0.87810243392E+01 -0.24394224912E+02 -0.13158354970E+01  0.25959892538E+02  0.00000000000E+00 0. -1.
</event>
<event>
 6    1  0.2144783E-005  0.7119965E+02  0.7818608E-02  0.1384476E+00
          2   -1    0    0  502    0  0.00000000000E+00  0.00000000000E+00  0.32164428744E+03  0.32164428744E+03  0.00000000000E+00 0.  1.
          1   -1    0    0  501    0 -0.00000000000E+00 -0.00000000000E+00 -0.97753708431E+02  0.97753708431E+02  0.00000000000E+00 0.  1.
          2    1    1    2  501    0 -0.35888566214E+02 -0.51723456175E+02  0.21353271569E+03  0.22261968864E+03  0.00000000000E+00 0.  1.
          1    1    1    2  502    0  0.52159929068E+01  0.44500267069E+02 -0.36685317530E+02  0.57907623622E+02  0.00000000000E+00 0.  1.
         22    1    1    2    0    0  0.41068759161E+02 -0.17099835736E+02  0.83036758448E+02  0.94202710231E+02  0.00000000000E+00 0. -1.
         22    1    1    2    0    0 -0.10396185854E+02  0.24323024841E+02 -0.35993577593E+02  0.44667973378E+02  0.00000000000E+00 0.  1.
</event>
<event>
 6    1  0.2144783E-005  0.3731777E+02  0.7818608E-02  0.1530752E+00
          2   -1    0    0  502    0  0.00000000000E+00  0.00000000000E+00  0.52637264007E+02  0.52637264007E+02  0.00000000000E+00 0.  1.
          1   -1    0    0  501    0 -0.00000000000E+00 -0.00000000000E+00 -0.40075236322E+03  0.40075236322E+03  0.00000000000E+00 0.  1.
          2    1    1    2  501    0  0.18132742112E+02  0.23227231739E+02 -0.25039267821E+03  0.25212059403E+03  0.00000000000E+00 0.  1.
          1    1    1    2  502    0 -0.33647723925E+02 -0.58775299450E+01 -0.61163911085E+02  0.70055254641E+02  0.00000000000E+00 0.  1.
         22    1    1    2    0    0  0.37764459723E+02 -0.57588689222E+00  0.36805563928E+02  0.52736473146E+02  0.00000000000E+00 0.  1.
         22    1    1    2    0    0 -0.22249477909E+02 -0.16773814901E+02 -0.73364073845E+02  0.78477305412E+02  0.00000000000E+00 0.  1.
</event>
<event>
 6    1  0.2144783E-005  0.2547418E+03  0.7818608E-02  0.1222340E+00
          2   -1    0    0  502    0  0.00000000000E+00  0.00000000000E+00  0.38477059666E+03  0.38477059666E+03  0.00000000000E+00 0. -1.
          1   -1    0    0  501    0 -0.00000000000E+00 -0.00000000000E+00 -0.15853247176E+03  0.15853247176E+03  0.00000000000E+00 0. -1.
          2    1    1    2  501    0  0.56828898605E+02 -0.19342782035E+03  0.13629581462E+03  0.24335240801E+03  0.00000000000E+00 0. -1.
          1    1    1    2  502    0  0.45873602935E+02  0.62758131616E+02  0.35930581924E+02  0.85638643424E+02  0.00000000000E+00 0. -1.
         22    1    1    2    0    0  0.13193172414E+01 -0.19174029949E+02  0.21828749401E+02  0.29083987396E+02  0.00000000000E+00 0. -1.
         22    1    1    2    0    0 -0.10402181878E+03  0.14984371868E+03  0.32182978946E+02  0.18522802958E+03  0.00000000000E+00 0. -1.
</event>
<event>
 6    1  0.2144783E-005  0.1385482E+03  0.7818608E-02  0.1332425E+00
          2   -1    0    0  502    0  0.00000000000E+00  0.00000000000E+00  0.19210417077E+03  0.19210417077E+03  0.00000000000E+00 0. -1.
          1   -1    0    0  501    0 -0.00000000000E+00 -0.00000000000E+00 -0.74512268556E+03  0.74512268556E+03  0.00000000000E+00 0. -1.
          2    1    1    2  501    0  0.25220211026E+02 -0.18576886056E+03  0.79662261354E+02  0.20369635363E+03  0.00000000000E+00 0. -1.
          1    1    1    2  502    0  0.89233752059E+02  0.18098176862E+03 -0.36871355917E+03  0.42031744170E+03  0.00000000000E+00 0. -1.
         22    1    1    2    0    0 -0.10363787691E+03  0.32619792240E+01 -0.27725626337E+03  0.29601095523E+03  0.00000000000E+00 0. -1.
         22    1    1    2    0    0 -0.10816086179E+02  0.15251127133E+01  0.13289046392E+02  0.17202105773E+02  0.00000000000E+00 0. -1.
</event>
<event>
 6    1  0.2144783E-005  0.1574622E+03  0.7818608E-02  0.1317781E+00
          2   -1    0    0  502    0  0.00000000000E+00  0.00000000000E+00  0.37347547188E+02  0.37347547188E+02  0.00000000000E+00 0.  1.
          1   -1    0    0  501    0 -0.00000000000E+00 -0.00000000000E+00 -0.89750970749E+03  0.89750970749E+03  0.00000000000E+00 0.  1.
          2    1    1    2  501    0 -0.73905256951E+02 -0.12779967938E+03 -0.24907386259E+03  0.28953848463E+03  0.00000000000E+00 0.  1.
          1    1    1    2  502    0  0.17070199829E+02  0.41897348179E+02 -0.11172990947E+03  0.12054191046E+03  0.00000000000E+00 0.  1.
         22    1    1    2    0    0 -0.12326630496E+02  0.35159899059E+01  0.11219547294E+01  0.12867275812E+02  0.00000000000E+00 0.  1.
         22    1    1    2    0    0  0.69161687618E+02  0.82386341295E+02 -0.50048034296E+03  0.51190958377E+03  0.00000000000E+00 0.  1.
</event>
<event>
 6    1  0.2144783E-005  0.4457519E+02  0.7818608E-02  0.1480036E+00
          2   -1    0    0  502    0  0.00000000000E+00  0.00000000000E+00  0.50490815082E+02  0.50490815082E+02  0.00000000000E+00 0. -1.
          1   -1    0    0  501    0 -0.00000000000E+00 -0.00000000000E+00 -0.30038180957E+03  0.30038180957E+03  0.00000000000E+00 0.  1.
          2    1    1    2  501    0 -0.48067439260E+01  0.26244536762E+02 -0.68661591840E+01  0.27550401793E+02  0.00000000000E+00 0. -1.
          1    1    1    2  502    0  0.22805304911E+02 -0.93644737927E+01 -0.17449630821E+03  0.17622921688E+03  0.00000000000E+00 0.  1.
         22    1    1    2    0    0  0.23264751076E+02 -0.58704671786E+01 -0.94238099615E+02  0.97244693668E+02  0.00000000000E+00 0. -1.
         22    1    1    2    0    0 -0.41263312061E+02 -0.11009595791E+02  0.25709572519E+02  0.49848312317E+02  0.00000000000E+00 0. -1.
</event>
<event>
 6    1  0.2144783E-005  0.9214122E+02  0.7818608E-02  0.1404299E+00
          2   -1    0    0  502    0  0.00000000000E+00  0.00000000000E+00  0.42759030455E+02  0.42759030455E+02  0.00000000000E+00 0. -1.
          1   -1    0    0  501    0 -0.00000000000E+00 -0.00000000000E+00 -0.61124721449E+03  0.61124721449E+03  0.00000000000E+00 0. -1.
          2    1    1    2  501    0  0.63432921286E+02  0.66453754382E+01 -0.81345937048E+02  0.10336855417E+03  0.00000000000E+00 0. -1.
          1    1    1    2  502    0  0.69209700435E+02 -0.19601933858E+02 -0.16431698816E+03  0.17937193494E+03  0.00000000000E+00 0. -1.
         22    1    1    2    0    0 -0.12486232524E+03  0.18277665227E+00 -0.33131852521E+03  0.35406581142E+03  0.00000000000E+00 0. -1.
         22    1    1    2    0    0 -0.77802964808E+01  0.12773781768E+02  0.84932663817E+01  0.17199944413E+02  0.00000000000E+00 0.  1.
</event>
<event>
 6    1  0.2144783E-005  0.2277615E+03  0.7818608E-02  0.1130888E+00
          2   -1    0    0  502    0  0.00000000000E+00  0.00000000000E+00  0.10812849474E+03  0.10812849474E+03  0.00000000000E+00 0.  1.
          1   -1    0    0  501    0 -0.00000000000E+00 -0.00000000000E+00 -0.15928435961E+04  0.15928435961E+04  0.00000000000E+00 0.  1.
          2    1    1    2  501    0  0.29744794213E+02  0.19537598681E+03 -0.12377775639E+03  0.23318975531E+03  0.00000000000E+00 0.  1.
          1    1    1    2  502    0  0.18575000724E+03 -0.13416593615E+03 -0.98525299076E+03  0.10115468449E+04  0.00000000000E+00 0.  1.
         22    1    1    2    0    0 -0.23036660386E+03 -0.48110295784E+02 -0.32066441338E+03  0.39775499839E+03  0.00000000000E+00 0.  1.
         22    1    1    2    0    0  0.14871802402E+02 -0.13099754877E+02 -0.55019940837E+02  0.58480492254E+02  0.00000000000E+00 0.  1.
</event>
<event>
 6    1  0.2144783E-005  0.2900999E+02  0.7818608E-02  0.1643210E+00
          2   -1    0    0  502    0  0.00000000000E+00  0.00000000000E+00  0.19781783761E+03  0.19781783761E+03  0.00000000000E+00 0. -1.
          1   -1    0    0  501    0 -0.00000000000E+00 -0.00000000000E+00 -0.11325530446E+03  0.11325530446E+03  0.00000000000E+00 0.  1.
          2    1    1    2  501    0 -0.56664095527E+02 -0.35907526507E+02  0.94876665836E+02  0.11619703913E+03  0.00000000000E+00 0. -1.
          1    1    1    2  502    0  0.32640899552E+02  0.34784530140E+02 -0.46192700949E+02  0.66401487044E+02  0.00000000000E+00 0.  1.
         22    1    1    2    0    0  0.94046514588E+01  0.35191174815E+01 -0.45073417257E+02  0.46178399714E+02  0.00000000000E+00 0.  1.
         22    1    1    2    0    0  0.14618544516E+02 -0.23961211142E+01  0.80951985517E+02  0.82296216190E+02  0.00000000000E+00 0. -1.
</event>
<event>
 6    1  0.2144783E-005  0.1927841E+03  0.7818608E-02  0.1233759E+00
          2   -1    0    0  502    0  0.00000000000E+00  0.00000000000E+00  0.61069050963E+03  0.61069050963E+03  0.00000000000E+00 0. -1.
          1   -1    0    0  501    0 -0.00000000000E+00 -0.00000000000E+00 -0.11513805230E+03  0.11513805230E+03  0.00000000000E+00 0. -1.
          2    1    1    2  501    0  0.56867507865E+02 -0.90624595495E+02  0.46325445435E+03  0.47544865152E+03  0.00000000000E+00 0. -1.
          1    1    1    2  502    0 -0.84096673474E+02  0.35619103163E+02  0.62914094462E+02  0.11090155221E+03  0.00000000000E+00 0. -1.
         22    1    1    2    0    0  0.12276159374E+02  0.32778407754E+02  0.46293789366E+02  0.58036566385E+02  0.00000000000E+00 0.  1.
         22    1    1    2    0    0  0.14953006234E+02  0.22227084577E+02 -0.76909880839E+02  0.81441791820E+02  0.00000000000E+00 0. -1.
</event>
<event>
 6    1  0.2144783E-005  0.8758001E+02  0.7818608E-02  0.1348455E+00
          2   -1    0    0  502    0  0.00000000000E+00  0.00000000000E+00  0.31295608659E+02  0.31295608659E+02  0.00000000000E+00 0.  1.
          1   -1    0    0  501    0 -0.00000000000E+00 -0.00000000000E+00 -0.44308403012E+03  0.44308403012E+03  0.00000000000E+00 0.  1.
          2    1    1    2  501    0  0.21287761798E+02  0.58726426330E+02 -0.58846755599E+02  0.85819010693E+02  0.00000000000E+00 0.  1.
          1    1    1    2  502    0 -0.28833454165E+02 -0.12562588421E+02 -0.62759367315E+02  0.70199180142E+02  0.00000000000E+00 0.  1.
         22    1    1    2    0    0 -0.35837962326E+02 -0.49823284838E+02 -0.25529985760E+03  0.26257329747E+03  0.00000000000E+00 0.  1.
         22    1    1    2    0    0  0.43383654693E+02  0.36594469296E+01 -0.34882440949E+02  0.55788150471E+02  0.00000000000E+00 0.  1.
</event>
<event>
 6    1  0.2144783E-005  0.5578265E+02  0.7818608E-02  0.1429182E+00
          2   -1    0    0  502    0  0.00000000000E+00  0.00000000000E+00  0.12879144840E+03  0.12879144840E+03  0.00000000000E+00 0.  1.
          1   -1    0    0  501    0 -0.00000000000E+00 -0.00000000000E+00 -0.22946496742E+03  0.22946496742E+03  0.00000000000E+00 0. -1.
          2    1    1    2  501    0  0.75119746902E+02 -0.19008961378E+02 -0.13081958473E+02  0.78584060883E+02  0.00000000000E+00 0.  1.
          1    1    1    2  502    0 -0.70949523294E+02 -0.22779669074E+02 -0.12060955411E+03  0.14177239760E+03  0.00000000000E+00 0. -1.
         22    1    1    2    0    0 -0.30364853092E+02  0.24746095579E+02 -0.41516606040E+02  0.57079086597E+02  0.00000000000E+00 0. -1.
         22    1    1    2    0    0  0.26194629483E+02  0.17042534873E+02  0.74534599607E+02  0.80820870741E+02  0.00000000000E+00 0.  1.
</event>
<event>
 6    1  0.2144783E-005  0.1170013E+03  0.7818608E-02  0.1325287E+00
          2   -1    0    0  502    0  0.00000000000E+00  0.00000000000E+00  0.46757572389E+03  0.46757572389E+03  0.00000000000E+00 0. -1.
          1   -1    0    0  501    0 -0.00000000000E+00 -0.00000000000E+00 -0.52285343976E+02  0.52285343976E+02  0.00000000000E+00 0.  1.
          2    1    1    2  501    0 -0.54471197657E+02  0.99496092786E+02  0.25151249142E+03  0.27590780561E+03  0.00000000000E+00 0. -1.
          1    1    1    2  502    0  0.14762130651E+02 -0.24766453231E+02  0.27656056929E+02  0.39951910991E+02  0.00000000000E+00 0.  1.
         22    1    1    2    0    0 -0.22010991422E+02 -0.16203767540E+02  0.11243300247E+03  0.11570750136E+03  0.00000000000E+00 0.  1.
         22    1    1    2    0    0  0.61720058429E+02 -0.58525872015E+02  0.23688829090E+02  0.88293849906E+02  0.00000000000E+00 0.  1.
</event>
<event>
 6    1  0.2144783E-005  0.2608458E+02  0.7818608E-02  0.1659313E+00
          2   -1    0    0  502    0  0.00000000000E+00  0.00000000000E+00  0.45946754573E+03  0.45946754573E+03  0.00000000000E+00 0.  1.
          1   -1    0    0  501    0 -0.00000000000E+00 -0.00000000000E+00 -0.12528272734E+03  0.12528272734E+03  0.00000000000E+00 0.  1.
          2    1    1    2  501    0 -0.14432754169E+02 -0.27299297947E+02  0.36946445388E+03  0.37075266519E+03  0.00000000000E+00 0.  1.
          1    1    1    2  502    0  0.36670959392E+02  0.57507018196E+01 -0.74318372934E+02  0.83072560992E+02  0.00000000000E+00 0.  1.
         22    1    1    2    0    0 -0.71160850641E+01  0.16910008266E+02 -0.43328602381E+02  0.47052681438E+02  0.00000000000E+00 0. -1.
         22    1    1    2    0    0 -0.15122120160E+02  0.46385878623E+01  0.82367339830E+02  0.83872365449E+02  0.00000000000E+00 0.  1.
</event>
<event>
 6    1  0.2144783E-005  0.5777459E+02  0.7818608E-02  0.1419674E+00
          2   -1    0    0  502    0  0.00000000000E+00  0.00000000000E+00  0.59685297142E+03  0.59685297142E+03  0.00000000000E+00 0.  1.
          1   -1    0    0  501    0 -0.00000000000E+00 -0.00000000000E+00 -0.18262757503E+03  0.18262757503E+03  0.00000000000E+00 0.  1.
          2    1    1    2  501    0 -0.25037253805E+02 -0.49885977954E+02  0.51516114148E+03  0.51817610575E+03  0.00000000000E+00 0.  1.
          1    1    1    2  502    0 -0.18871213210E+02 -0.30655194702E+02 -0.10362001104E+03  0.10969489659E+03  0.00000000000E+00 0.  1.
         22    1    1    2    0    0 -0.91335883825E+00 -0.11632742085E+02 -0.39190964447E+02  0.40891155610E+02  0.00000000000E+00 0.  1.
         22    1    1    2    0    0  0.44821825853E+02  0.92173914741E+02  0.41875230397E+02  0.11071838850E+03  0.00000000000E+00 0. -1.
</event>
<event>
 6    1  0.2144783E-005  0.1636409E+03  0.7818608E-02  0.1244920E+00
          2   -1    0    0  502    0  0.00000000000E+00  0.00000000000E+00  0.29590836252E+03  0.29590836252E+03  0.00000000000E+00 0. -1.
          1   -1    0    0  501    0 -0.00000000000E+00 -0.00000000000E+00 -0.15297674233E+03  0.15297674233E+03  0.00000000000E+00 0. -1.
          2    1    1    2  501    0  0.10381258235E+03 -0.64343509039E+02  0.26625391248E+02  0.12500420340E+03  0.00000000000E+00 0. -1.
          1    1    1    2  502    0 -0.86241660039E+02  0.62144473874E+02 -0.46386492070E+02  0.11597959392E+03  0.00000000000E+00 0. -1.
         22    1    1    2    0    0  0.16567178489E+01  0.45582080304E+02  0.15275419950E+03  0.15941868217E+03  0.00000000000E+00 0. -1.
         22    1    1    2    0    0 -0.19227640156E+02 -0.43383045139E+02  0.99385215033E+01  0.48482625354E+02  0.00000000000E+00 0. -1.
</event>
<event>
 6    1  0.2144783E-005  0.8925841E+02  0.7818608E-02  0.1381332E+00
          2   -1    0    0  502    0  0.00000000000E+00  0.00000000000E+00  0.30714290396E+03  0.30714290396E+03  0.00000000000E+00 0. -1.
          1   -1    0    0  501    0 -0.00000000000E+00 -0.00000000000E+00 -0.39732577138E+02  0.39732577138E+02  0.00000000000E+00 0. -1.
          2    1    1    2  501    0 -0.44223953138E+02 -0.35709714124E+02  0.98819673381E+02  0.11400118228E+03  0.00000000000E+00 0. -1.
          1    1    1    2  502    0 -0.21420526145E+01  0.23159782749E+02  0.18746955924E+02  0.29873270374E+02  0.00000000000E+00 0. -1.
         22    1    1    2    0    0 -0.23739518618E+02 -0.10426782520E+01  0.12523388970E+03  0.12746834529E+03  0.00000000000E+00 0.  1.
         22    1    1    2    0    0  0.70105524370E+02  0.13592609627E+02  0.24609807817E+02  0.75532683154E+02  0.00000000000E+00 0. -1.
</event>
<event>
 6    1  0.2144783E-005  0.6280709E+02  0.7818608E-02  0.1461277E+00
          2   -1    0    0  502    0  0.00000000000E+00  0.00000000000E+00  0.13526021488E+03  0.13526021488E+03  0.00000000000E+00 0.  1.
          1   -1    0    0  501    0 -0.00000000000E+00 -0.00000000000E+00 -0.30666637157E+03  0.30666637157E+03  0.00000000000E+00 0. -1.
          2    1    1    2  501    0  0.10349856926E+03  0.67503781752E+02  0.38234267212E+02  0.12934671847E+03  0.00000000000E+00 0.  1.
          1    1    1    2  502    0 -0.91251543399E+02 -0.35552581851E+02 -0.11688252517E+03  0.15248722878E+03  0.00000000000E+00 0. -1.
         22    1    1    2    0    0 -0.20886621136E+02 -0.25867938657E+02 -0.12333688807E+03  0.12773953637E+03  0.00000000000E+00 0.  1.
         22    1    1    2    0    0  0.86395952741E+01 -0.60832612440E+01  0.30578989345E+02  0.32353102837E+02  0.00000000000E+00 0.  1.
</event>
<event>
 6    1  0.2144783E-005  0.7267917E+02  0.7818608E-02  0.1425567E+00
          2   -1    0    0  502    0  0.00000000000E+00  0.00000000000E+00  0.17880522093E+03  0.17880522093E+03  0.00000000000E+00 0.  1.
          1   -1    0    0  501    0 -0.00000000000E+00 -0.00000000000E+00 -0.25751658806E+03  0.25751658806E+03  0.00000000000E+00 0.  1.
          2    1    1    2  501    0 -0.47566287884E+02  0.55419315805E+02  0.65022657164E+02  0.97784447905E+02  0.00000000000E+00 0.  1.
          1    1    1    2  502    0  0.19310616688E+02 -0.58779546135E+02 -0.18850750408E+03  0.19840114429E+03  0.00000000000E+00 0.  1.
         22    1    1    2    0    0  0.19882813907E+02  0.92282466785E+01  0.90584073529E+02  0.93198504294E+02  0.00000000000E+00 0. -1.
         22    1    1    2    0    0  0.83728572889E+01 -0.58680163485E+01 -0.45810593747E+02  0.46937712498E+02  0.00000000000E+00 0. -1.
</event>
<event>
 6    1  0.2144783E-005  0.9650673E+02  0.7818608E-02  0.1336388E+00
          2   -1    0    0  502    0  0.00000000000E+00  0.00000000000E+00  0.87806429671E+02  0.87806429671E+02  0.00000000000E+00 0. -1.
          1   -1    0    0  501    0 -0.00000000000E+00 -0.00000000000E+00 -0.10199419537E+04  0.10199419537E+04  0.00000000000E+00 0. -1.
          2    1    1    2  501    0  0.44330327084E+01  0.21681930742E+02  0.48828419211E+02  0.53609443406E+02  0.00000000000E+00 0. -1.
          1    1    1    2  502    0 -0.29544823252E+02 -0.54263114496E+01 -0.90896808226E+03  0.90946430167E+03  0.00000000000E+00 0. -1.
         22    1    1    2    0    0  0.16713982987E+02  0.22928522850E+02 -0.94532128499E+02  0.98698519269E+02  0.00000000000E+00 0.  1.
         22    1    1    2    0    0  0.83978075572E+01 -0.39184142142E+02  0.22536267520E+02  0.45976119029E+02  0.00000000000E+00 0. -1.
</event>
<event>
 6    1  0.2144783E-005  0.1709014E+03  0.7818608E-02  0.1180092E+00
          2   -1    0    0  502    0  0.00000000000E+00  0.00000000000E+00  0.13175034814E+04  0.13175034814E+04  0.00000000000E+00 0. -1.
          1   -1    0    0  501    0 -0.00000000000E+00 -0.00000000000E+00 -0.25951577439E+03  0.25951577439E+03  0.00000000000E+00 0.  1.
          2    1    1    2  501    0  0.14379831017E+03  0.30250430076E+02  0.12254457182E+04  0.12342245544E+04  0.00000000000E+00 0. -1.
          1    1    1    2  502    0 -0.11061423021E+03  0.28116404718E+00 -0.17743298007E+03  0.20908861613E+03  0.00000000000E+00 0.  1.
         22    1    1    2    0    0  0.78245741006E+01  0.78314420477E+01  0.58470156498E+02  0.59508945927E+02  0.00000000000E+00 0. -1.
         22    1    1    2    0    0 -0.41008654057E+02 -0.38363036171E+02 -0.48495187633E+02  0.74197139267E+02  0.00000000000E+00 0.  1.
</event>
<event>
 6    1  0.2144783E-005  0.1593899E+03  0.7818608E-02  0.1263464E+00
          2   -1    0    0  502    0  0.00000000000E+00  0.00000000000E+00  0.11838362025E+03  0.11838362025E+03  0.00000000000E+00 0. -1.
          1   -1    0    0  501    0 -0.00000000000E+00 -0.00000000000E+00 -0.63842057270E+03  0.63842057270E+03  0.00000000000E+00 0. -1.
          2    1    1    2  501    0  0.11490108173E+03 -0.49077041461E+02 -0.52185543300E+03  0.53660405098E+03  0.00000000000E+00 0. -1.
          1    1    1    2  502    0 -0.40976739681E+02  0.38669049118E+02  0.43345232870E+02  0.71085847868E+02  0.00000000000E+00 0. -1.
         22    1    1    2    0    0 -0.10713187028E+03  0.18434493567E+02 -0.35961336086E+02  0.11450015666E+03  0.00000000000E+00 0. -1.
         22    1    1    2    0    0  0.33207528231E+02 -0.80265012232E+01 -0.55654162426E+01  0.34614137445E+02  0.00000000000E+00 0. -1.
</event>
<event>
 6    1  0.2144783E-005  0.1014328E+03  0.7818608E-02  0.1383016E+00
          2   -1    0    0  502    0  0.00000000000E+00  0.00000000000E+00  0.37333664810E+02  0.37333664810E+02  0.00000000000E+00 0. -1.
          1   -1    0    0  501    0 -0.00000000000E+00 -0.00000000000E+00 -0.58487152174E+03  0.58487152174E+03  0.00000000000E+00 0.  1.
          2    1    1    2  501    0 -0.52669829239E+02 -0.79930816208E+02 -0.10587323798E+03  0.14273117673E+03  0.00000000000E+00 0. -1.
          1    1    1    2  502    0  0.36308526254E+01  0.35371766278E+02 -0.15193798787E+03  0.15604325393E+03  0.00000000000E+00 0.  1.
         22    1    1    2    0    0  0.37631890958E+02  0.55425939683E+02 -0.29813723824E+03  0.30557160672E+03  0.00000000000E+00 0.  1.
         22    1    1    2    0    0  0.11407085655E+02 -0.10866889753E+02  0.84106071599E+01  0.17859149163E+02  0.00000000000E+00 0. -1.
</event>
<event>
 6    1  0.2144783E-005  0.2063052E+03  0.7818608E-02  0.1197909E+00
          2   -1    0    0  502    0  0.00000000000E+00  0.00000000000E+00  0.34640805288E+03  0.34640805288E+03  0.00000000000E+00 0. -1.
          1   -1    0    0  501    0 -0.00000000000E+00 -0.00000000000E+00 -0.31976227510E+03  0.31976227510E+03  0.00000000000E+00 0. -1.
          2    1    1    2  501    0  0.55574947625E+01  0.20686315861E+03  0.11411682940E+03  0.23631737746E+03  0.00000000000E+00 0. -1.
          1    1    1    2  502    0  0.36281275235E+02 -0.17860925934E+03 -0.18787309612E+03  0.26175159732E+03  0.00000000000E+00 0. -1.
         22    1    1    2    0    0 -0.59828294878E+02 -0.11696113581E+02  0.12141704913E+03  0.13586141380E+03  0.00000000000E+00 0. -1.
         22    1    1    2    0    0  0.17989524881E+02 -0.16557785695E+02 -0.21015004631E+02  0.32239939395E+02  0.00000000000E+00 0. -1.
</event>
<event>
 6    1  0.2144783E-005  0.5655455E+02  0.7818608E-02  0.1472180E+00
          2   -1    0    0  502    0  0.00000000000E+00  0.00000000000E+00  0.54027677233E+02  0.54027677233E+02  0.00000000000E+00 0.  1.
          1   -1    0    0  501    0 -0.00000000000E+00 -0.00000000000E+00 -0.21364115331E+03  0.21364115331E+03  0.00000000000E+00 0.  1.
          2    1    1    2  501    0 -0.24060751296E+02  0.28948205028E+02 -0.53760597614E+01  0.38023944375E+02  0.00000000000E+00 0.  1.
          1    1    1    2  502    0  0.19808564838E+02 -0.19345541207E+02 -0.71462037651E+02  0.76638450081E+02  0.00000000000E+00 0.  1.
         22    1    1    2    0    0 -0.10736931627E+02  0.20768060614E+02  0.28400862419E+02  0.36785908016E+02  0.00000000000E+00 0.  1.
         22    1    1    2    0    0  0.14989118085E+02 -0.30370724435E+02 -0.11117624108E+03  0.11622052807E+03  0.00000000000E+00 0.  1.
</event>
<event>
 6    1  0.2144783E-005  0.7239424E+02  0.7818608E-02  0.1418162E+00
          2   -1    0    0  502    0  0.00000000000E+00  0.00000000000E+00  0.45134637145E+03  0.45134637145E+03  0.00000000000E+00 0.  1.
          1   -1    0    0  501    0 -0.00000000000E+00 -0.00000000000E+00 -0.42512305271E+03  0.42512305271E+03  0.00000000000E+00 0.  1.
          2    1    1    2  501    0 -0.98826880625E+02  0.60906437242E+02  0.30206858487E+03  0.32360744181E+03  0.00000000000E+00 0.  1.
          1    1    1    2  502    0  0.32204234833E+02 -0.77648072399E+02 -0.36971549010E+03  0.37915152578E+03  0.00000000000E+00 0.  1.
         22    1    1    2    0    0  0.17637971041E+02 -0.58404837353E+01 -0.31869296116E+02  0.36889853722E+02  0.00000000000E+00 0.  1.
         22    1    1    2    0    0  0.48984674751E+02  0.22582118892E+02  0.12573952008E+03  0.13682060285E+03  0.00000000000E+00 0. -1.
</event>
<event>
 6    1  0.2144783E-005  0.2125297E+03  0.7818608E-02  0.1175443E+00
          2   -1    0    0  502    0  0.00000000000E+00  0.00000000000E+00  0.59787821343E+03  0.59787821343E+03  0.00000000000E+00 0. -1.
          1   -1    0    0  501    0 -0.00000000000E+00 -0.00000000000E+00 -0.15418811620E+03  0.15418811620E+03  0.00000000000E+00 0. -1.
          2    1    1    2  501    0 -0.11660678528E+03 -0.11619355406E+03  0.31804198532E+03  0.35811840054E+03  0.00000000000E+00 0. -1.
          1    1    1    2  502    0  0.17837562527E+03  0.92418950784E+02 -0.22580163518E+01  0.20090849856E+03  0.00000000000E+00 0. -1.
         22    1    1    2    0    0  0.25725223166E+02 -0.42249892579E+01 -0.95051673531E+01  0.27748618841E+02  0.00000000000E+00 0. -1.
         22    1    1    2    0    0 -0.87494063160E+02  0.27999592530E+02  0.13741129561E+03  0.16529081169E+03  0.00000000000E+00 0. -1.
</event>
<event>
 6    1  0.2144783E-005  0.4789448E+02  0.7818608E-02  0.1484559E+00
          2   -1    0    0  502    0  0.00000000000E+00  0.00000000000E+00  0.17894575546E+03  0.17894575546E+03  0.00000000000E+00 0.  1.
          1   -1    0    0  501    0 -0.00000000000E+00 -0.00000000000E+00 -0.90410004509E+02  0.90410004509E+02  0.00000000000E+00 0.  1.
          2    1    1    2  501    0  0.12277985797E+02 -0.34007468597E+02 -0.35194372076E+02  0.50456919064E+02  0.00000000000E+00 0.  1.
          1    1    1    2  502    0  0.19711791539E+02  0.29060080626E+02 -0.54115180909E+01  0.35529249073E+02  0.00000000000E+00 0.  1.
         22    1    1    2    0    0  0.25192504748E+02  0.16397155674E+02 -0.10659325044E+02  0.31892792603E+02  0.00000000000E+00 0.  1.
         22    1    1    2    0    0 -0.57182282083E+02 -0.11449767702E+02  0.13980096616E+03  0.15147679923E+03  0.00000000000E+00 0.  1.
</event>
<event>
 6    1  0.2144783E-005  0.1846635E+03  0.7818608E-02  0.1211527E+00
          2   -1    0    0  502    0  0.00000000000E+00  0.00000000000E+00  0.22459207001E+03  0.22459207001E+03  0.00000000000E+00 0.  1.
          1   -1    0    0  501    0 -0.00000000000E+00 -0.00000000000E+00 -0.11694236440E+03  0.11694236440E+03  0.00000000000E+00 0.  1.
          2    1    1    2  501    0 -0.16708563076E+02 -0.34705436696E+02  0.33025643832E+02  0.50737920403E+02  0.00000000000E+00 0.  1.
          1    1    1    2  502    0 -0.99893231162E+02 -0.11836086405E+02  0.13998535287E+01  0.10060174036E+03  0.00000000000E+00 0.  1.
         22    1    1    2    0    0  0.58847929141E+02  0.72668953466E+02  0.21723164361E+00  0.93508837827E+02  0.00000000000E+00 0.  1.
         22    1    1    2    0    0  0.57753865096E+02 -0.26127430366E+02  0.73006976611E+02  0.96685935817E+02  0.00000000000E+00 0.  1.
</event>
<event>
 6    1  0.2144783E-005  0.6737473E+02  0.7818608E-02  0.1478608E+00
          2   -1    0    0  502    0  0.00000000000E+00  0.00000000000E+00  0.12749846631E+03  0.12749846631E+03  0.00000000000E+00 0. -1.
          1   -1    0    0  501    0 -0.00000000000E+00 -0.00000000000E+00 -0.18507641534E+03  0.18507641534E+03  0.00000000000E+00 0. -1.
          2    1    1    2  501    0  0.40057639369E+02 -0.43865205368E+02  0.24089382246E+02  0.64102020645E+02  0.00000000000E+00 0. -1.
          1    1    1    2  502    0 -0.42771779842E+02  0.34210763696E+02 -0.10787111852E+03  0.12097925324E+03  0.00000000000E+00 0. -1.
         22    1    1    2    0    0  0.11636123222E+02  0.48848414432E+01  0.75816638522E+02  0.76859766565E+02  0.00000000000E+00 0. -1.
         22    1    1    2    0    0 -0.89219827492E+01  0.47696002282E+01 -0.49612851286E+02  0.50633841206E+02  0.00000000000E+00 0.  1.
</event>
<event>
 6    1  0.2144783E-005  0.1094389E+03  0.7818608E-02  0.1353455E+00
          2   -1    0    0  502    0  0.00000000000E+00  0.00000000000E+00  0.16348345396E+04  0.16348345396E+04  0.00000000000E+00 0. -1.
          1   -1    0    0  501    0 -0.00000000000E+00 -0.00000000000E+00 -0.70593197751E+02  0.70593197751E+02  0.00000000000E+00 0. -1.
          2    1    1    2  501    0  0.33803460056E+02 -0.23619489778E+02  0.15346491699E+04  0.15352031230E+04  0.00000000000E+00 0. -1.
          1    1    1    2  502    0 -0.12425213100E+02  0.26220343227E+02  0.33893572845E+02  0.44616886935E+02  0.00000000000E+00 0. -1.
         22    1    1    2    0    0  0.94651707483E+01 -0.18174133734E+02  0.54044370804E+02  0.57798638478E+02  0.00000000000E+00 0.  1.
         22    1    1    2    0    0 -0.30843417705E+02  0.15573280285E+02 -0.58345771670E+02  0.67809088965E+02  0.00000000000E+00 0. -1.
</event>
<event>
 6    1  0.2144783E-005  0.9051869E+02  0.7818608E-02  0.1431468E+00
          2   -1    0    0  502    0  0.00000000000E+00  0.00000000000E+00  0.29451315685E+02  0.29451315685E+02  0.00000000000E+00 0. -1.
          1   -1    0    0  501    0 -0.00000000000E+00 -0.00000000000E+00 -0.91438085362E+03  0.91438085362E+03  0.00000000000E+00 0. -1.
          2    1    1    2  501    0 -0.83975467330E+02  0.12583445859E+02 -0.64617493605E+03  0.65173021275E+03  0.00000000000E+00 0. -1.
          1    1    1    2  502    0  0.31990518450E+02  0.36129676905E+01 -0.59805766898E+02  0.67920369260E+02  0.00000000000E+00 0. -1.
         22    1    1    2    0    0  0.92564258065E+01  0.46826931456E+01  0.18432969955E+02  0.21151440026E+02  0.00000000000E+00 0. -1.
         22    1    1    2    0    0  0.42728523073E+02 -0.20879106695E+02 -0.19738180494E+03  0.20303014727E+03  0.00000000000E+00 0. -1.
</event>
<event>
 6    1  0.2144783E-005  0.1336082E+03  0.7818608E-02  0.1341670E+00
          2   -1    0    0  502    0  0.00000000000E+00  0.00000000000E+00  0.56555460251E+03  0.56555460251E+03  0.00000000000E+00 0. -1.
          1   -1    0    0  501    0 -0.00000000000E+00 -0.00000000000E+00 -0.29401928164E+03  0.29401928164E+03  0.00000000000E+00 0. -1.
          2    1    1    2  501    0  0.44293918271E+02 -0.93877971904E+02  0.13149151864E+03  0.16752624952E+03  0.00000000000E+00 0. -1.
          1    1    1    2  502    0  0.68857571402E+02 -0.90836276307E+01 -0.24689997503E+03  0.25648289436E+03  0.00000000000E+00 0. -1.
         22    1    1    2    0    0 -0.11794790648E+03  0.11587956046E+03  0.38798186373E+03  0.42174602281E+03  0.00000000000E+00 0. -1.
         22    1    1    2    0    0  0.47964168034E+01 -0.12917960926E+02 -0.10380864790E+01  0.13818717458E+02  0.00000000000E+00 0. -1.
</event>
<event>
 6    1  0.2144783E-005  0.8003755E+02  0.7818608E-02  0.1363098E+00
          2   -1    0    0  502    0  0.00000000000E+00  0.00000000000E+00  0.20481054561E+03  0.20481054561E+03  0.00000000000E+00 0. -1.
          1   -1    0    0  501    0 -0.00000000000E+00 -0.00000000000E+00 -0.30077498285E+03  0.30077498285E+03  0.00000000000E+00 0.  1.
          2    1    1    2  501    0 -0.96946221762E+02  0.45197410931E+02 -0.16334674419E+03  0.19525248963E+03  0.00000000000E+00 0. -1.
          1    1    1    2  502    0  0.48366170451E+02 -0.10652263551E+02 -0.87492979807E+02  0.10053744913E+03  0.00000000000E+00 0.  1.
         22    1    1    2    0    0  0.37152279977E+02 -0.24544134728E+02  0.17724816295E+03  0.18275562297E+03  0.00000000000E+00 0. -1.
         22    1    1    2    0    0  0.11427771335E+02 -0.10001012653E+02 -0.22372876188E+02  0.27039966729E+02  0.00000000000E+00 0.  1.
</event>
<event>
 6    1  0.2144783E-005  0.3879197E+02  0.7818608E-02  0.1549213E+00
          2   -1    0    0  502    0  0.00000000000E+00  0.00000000000E+00  0.25834589518E+03  0.25834589518E+03  0.00000000000E+00 0.  1.
          1   -1    0    0  501    0 -0.00000000000E+00 -0.00000000000E+00 -0.89644896268E+03  0.89644896268E+03  0.00000000000E+00 0.  1.
          2    1    1    2  501    0 -0.46473593212E+02  0.60603327847E+01  0.22478831302E+03  0.22962209861E+03  0.00000000000E+00 0.  1.
          1    1    1    2  502    0  0.57049610513E+02 -0.48771628654E+02 -0.74074630557E+03  0.74453906482E+03  0.00000000000E+00 0.  1.
         22    1    1    2    0    0 -0.52565999130E+01  0.16704462309E+02  0.25326932516E+02  0.30791628966E+02  0.00000000000E+00 0. -1.
         22    1    1    2    0    0 -0.53194173874E+01  0.26006833560E+02 -0.14747200747E+03  0.14984206546E+03  0.00000000000E+00 0.  1.
</event>
<event>
 6    1  0.2144783E-005  0.9189159E+02  0.7818608E-02  0.1413719E+00
          2   -1    0    0  502    0  0.00000000000E+00  0.00000000000E+00  0.22911415298E+03  0.22911415298E+03  0.00000000000E+00 0.  1.
          1   -1    0    0  501    0 -0.00000000000E+00 -0.00000000000E+00 -0.28828124553E+03  0.28828124553E+03  0.00000000000E+00 0.  1.
          2    1    1    2  501    0 -0.68722393058E+02  0.72224433530E+02  0.15151215704E+03  0.18136998053E+03  0.00000000000E+00 0.  1.
          1    1    1    2  502    0  0.49972158762E+02 -0.53278765569E+02 -0.18765495514E+03  0.20137086607E+03  0.00000000000E+00 0.  1.
         22    1    1    2    0    0  0.43860713898E+01 -0.12253290561E+02  0.54241225696E+02  0.55780743243E+02  0.00000000000E+00 0.  1.
         22    1    1    2    0    0  0.14364162906E+02 -0.66923773988E+01 -0.77265520148E+02  0.78873808676E+02  0.00000000000E+00 0.  1.
</event>
<event>
 6    1  0.2144783E-005  0.5754338E+02  0.7818608E-02  0.1504830E+00
          2   -1    0    0  502    0  0.00000000000E+00  0.00000000000E+00  0.79815081045E+02  0.79815081045E+02  0.00000000000E+00 0.  1.
          1   -1    0    0  501    0 -0.00000000000E+00 -0.00000000000E+00 -0.49192131103E+03  0.49192131103E+03  0.00000000000E+00 0.  1.
          2    1    1    2  501    0  0.29473738913E+00  0.26077140074E+02  0.33675818493E+02  0.42593014166E+02  0.00000000000E+00 0.  1.
          1    1    1    2  502    0 -0.55199101276E+02 -0.43436240936E+01 -0.35777525160E+03  0.36203444382E+03  0.00000000000E+00 0.  1.
         22    1    1    2    0    0  0.68972950361E+02 -0.21682996852E+02 -0.11547812086E+03  0.13624469395E+03  0.00000000000E+00 0.  1.
         22    1    1    2    0    0 -0.14068586475E+02 -0.50519128009E-01  0.27471323984E+02  0.30864240133E+02  0.00000000000E+00 0. -1.
</event>
<event>
 6    1  0.2144783E-005  0.8942124E+02  0.7818608E-02  0.1394173E+00
          2   -1    0    0  502    0  0.00000000000E+00  0.00000000000E+00  0.23186855750E+03  0.23186855750E+03  0.00000000000E+00 0.  1.
          1   -1    0    0  501    0 -0.00000000000E+00 -0.00000000000E+00 -0.17742833766E+03  0.17742833766E+03  0.00000000000E+00 0.  1.
          2    1    1    2  501    0  0.66880937001E+02 -0.80144742774E+02  0.97896737339E+02  0.14310838798E+03  0.00000000000E+00 0.  1.
          1    1    1    2  502    0 -0.31484798651E+02  0.42321332669E+02 -0.10487131691E+03  0.11738986692E+03  0.00000000000E+00 0.  1.
         22    1    1    2    0    0 -0.21456214888E+02  0.24601637986E+02 -0.36528207243E+02  0.48988975018E+02  0.00000000000E+00 0.  1.
         22    1    1    2    0    0 -0.13939923461E+02  0.13221772119E+02  0.97943006655E+02  0.99809665247E+02  0.00000000000E+00 0.  1.
</event>
<event>
 6    1  0.2144783E-005  0.5489420E+02  0.7818608E-02  0.1428029E+00
          2   -1    0    0  502    0  0.00000000000E+00  0.00000000000E+00  0.45641738125E+02  0.45641738125E+02  0.00000000000E+00 0. -1.
          1   -1    0    0  501    0 -0.00000000000E+00 -0.00000000000E+00 -0.21860547312E+03  0.21860547312E+03  0.00000000000E+00 0. -1.
          2    1    1    2  501    0  0.72803078759E+00  0.26812042869E+02 -0.81200179080E+02  0.85515406531E+02  0.00000000000E+00 0. -1.
          1    1    1    2  502    0  0.12936449299E+02  0.17686603663E+02 -0.12173604268E+02  0.25067195904E+02  0.00000000000E+00 0. -1.
         22    1    1    2    0    0  0.34920647650E+02 -0.12635581356E+02 -0.87474178790E+02  0.95030739782E+02  0.00000000000E+00 0. -1.
         22    1    1    2    0    0 -0.48585127737E+02 -0.31863065176E+02  0.78842271435E+01  0.58633869028E+02  0.00000000000E+00 0. -1.
</event>
<event>
 6    1  0.2305796E-005  0.3094284E+02  0.7818608E-02  0.1598874E+00
          2   -1    0    0  502    0  0.00000000000E+00  0.00000000000E+00  0.20130545133E+04  0.20130545133E+04  0.00000000000E+00 0. -1.
          1   -1    0    0  501    0 -0.00000000000E+00 -0.00000000000E+00 -0.24081754449E+03  0.24081754449E+03  0.00000000000E+00 0. -1.
          2    1    1    2  501    0  0.44487212441E+02  0.54166405298E+02  0.19307697647E+04  0.19320416651E+04  0.00000000000E+00 0. -1.
          1    1    1    2  502    0 -0.37666929349E+02 -0.49958165291E+02 -0.18666230644E+03  0.19686907449E+03  0.00000000000E+00 0. -1.
         22    1    1    2    0    0 -0.12227173528E+02  0.66987764125E+01  0.75128569420E+02  0.76411251272E+02  0.00000000000E+00 0.  1.
         22    1    1    2    0    0  0.54068904358E+01 -0.10907016420E+02 -0.46999058820E+02  0.48550066955E+02  0.00000000000E+00 0. -1.
</event>
<event>
 6    1  0.2144783E-005  0.8511841E+02  0.7818608E-02  0.1370720E+00
          2   -1    0    0  502    0  0.00000000000E+00  0.00000000000E+00  0.57011045392E+02  0.57011045392E+02  0.00000000000E+00 0.  1.
          1   -1    0    0  501    0 -0.00000000000E+00 -0.00000000000E+00 -0.66998319719E+03  0.66998319719E+03  0.00000000000E+00 0. -1.
          2    1    1    2  501    0  0.21840001827E+02  0.22738442667E+02 -0.18321696065E+02  0.36465147764E+02  0.00000000000E+00 0.  1.
          1    1    1    2  502    0 -0.59991537668E+02  0.12796077057E+02 -0.54549984323E+03  0.54893788642E+03  0.00000000000E+00 0. -1.
         22    1    1    2    0    0  0.28648504855E+02 -0.15582806016E+02  0.38927506956E+02  0.50782984075E+02  0.00000000000E+00 0.  1.
         22    1    1    2    0    0  0.95030309861E+01 -0.19951713707E+02 -0.88078119454E+02  0.90808224321E+02  0.00000000000E+00 0.  1.
</event>
<event>
 6    1  0.2144783E-005  0.5905700E+02  0.7818608E-02  0.1402065E+00
          2   -1    0    0  502    0  0.00000000000E+00  0.00000000000E+00  0.82018974381E+02  0.82018974381E+02  0.00000000000E+00 0. -1.
          1   -1    0    0  501    0 -0.00000000000E+00 -0.00000000000E+00 -0.24523223482E+03  0.24523223482E+03  0.00000000000E+00 0. -1.
          2    1    1    2  501    0 -0.28552869422E+02 -0.17521174131E+02  0.45098472218E+02  0.56179445454E+02  0.00000000000E+00 0. -1.
          1    1    1    2  502    0  0.20839826316E+02  0.16663327802E+02 -0.10688095674E+03  0.11016126256E+03  0.00000000000E+00 0. -1.
         22    1    1    2    0    0  0.32344072872E+02 -0.97206320455E+00 -0.12357303248E+03  0.12773949395E+03  0.00000000000E+00 0. -1.
         22    1    1    2    0    0 -0.24631029766E+02  0.18299095339E+01  0.22142256561E+02  0.33171007248E+02  0.00000000000E+00 0.  1.
</event>
<event>
 6    1  0.2144783E-005  0.6737235E+02  0.7818608E-02  0.1444862E+00
          2   -1    0    0  502    0  0.00000000000E+00  0.00000000000E+00  0.36101452633E+02  0.36101452633E+02  0.00000000000E+00 0. -1.
          1   -1    0    0  501    0 -0.00000000000E+00 -0.00000000000E+00 -0.42567707571E+03  0.42567707571E+03  0.00000000000E+00 0.  1.
          2    1    1    2  501    0  0.11621140234E+02  0.74210732823E+02 -0.68467898165E+02  0.10163728079E+03  0.00000000000E+00 0. -1.
          1    1    1    2  502    0 -0.54742561163E+01 -0.24163734454E+02 -0.98809093258E+02  0.10186800505E+03  0.00000000000E+00 0.  1.
         22    1    1    2    0    0  0.13853279917E+02 -0.15224463232E+02  0.97494349271E+01  0.22776064774E+02  0.00000000000E+00 0. -1.
         22    1    1    2    0    0 -0.20000164035E+02 -0.34822535136E+02 -0.23204806658E+03  0.23549717773E+03  0.00000000000E+00 0.  1.
</event>
<event>
 6    1  0.2144783E-005  0.9325035E+02  0.7818608E-02  0.1302495E+00
          2   -1    0    0  502    0  0.00000000000E+00  0.00000000000E+00  0.67591032870E+03  0.67591032870E+03  0.00000000000E+00 0. -1.
          1   -1    0    0  501    0 -0.00000000000E+00 -0.00000000000E+00 -0.40578684495E+03  0.40578684495E+03  0.00000000000E+00 0.  1.
          2    1    1    2  501    0  0.78333545430E+02  0.33884713044E+03  0.43865800096E+03  0.55979850299E+03  0.00000000000E+00 0. -1.
          1    1    1    2  502    0 -0.11335873309E+03 -0.32802792560E+03 -0.17887170768E+03  0.39044539970E+03  0.00000000000E+00 0.  1.
         22    1    1    2    0    0  0.11655232234E+02 -0.17900050120E+02 -0.56442443880E+02  0.60349032336E+02  0.00000000000E+00 0.  1.
         22    1    1    2    0    0  0.23369955426E+02  0.70808452791E+01  0.66779634352E+02  0.71104238626E+02  0.00000000000E+00 0.  1.
</event>
<event>
 6    1  0.2144783E-005  0.3523653E+02  0.7818608E-02  0.1565552E+00
          2   -1    0    0  502    0  0.00000000000E+00  0.00000000000E+00  0.60901567510E+02  0.60901567510E+02  0.00000000000E+00 0.  1.
          1   -1    0    0  501    0 -0.00000000000E+00 -0.00000000000E+00 -0.28148989755E+03  0.28148989755E+03  0.00000000000E+00 0.  1.
          2    1    1    2  501    0  0.34472443203E+02 -0.28636786870E+02 -0.11630333196E+03  0.12463899842E+03  0.00000000000E+00 0.  1.
          1    1    1    2  502    0 -0.48809586852E+02  0.15517279470E+01 -0.75241577356E+02  0.89699936406E+02  0.00000000000E+00 0.  1.
         22    1    1    2    0    0 -0.12114445697E+02  0.17686330827E+02  0.44466859830E+02  0.49364640339E+02  0.00000000000E+00 0. -1.
         22    1    1    2    0    0  0.26451589345E+02  0.93987280957E+01 -0.73510280555E+02  0.78687889894E+02  0.00000000000E+00 0.  1.
</event>
<event>
 6    1  0.2144783E-005  0.9758815E+02  0.7818608E-02  0.1382372E+00
          2   -1    0    0  502    0  0.00000000000E+00  0.00000000000E+00  0.18389819798E+03  0.18389819798E+03  0.00000000000E+00 0. -1.
          1   -1    0    0  501    0 -0.00000000000E+00 -0.00000000000E+00 -0.16665217394E+03  0.16665217394E+03  0.00000000000E+00 0.  1.
          2    1    1    2  501    0 -0.60137902072E+02 -0.67459740437E+02  0.11720850959E+03  0.14800411672E+03  0.00000000000E+00 0. -1.
          1    1    1    2  502    0  0.30319121052E+02  0.24519145592E+02 -0.30677995172E+02  0.49614282114E+02  0.00000000000E+00 0.  1.
         22    1    1    2    0    0  0.15834907619E+02 -0.82975720002E+01  0.33084188252E+02  0.37605285701E+02  0.00000000000E+00 0.  1.
         22    1    1    2    0    0  0.13983873401E+02  0.51238166845E+02 -0.10236867864E+03  0.11532668739E+03  0.00000000000E+00 0.  1.
</event>
<event>
 6    1  0.2144783E-005  0.6688327E+02  0.7818608E-02  0.1412845E+00
          2   -1    0    0  502    0  0.00000000000E+00  0.00000000000E+00  0.95910519837E+02  0.95910519837E+02  0.00000000000E+00 0.  1.
          1   -1    0    0  501    0 -0.00000000000E+00 -0.00000000000E+00 -0.23053314813E+03  0.23053314813E+03  0.00000000000E+00 0.  1.
          2    1    1    2  501    0 -0.29880928077E+02 -0.82778065804E+02  0.18376772728E+02  0.89904303662E+02  0.00000000000E+00 0.  1.
          1    1    1    2  502    0  0.21790226601E+02  0.27353986369E+02 -0.70484485838E+02  0.78683653254E+02  0.00000000000E+00 0.  1.
         22    1    1    2    0    0  0.14352373898E+02  0.21787996404E+02 -0.11057219364E+03  0.11360861512E+03  0.00000000000E+00 0.  1.
         22    1    1    2    0    0 -0.62616724209E+01  0.33636083031E+02  0.28057278460E+02  0.44247095925E+02  0.00000000000E+00 0.  1.
</event>
<event>
 6    1  0.2144783E-005  0.6099733E+02  0.7818608E-02  0.1447246E+00
          2   -1    0    0  502    0  0.00000000000E+00  0.00000000000E+00  0.13888172210E+03  0.13888172210E+03  0.00000000000E+00 0. -1.
          1   -1    0    0  501    0 -0.00000000000E+00 -0.00000000000E+00 -0.13603313155E+03  0.13603313155E+03  0.00000000000E+00 0. -1.
          2    1    1    2  501    0  0.48289162867E+02 -0.19615923710E+02 -0.34332662501E+02  0.62412814612E+02  0.00000000000E+00 0. -1.
          1    1    1    2  502    0 -0.44606418540E+02  0.81448517649E+01 -0.44294382364E+02  0.63388196805E+02  0.00000000000E+00 0. -1.
         22    1    1    2    0    0 -0.18296395882E+02 -0.10961707070E+02 -0.28685520406E+02  0.35745995652E+02  0.00000000000E+00 0.  1.
         22    1    1    2    0    0  0.14613651555E+02  0.22432779015E+02  0.11016115583E+03  0.11336784658E+03  0.00000000000E+00 0. -1.
</event>
<event>
 6    1  0.2144783E-005  0.2848853E+03  0.7818608E-02  0.1197174E+00
          2   -1    0    0  502    0  0.00000000000E+00  0.00000000000E+00  0.25157809544E+03  0.25157809544E+03  0.00000000000E+00 0.  1.
          1   -1    0    0  501    0 -0.00000000000E+00 -0.00000000000E+00 -0.81142028513E+03  0.81142028513E+03  0.00000000000E+00 0. -1.
          2    1    1    2  501    0  0.27540936258E+03  0.59314035490E+01  0.11653481941E+03  0.29910844635E+03  0.00000000000E+00 0.  1.
          1    1    1    2  502    0 -0.20319200134E+03 -0.25173614453E+02 -0.41032679504E+03  0.45857254497E+03  0.00000000000E+00 0. -1.
         22    1    1    2    0    0 -0.24882290844E+01  0.23393281485E+02  0.61347583123E+01  0.24311975694E+02  0.00000000000E+00 0. -1.
         22    1    1    2    0    0 -0.69729132156E+02 -0.41510705804E+01 -0.27218497237E+03  0.28100541355E+03  0.00000000000E+00 0. -1.
</event>
<event>
 6    1  0.2144783E-005  0.5736904E+02  0.7818608E-02  0.1499461E+00
          2   -1    0    0  502    0  0.00000000000E+00  0.00000000000E+00  0.74951639580E+02  0.74951639580E+02  0.00000000000E+00 0.  1.
          1   -1    0    0  501    0 -0.00000000000E+00 -0.00000000000E+00 -0.39956890852E+03  0.39956890852E+03  0.00000000000E+00 0. -1.
          2    1    1    2  501    0  0.45129944160E+02  0.33456396785E+00  0.23887129252E+02  0.51062890017E+02  0.00000000000E+00 0.  1.
          1    1    1    2  502    0 -0.35417793263E+02  0.97055688935E+01 -0.28184774023E+03  0.28423013003E+03  0.00000000000E+00 0. -1.
         22    1    1    2    0    0 -0.20087596073E+02  0.11788097863E+01 -0.10028826941E+03  0.10228703774E+03  0.00000000000E+00 0.  1.
         22    1    1    2    0    0  0.10375445177E+02 -0.11218942648E+02  0.33631611439E+02  0.36940490316E+02  0.00000000000E+00 0.  1.
</event>
<event>
 6    1  0.2144783E-005  0.2454889E+03  0.7818608E-02  0.1214942E+00
          2   -1    0    0  502    0  0.00000000000E+00  0.00000000000E+00  0.77456566418E+03  0.77456566418E+03  0.00000000000E+00 0. -1.
          1   -1    0    0  501    0 -0.00000000000E+00 -0.00000000000E+00 -0.15630584159E+03  0.15630584159E+03  0.00000000000E+00 0. -1.
          2    1    1    2  501    0 -0.17789354652E+03  0.64340214291E+02 -0.55927718905E+02  0.19726552362E+03  0.00000000000E+00 0. -1.
          1    1    1    2  502    0  0.62886238414E+02 -0.11448974852E+02  0.41518515743E+03  0.42007674651E+03  0.00000000000E+00 0. -1.
         22    1    1    2    0    0 -0.24570271470E+02  0.50968346395E+01  0.45181897610E+02  0.51682490605E+02  0.00000000000E+00 0.  1.
         22    1    1    2    0    0  0.13957757957E+03 -0.57988074078E+02  0.21382048645E+03  0.26184674503E+03  0.00000000000E+00 0. -1.
</event>
<event>
 6    1  0.2144783E-005  0.2344800E+03  0.7818608E-02  0.1124360E+00
          2   -1    0    0  502    0  0.00000000000E+00  0.00000000000E+00  0.65907110085E+02  0.65907110085E+02  0.00000000000E+00 0. -1.
          1   -1    0    0  501    0 -0.00000000000E+00 -0.00000000000E+00 -0.83036654358E+03  0.83036654358E+03  0.00000000000E+00 0. -1.
          2    1    1    2  501    0 -0.14924107493E+03  0.81947862050E+02 -0.27668934679E+03  0.32487743099E+03  0.00000000000E+00 0. -1.
          1    1    1    2  502    0  0.14958347088E+03 -0.80191611967E+02 -0.30308875615E+03  0.34737401097E+03  0.00000000000E+00 0. -1.
         22    1    1    2    0    0  0.59062215264E+02  0.18771175870E+01 -0.13166501074E+03  0.14431751070E+03  0.00000000000E+00 0. -1.
         22    1    1    2    0    0 -0.59404611223E+02 -0.36333676697E+01 -0.53016319815E+02  0.79704701003E+02  0.00000000000E+00 0.  1.
</event>
<event>
 6    1  0.2144783E-005  0.7771012E+02  0.7818608E-02  0.1441246E+00
          2   -1    0    0  502    0  0.00000000000E+00  0.00000000000E+00  0.13985999476E+03  0.13985999476E+03  0.00000000000E+00 0.  1.
          1   -1    0    0  501    0 -0.00000000000E+00 -0.00000000000E+00 -0.91023631520E+02  0.91023631520E+02  0.00000000000E+00 0. -1.
          2    1    1    2  501    0 -0.15865594638E+02 -0.58968913851E+02  0.29332761398E+02  0.67745559155E+02  0.00000000000E+00 0.  1.
          1    1    1    2  502    0  0.20488233771E+02  0.19942022166E+02 -0.35437628378E+01  0.28809898058E+02  0.00000000000E+00 0. -1.
         22    1    1    2    0    0  0.14153028027E+02  0.23428164524E+00  0.69520685772E+02  0.70947084792E+02  0.00000000000E+00 0. -1.
         22    1    1    2    0    0 -0.18775667160E+02  0.38792610040E+02 -0.46473321090E+02  0.63381084277E+02  0.00000000000E+00 0. -1.
</event>
<event>
 6    1  0.2144783E-005  0.6112289E+03  0.7818608E-02  0.1130738E+00
          2   -1    0    0  502    0  0.00000000000E+00  0.00000000000E+00  0.24463681333E+03  0.24463681333E+03  0.00000000000E+00 0. -1.
          1   -1    0    0  501    0 -0.00000000000E+00 -0.00000000000E+00 -0.14557757329E+04  0.14557757329E+04  0.00000000000E+00 0. -1.
          2    1    1    2  501    0 -0.19786813443E+03 -0.48776085278E+03 -0.34552179293E+03  0.62964097510E+03  0.00000000000E+00 0. -1.
          1    1    1    2  502    0  0.17987426685E+03  0.18266492320E+03 -0.19359500785E+03  0.32124796203E+03  0.00000000000E+00 0. -1.
         22    1    1    2    0    0  0.28405753599E+02  0.30888125251E+03 -0.66992166044E+03  0.73824761843E+03  0.00000000000E+00 0. -1.
         22    1    1    2    0    0 -0.10411886022E+02 -0.37853229168E+01 -0.21004583370E+01  0.11275990660E+02  0.00000000000E+00 0. -1.
</event>
<event>
 6    1  0.2144783E-005  0.1245853E+03  0.7818608E-02  0.1344090E+00
          2   -1    0    0  502    0  0.00000000000E+00  0.00000000000E+00  0.22218874331E+03  0.22218874331E+03  0.00000000000E+00 0. -1.
          1   -1    0    0  501    0 -0.00000000000E+00 -0.00000000000E+00 -0.27717411345E+03  0.27717411345E+03  0.00000000000E+00 0. -1.
          2    1    1    2  501    0 -0.64847236842E+01 -0.51402840154E+02  0.90723441038E+02  0.10447509929E+03  0.00000000000E+00 0. -1.
          1    1    1    2  502    0 -0.11605256830E+03  0.41833342508E+02 -0.17847932046E+03  0.21696334941E+03  0.00000000000E+00 0. -1.
         22    1    1    2    0    0 -0.15921141838E+02 -0.34970068659E+01  0.35241550515E+02  0.38828838473E+02  0.00000000000E+00 0. -1.
         22    1    1    2    0    0  0.13845843382E+03  0.13066504512E+02 -0.24710412309E+01  0.13909556960E+03  0.00000000000E+00 0. -1.
</event>
<event>
 6    1  0.2144783E-005  0.9068891E+02  0.7818608E-02  0.1311389E+00
          2   -1    0    0  502    0  0.00000000000E+00  0.00000000000E+00  0.62696393237E+03  0.62696393237E+03  0.00000000000E+00 0.  1.
          1   -1    0    0  501    0 -0.00000000000E+00 -0.00000000000E+00 -0.16447751138E+03  0.16447751138E+03  0.00000000000E+00 0.  1.
          2    1    1    2  501    0 -0.17152114364E+03 -0.99088175262E+02  0.34344333111E+03  0.39647356895E+03  0.00000000000E+00 0.  1.
          1    1    1    2  502    0  0.13767776111E+03  0.95719750693E+02 -0.54456529773E+02  0.17630357402E+03  0.00000000000E+00 0.  1.
         22    1    1    2    0    0  0.84914901448E+01 -0.40613248851E+02  0.39513204388E+01  0.41679183298E+02  0.00000000000E+00 0. -1.
         22    1    1    2    0    0  0.25351892392E+02  0.43981673421E+02  0.16954829921E+03  0.17698511749E+03  0.00000000000E+00 0.  1.
</event>
<event>
 6    1  0.2144783E-005  0.4061712E+02  0.7818608E-02  0.1526216E+00
          2   -1    0    0  502    0  0.00000000000E+00  0.00000000000E+00  0.37715452520E+03  0.37715452520E+03  0.00000000000E+00 0.  1.
          1   -1    0    0  501    0 -0.00000000000E+00 -0.00000000000E+00 -0.10370847675E+03  0.10370847675E+03  0.00000000000E+00 0.  1.
          2    1    1    2  501    0 -0.48097257214E+02 -0.62575789650E+02  0.22184969758E+03  0.23547051603E+03  0.00000000000E+00 0.  1.
          1    1    1    2  502    0  0.52365098419E+02  0.68221318682E+02 -0.34533582441E+02  0.92675887756E+02  0.00000000000E+00 0.  1.
         22    1    1    2    0    0  0.11592630248E+02  0.14979615889E+02  0.11343193890E+03  0.11500253359E+03  0.00000000000E+00 0.  1.
         22    1    1    2    0    0 -0.15860471453E+02 -0.20625144921E+02 -0.27302005596E+02  0.37714064582E+02  0.00000000000E+00 0. -1.
</event>
<event>
 6    1  0.2144783E-005  0.9983652E+02  0.7818608E-02  0.1339650E+00
          2   -1    0    0  502    0  0.00000000000E+00  0.00000000000E+00  0.11342306519E+03  0.11342306519E+03  0.00000000000E+00 0.  1.
          1   -1    0    0  501    0 -0.00000000000E+00 -0.00000000000E+00 -0.83171737649E+03  0.83171737649E+03  0.00000000000E+00 0.  1.
          2    1    1    2  501    0  0.13465933962E+02  0.66047242005E+02  0.29351110466E+01  0.67469877951E+02  0.00000000000E+00 0.  1.
          1    1    1    2  502    0 -0.21950739155E+02 -0.88836740988E+02 -0.74068621534E+03  0.74631754039E+03  0.00000000000E+00 0.  1.
         22    1    1    2    0    0  0.90020941576E+01  0.32995810857E+02  0.70998991967E+02  0.78807474859E+02  0.00000000000E+00 0.  1.
         22    1    1    2    0    0 -0.51728896464E+00 -0.10206311874E+02 -0.51542198972E+02  0.52545548478E+02  0.00000000000E+00 0.  1.
</event>
<event>
 6    1  0.2144783E-005  0.4853410E+02  0.7818608E-02  0.1522193E+00
          2   -1    0    0  502    0  0.00000000000E+00  0.00000000000E+00  0.84826932691E+02  0.84826932691E+02  0.00000000000E+00 0.  1.
          1   -1    0    0  501    0 -0.00000000000E+00 -0.00000000000E+00 -0.11668223499E+03  0.11668223499E+03  0.00000000000E+00 0. -1.
          2    1    1    2  501    0  0.20871495585E+02  0.33442037133E+02  0.72158917765E+01  0.40075656822E+02  0.00000000000E+00 0.  1.
          1    1    1    2  502    0 -0.44689845510E+01 -0.22320583790E+02 -0.30186590942E+02  0.37807546288E+02  0.00000000000E+00 0. -1.
         22    1    1    2    0    0 -0.10571756125E+02  0.15243797834E+02  0.52975317924E+02  0.56129490547E+02  0.00000000000E+00 0. -1.
         22    1    1    2    0    0 -0.58307549098E+01 -0.26365251178E+02 -0.61859921061E+02  0.67496474028E+02  0.00000000000E+00 0. -1.
</event>
<event>
 6    1  0.2144783E-005  0.6829797E+02  0.7818608E-02  0.1370441E+00
          2   -1    0    0  502    0  0.00000000000E+00  0.00000000000E+00  0.54151853612E+03  0.54151853612E+03  0.00000000000E+00 0.  1.
          1   -1    0    0  501    0 -0.00000000000E+00 -0.00000000000E+00 -0.29917814509E+02  0.29917814509E+02  0.00000000000E+00 0.  1.
          2    1    1    2  501    0  0.29564971285E+02 -0.21694858061E+02  0.31645438820E+03  0.31857202357E+03  0.00000000000E+00 0.  1.
          1    1    1    2  502    0 -0.10165965602E+02 -0.22558759266E+02  0.24482985520E+02  0.34808922078E+02  0.00000000000E+00 0.  1.
         22    1    1    2    0    0 -0.44103698149E+02 -0.22176773961E+02  0.23413947011E+02  0.54636603192E+02  0.00000000000E+00 0.  1.
         22    1    1    2    0    0  0.24704692467E+02  0.66430391289E+02  0.14724940088E+03  0.16341880178E+03  0.00000000000E+00 0.  1.
</event>
<event>
 6    1  0.2144783E-005  0.6885541E+02  0.7818608E-02  0.1486891E+00
          2   -1    0    0  502    0  0.00000000000E+00  0.00000000000E+00  0.21178192776E+03  0.21178192776E+03  0.00000000000E+00 0. -1.
          1   -1    0    0  501    0 -0.00000000000E+00 -0.00000000000E+00 -0.15275686133E+03  0.15275686133E+03  0.00000000000E+00 0. -1.
          2    1    1    2  501    0  0.21429063265E+02 -0.14028151052E+02  0.14267013734E+03  0.14495089466E+03  0.00000000000E+00 0. -1.
          1    1    1    2  502    0  0.78753196179E+01  0.20914963551E+02 -0.86088586111E+02  0.88942121731E+02  0.00000000000E+00 0. -1.
         22    1    1    2    0    0  0.10443746876E+02  0.12826543093E+01  0.59615318502E+02  0.60536792539E+02  0.00000000000E+00 0.  1.
         22    1    1    2    0    0 -0.39748129758E+02 -0.81694668082E+01 -0.57171803295E+02  0.70108980161E+02  0.00000000000E+00 0.  1.
</event>
<event>
 6    1  0.2144783E-005  0.1562715E+03  0.7818608E-02  0.1303997E+00
          2   -1    0    0  502    0  0.00000000000E+00  0.00000000000E+00  0.46437514822E+03  0.46437514822E+03  0.00000000000E+00 0. -1.
          1   -1    0    0  501    0 -0.00000000000E+00 -0.00000000000E+00 -0.27947905298E+03  0.27947905298E+03  0.00000000000E+00 0. -1.
          2    1    1    2  501    0 -0.12537565745E+03  0.75736108003E+02  0.38598785497E+03  0.41284577959E+03  0.00000000000E+00 0. -1.
          1    1    1    2  502    0  0.95219770846E+02 -0.62831036581E+02 -0.15621165044E+03  0.19343377071E+03  0.00000000000E+00 0. -1.
         22    1    1    2    0    0  0.40313828818E+02  0.51992968963E+00 -0.84993885083E+02  0.94071438930E+02  0.00000000000E+00 0. -1.
         22    1    1    2    0    0 -0.10157942218E+02 -0.13425001112E+02  0.40113775780E+02  0.43503211977E+02  0.00000000000E+00 0. -1.
</event>
<event>
 6    1  0.2144783E-005  0.6355863E+02  0.7818608E-02  0.1456036E+00
          2   -1    0    0  502    0  0.00000000000E+00  0.00000000000E+00  0.80059756656E+02  0.80059756656E+02  0.00000000000E+00 0.  1.
          1   -1    0    0  501    0 -0.00000000000E+00 -0.00000000000E+00 -0.85374229726E+03  0.85374229726E+03  0.00000000000E+00 0. -1.
          2    1    1    2  501    0 -0.64381135739E+02 -0.30194156704E+02  0.34509186004E+02  0.79041139015E+02  0.00000000000E+00 0.  1.
          1    1    1    2  502    0  0.51968871697E+02 -0.25127766265E+02 -0.62006724359E+03  0.62274838807E+03  0.00000000000E+00 0. -1.
         22    1    1    2    0    0  0.25859349876E+02  0.44918662881E+02 -0.20294449156E+03  0.20945848969E+03  0.00000000000E+00 0.  1.
         22    1    1    2    0    0 -0.13447085834E+02  0.10403260088E+02  0.14820008546E+02  0.22554037137E+02  0.00000000000E+00 0. -1.
</event>
<event>
 6    1  0.2144783E-005  0.8992026E+02  0.7818608E-02  0.1401604E+00
          2   -1    0    0  502    0  0.00000000000E+00  0.00000000000E+00  0.15561378653E+03  0.15561378653E+03  0.00000000000E+00 0.  1.
          1   -1    0    0  501    0 -0.00000000000E+00 -0.00000000000E+00 -0.38791718334E+03  0.38791718334E+03  0.00000000000E+00 0.  1.
          2    1    1    2  501    0 -0.76501968717E+02  0.39515821154E+02  0.76016710353E+02  0.11485900745E+03  0.00000000000E+00 0.  1.
          1    1    1    2  502    0  0.50798008958E+02 -0.44643793903E+02 -0.29737283027E+03  0.30496574600E+03  0.00000000000E+00 0.  1.
         22    1    1    2    0    0  0.68784745809E+01  0.15317599550E+02  0.53354841003E+02  0.55934616536E+02  0.00000000000E+00 0.  1.
         22    1    1    2    0    0  0.18825485178E+02 -0.10189626801E+02 -0.64302117896E+02  0.67771599896E+02  0.00000000000E+00 0. -1.
</event>
<event>
 6    1  0.2144783E-005  0.4947201E+02  0.7818608E-02  0.1498733E+00
          2   -1    0    0  502    0  0.00000000000E+00  0.00000000000E+00  0.12692536854E+03  0.12692536854E+03  0.00000000000E+00 0. -1.
          1   -1    0    0  501    0 -0.00000000000E+00 -0.00000000000E+00 -0.28450569106E+03  0.28450569106E+03  0.00000000000E+00 0. -1.
          2    1    1    2  501    0  0.20707063689E+02 -0.56973544236E+01  0.17062756474E+01  0.21544226852E+02  0.00000000000E+00 0. -1.
          1    1    1    2  502    0 -0.31028960881E+02  0.41933839466E+01 -0.23756237935E+03  0.23961691294E+03  0.00000000000E+00 0. -1.
         22    1    1    2    0    0 -0.11305515695E+02 -0.90594410095E+01 -0.33201039021E+02  0.36224261878E+02  0.00000000000E+00 0. -1.
         22    1    1    2    0    0  0.21627412886E+02  0.10563411487E+02  0.11147682020E+03  0.11404565793E+03  0.00000000000E+00 0. -1.
</event>
<event>
 6    1  0.2144783E-005  0.1233387E+03  0.7818608E-02  0.1355293E+00
          2   -1    0    0  502    0  0.00000000000E+00  0.00000000000E+00  0.88990509996E+02  0.88990509996E+02  0.00000000000E+00 0. -1.
          1   -1    0    0  501    0 -0.00000000000E+00 -0.00000000000E+00 -0.63975611073E+03  0.63975611073E+03  0.00000000000E+00 0. -1.
          2    1    1    2  501    0 -0.87286352498E+02  0.87845288471E+02 -0.34132684907E+03  0.36309739731E+03  0.00000000000E+00 0. -1.
          1    1    1    2  502    0  0.80414469009E+02 -0.60271350461E+02 -0.21814908987E+03  0.24018357130E+03  0.00000000000E+00 0. -1.
         22    1    1    2    0    0  0.19596419045E+01 -0.14596909190E+02 -0.56709355386E+02  0.58590621627E+02  0.00000000000E+00 0. -1.
         22    1    1    2    0    0  0.49122415853E+01 -0.12977028820E+02  0.65419693585E+02  0.66875030491E+02  0.00000000000E+00 0. -1.
</event>
<event>
 6    1  0.2144783E-005  0.1360874E+03  0.7818608E-02  0.1356344E+00
          2   -1    0    0  502    0  0.00000000000E+00  0.00000000000E+00  0.30997798808E+03  0.30997798808E+03  0.00000000000E+00 0.  1.
          1   -1    0    0  501    0 -0.00000000000E+00 -0.00000000000E+00 -0.17381137988E+03  0.17381137988E+03  0.00000000000E+00 0. -1.
          2    1    1    2  501    0  0.69846340120E+02  0.12585436160E+02  0.25360244558E+03  0.26334597934E+03  0.00000000000E+00 0.  1.
          1    1    1    2  502    0  0.15728751490E+02 -0.15954197523E+02  0.79784298882E+01  0.23782039137E+02  0.00000000000E+00 0. -1.
         22    1    1    2    0    0 -0.85422407230E+02  0.13515581141E+02 -0.14827238599E+03  0.17165185416E+03  0.00000000000E+00 0. -1.
         22    1    1    2    0    0 -0.15268437969E+00 -0.10146819778E+02  0.22858118725E+02  0.25009495313E+02  0.00000000000E+00 0.  1.
</event>
<event>
 6    1  0.2144783E-005  0.4320072E+02  0.7818608E-02  0.1545517E+00
          2   -1    0    0  502    0  0.00000000000E+00  0.00000000000E+00  0.21237028015E+03  0.21237028015E+03  0.00000000000E+00 0.  1.
          1   -1    0    0  501    0 -0.00000000000E+00 -0.00000000000E+00 -0.87382749249E+02  0.87382749249E+02  0.00000000000E+00 0.  1.
          2    1    1    2  501    0  0.35190960622E+01 -0.32760927744E+02  0.14452982193E+03  0.14823809177E+03  0.00000000000E+00 0.  1.
          1    1    1    2  502    0  0.35312017872E+01  0.22163339893E+02 -0.19659284815E+02  0.29835725241E+02  0.00000000000E+00 0.  1.
         22    1    1    2    0    0 -0.79099723932E+01 -0.87505606501E+01  0.58754093988E+02  0.59926484423E+02  0.00000000000E+00 0.  1.
         22    1    1    2    0    0  0.85967454372E+00  0.19348148501E+02 -0.58637100205E+02  0.61752727965E+02  0.00000000000E+00 0.  1.
</event>
<event>
 6    1  0.2144783E-005  0.5609467E+02  0.7818608E-02  0.1482081E+00
          2   -1    0    0  502    0  0.00000000000E+00  0.00000000000E+00  0.65984809248E+02  0.65984809248E+02  0.00000000000E+00 0.  1.
          1   -1    0    0  501    0 -0.00000000000E+00 -0.00000000000E+00 -0.27133169054E+03  0.27133169054E+03  0.00000000000E+00 0. -1.
          2    1    1    2  501    0  0.18058174767E+02 -0.96029110217E+01  0.36347832487E+02  0.41707055788E+02  0.00000000000E+00 0.  1.
          1    1    1    2  502    0  0.17971009163E+02 -0.15095583456E+02 -0.86579261242E+02  0.89703970299E+02  0.00000000000E+00 0. -1.
         22    1    1    2    0    0 -0.45502369255E+01  0.20316676175E+02  0.19437216277E+02  0.28482931090E+02  0.00000000000E+00 0.  1.
         22    1    1    2    0    0 -0.31478947005E+02  0.43818183026E+01 -0.17455266882E+03  0.17742254261E+03  0.00000000000E+00 0. -1.
</event>
<event>
 6    1  0.2144783E-005  0.5677541E+02  0.7818608E-02  0.1429940E+00
          2   -1    0    0  502    0  0.00000000000E+00  0.00000000000E+00  0.13662290292E+03  0.13662290292E+03  0.00000000000E+00 0. -1.
          1   -1    0    0  501    0 -0.00000000000E+00 -0.00000000000E+00 -0.35685798279E+03  0.35685798279E+03  0.00000000000E+00 0. -1.
          2    1    1    2  501    0 -0.26560780156E+02  0.74872751412E+02  0.53948159617E+02  0.96030244573E+02  0.00000000000E+00 0. -1.
          1    1    1    2  502    0  0.78056843292E+02 -0.67850636982E+02 -0.23995705986E+03  0.26129670932E+03  0.00000000000E+00 0. -1.
         22    1    1    2    0    0 -0.19856913673E+02 -0.15172605942E+02 -0.77786639245E+02  0.81702302518E+02  0.00000000000E+00 0.  1.
         22    1    1    2    0    0 -0.31639149463E+02  0.81504915121E+01  0.43560459627E+02  0.54451629301E+02  0.00000000000E+00 0. -1.
</event>
<event>
 6    1  0.2144783E-005  0.5919753E+02  0.7818608E-02  0.1466081E+00
          2   -1    0    0  502    0  0.00000000000E+00  0.00000000000E+00  0.10900404239E+03  0.10900404239E+03  0.00000000000E+00 0.  1.
          1   -1    0    0  501    0 -0.00000000000E+00 -0.00000000000E+00 -0.13819229559E+03  0.13819229559E+03  0.00000000000E+00 0. -1.
          2    1    1    2  501    0  0.46708256597E+02  0.14386881512E+02 -0.35011552926E+02  0.60120316302E+02  0.00000000000E+00 0.  1.
          1    1    1    2  502    0 -0.24812901821E+02  0.20449392331E+02 -0.35404328994E+02  0.47825978871E+02  0.00000000000E+00 0. -1.
         22    1    1    2    0    0 -0.25008067308E+02 -0.12805626190E+02 -0.43425417766E+02  0.51721894790E+02  0.00000000000E+00 0. -1.
         22    1    1    2    0    0  0.31127125311E+01 -0.22030647653E+02  0.84653046485E+02  0.87528148013E+02  0.00000000000E+00 0.  1.
</event>
<event>
 6    1  0.2144783E-005  0.2073648E+03  0.7818608E-02  0.1163310E+00
          2   -1    0    0  502    0  0.00000000000E+00  0.00000000000E+00  0.49494322112E+02  0.49494322112E+02  0.00000000000E+00 0.  1.
          1   -1    0    0  501    0 -0.00000000000E+00 -0.00000000000E+00 -0.20083712917E+04  0.20083712917E+04  0.00000000000E+00 0.  1.
          2    1    1    2  501    0  0.14410926998E+03  0.50013307653E+02 -0.47845177828E+03  0.50218016367E+03  0.00000000000E+00 0.  1.
          1    1    1    2  502    0 -0.23679121187E+03  0.25472480422E+01 -0.12480807112E+04  0.12703472077E+04  0.00000000000E+00 0.  1.
         22    1    1    2    0    0 -0.18400540846E+02  0.16077145089E+02 -0.85085123786E+02  0.88524193231E+02  0.00000000000E+00 0.  1.
         22    1    1    2    0    0  0.11108248274E+03 -0.68637700784E+02 -0.14725935635E+03  0.19681404922E+03  0.00000000000E+00 0.  1.
</event>
<event>
 6    1  0.2144783E-005  0.1197491E+03  0.7818608E-02  0.1368779E+00
          2   -1    0    0  502    0  0.00000000000E+00  0.00000000000E+00  0.67125569024E+02  0.67125569024E+02  0.00000000000E+00 0.  1.
          1   -1    0    0  501    0 -0.00000000000E+00 -0.00000000000E+00 -0.14364171027E+04  0.14364171027E+04  0.00000000000E+00 0. -1.
          2    1    1    2  501    0  0.41335550396E+02 -0.10253156712E+03 -0.85433958081E+03  0.86146240157E+03  0.00000000000E+00 0.  1.
          1    1    1    2  502    0 -0.34716296104E+02  0.94665491057E+02 -0.50854077133E+03  0.51844044260E+03  0.00000000000E+00 0. -1.
         22    1    1    2    0    0  0.11927830526E+02  0.20032229362E+01  0.56505199858E+02  0.57785150810E+02  0.00000000000E+00 0.  1.
         22    1    1    2    0    0 -0.18547084817E+02  0.58628531295E+01 -0.62916381407E+02  0.65854676762E+02  0.00000000000E+00 0. -1.
</event>
<event>
 6    1  0.2144783E-005  0.4461698E+02  0.7818608E-02  0.1583222E+00
          2   -1    0    0  502    0  0.00000000000E+00  0.00000000000E+00  0.37175589009E+03  0.37175589009E+03  0.00000000000E+00 0.  1.
          1   -1    0    0  501    0 -0.00000000000E+00 -0.00000000000E+00 -0.12686628999E+03  0.12686628999E+03  0.00000000000E+00 0.  1.
          2    1    1    2  501    0  0.29023026593E+02 -0.23209205277E+02  0.31980091411E+03  0.32195283497E+03  0.00000000000E+00 0.  1.
          1    1    1    2  502    0 -0.18160066647E+02  0.13616592320E+02 -0.44191263381E+02  0.49679647405E+02  0.00000000000E+00 0.  1.
         22    1    1    2    0    0 -0.52726370859E+01  0.18984703634E+02 -0.76977169928E+02  0.79458821814E+02  0.00000000000E+00 0.  1.
         22    1    1    2    0    0 -0.55903228594E+01 -0.93920906766E+01  0.46257119305E+02  0.47530875895E+02  0.00000000000E+00 0.  1.
</event>
<event>
 6    1  0.2144783E-005  0.6351038E+02  0.7818608E-02  0.1432626E+00
          2   -1    0    0  502    0  0.00000000000E+00  0.00000000000E+00  0.20871743774E+03  0.20871743774E+03  0.00000000000E+00 0.  1.
          1   -1    0    0  501    0 -0.00000000000E+00 -0.00000000000E+00 -0.28805740716E+03  0.28805740716E+03  0.00000000000E+00 0. -1.
          2    1    1    2  501    0 -0.76102099244E+02 -0.24287188488E+02  0.77651123199E+02  0.11140508951E+03  0.00000000000E+00 0.  1.
          1    1    1    2  502    0  0.42710079003E+02  0.27904045019E+02 -0.23129217493E+03  0.23685197225E+03  0.00000000000E+00 0. -1.
         22    1    1    2    0    0  0.67362896260E+01  0.90491909747E+01 -0.34232460107E+02  0.36043401340E+02  0.00000000000E+00 0. -1.
         22    1    1    2    0    0  0.26655730615E+02 -0.12666047506E+02  0.10853354241E+03  0.11247438180E+03  0.00000000000E+00 0.  1.
</event>
<event>
 6    1  0.2144783E-005  0.1922003E+03  0.7818608E-02  0.1251778E+00
          2   -1    0    0  502    0  0.00000000000E+00  0.00000000000E+00  0.62051100809E+02  0.62051100809E+02  0.00000000000E+00 0. -1.
          1   -1    0    0  501    0 -0.00000000000E+00 -0.00000000000E+00 -0.51970930034E+03  0.51970930034E+03  0.00000000000E+00 0. -1.
          2    1    1    2  501    0 -0.10851596363E+03  0.72225320225E+02 -0.16162601368E+03  0.20764195034E+03  0.00000000000E+00 0. -1.
          1    1    1    2  502    0 -0.30127301810E+02 -0.13777710366E+02 -0.57266319105E+02  0.66158226406E+02  0.00000000000E+00 0. -1.
         22    1    1    2    0    0  0.14539583156E+03 -0.82037168869E+02 -0.22384405847E+03  0.27924220208E+03  0.00000000000E+00 0. -1.
         22    1    1    2    0    0 -0.67525661230E+01  0.23589559010E+02 -0.14921808274E+02  0.28718022315E+02  0.00000000000E+00 0.  1.
</event>
<event>
 6    1  0.2144783E-005  0.5941004E+02  0.7818608E-02  0.1432366E+00
          2   -1    0    0  502    0  0.00000000000E+00  0.00000000000E+00  0.40639181688E+02  0.40639181688E+02  0.00000000000E+00 0.  1.
          1   -1    0    0  501    0 -0.00000000000E+00 -0.00000000000E+00 -0.93264483498E+03  0.93264483498E+03  0.00000000000E+00 0.  1.
          2    1    1    2  501    0  0.10164946279E+03 -0.27050643121E+02 -0.63577258921E+03  0.64441534415E+03  0.00000000000E+00 0.  1.
          1    1    1    2  502    0 -0.67163105794E+02  0.18502085111E+02 -0.45628456982E+02  0.83277644179E+02  0.00000000000E+00 0.  1.
         22    1    1    2    0    0 -0.48697387372E+02 -0.17863960883E+02 -0.20923307312E+03  0.21556677741E+03  0.00000000000E+00 0.  1.
         22    1    1    2    0    0  0.14211030374E+02  0.26412518893E+02 -0.13715339773E+01  0.30024250932E+02  0.00000000000E+00 0.  1.
</event>
<event>
 6    1  0.2144783E-005  0.6882630E+02  0.7818608E-02  0.1379541E+00
          2   -1    0    0  502    0  0.00000000000E+00  0.00000000000E+00  0.41666687279E+03  0.41666687279E+03  0.00000000000E+00 0.  1.
          1   -1    0    0  501    0 -0.00000000000E+00 -0.00000000000E+00 -0.93196126148E+02  0.93196126148E+02  0.00000000000E+00 0. -1.
          2    1    1    2  501    0  0.97368206579E+02 -0.22493813426E+01  0.10852768198E+03  0.14582141518E+03  0.00000000000E+00 0.  1.
          1    1    1    2  502    0 -0.30546671230E+02  0.22789593369E+02 -0.49214640421E+02  0.62245847419E+02  0.00000000000E+00 0. -1.
         22    1    1    2    0    0 -0.97857395030E+01  0.10835046371E+02 -0.11481765927E+02  0.18573903097E+02  0.00000000000E+00 0. -1.
         22    1    1    2    0    0 -0.57035795845E+02 -0.31375258397E+02  0.27563947101E+03  0.28322183324E+03  0.00000000000E+00 0. -1.
</event>
<event>
 6    1  0.2144783E-005  0.3343417E+02  0.7818608E-02  0.1608851E+00
          2   -1    0    0  502    0  0.00000000000E+00  0.00000000000E+00  0.13007941758E+03  0.13007941758E+03  0.00000000000E+00 0.  1.
          1   -1    0    0  501    0 -0.00000000000E+00 -0.00000000000E+00 -0.16722508921E+03  0.16722508921E+03  0.00000000000E+00 0. -1.
          2    1    1    2  501    0 -0.26990064920E+02 -0.17579612682E+02  0.31852835990E+02  0.45300215751E+02  0.00000000000E+00 0.  1.
          1    1    1    2  502    0  0.26704587453E+02  0.31289576540E+02 -0.10821653276E+03  0.11577128553E+03  0.00000000000E+00 0. -1.
         22    1    1    2    0    0  0.10954385252E+02 -0.24397871377E+02  0.84430562474E+02  0.88565086596E+02  0.00000000000E+00 0. -1.
         22    1    1    2    0    0 -0.10668907785E+02  0.10687907520E+02 -0.45212537335E+02  0.47667918905E+02  0.00000000000E+00 0. -1.
</event>
<event>
 6    1  0.2144783E-005  0.1199804E+03  0.7818608E-02  0.1244437E+00
          2   -1    0    0  502    0  0.00000000000E+00  0.00000000000E+00  0.44445730031E+03  0.44445730031E+03  0.00000000000E+00 0.  1.
          1   -1    0    0  501    0 -0.00000000000E+00 -0.00000000000E+00 -0.50039626535E+02  0.50039626535E+02  0.00000000000E+00 0.  1.
          2    1    1    2  501    0 -0.75862705710E+02 -0.53264962984E+02  0.26216437457E+03  0.27806917429E+03  0.00000000000E+00 0.  1.
          1    1    1    2  502    0  0.13803333843E+02  0.28778844755E+02  0.18441463211E+02  0.36862467308E+02  0.00000000000E+00 0.  1.
         22    1    1    2    0    0 -0.23244229793E+02  0.48430102404E+01  0.83688005575E+02  0.86990983694E+02  0.00000000000E+00 0. -1.
         22    1    1    2    0    0  0.85303601660E+02  0.19643107988E+02  0.30123830417E+02  0.92574301545E+02  0.00000000000E+00 0.  1.
</event>
<event>
 6    1  0.2144783E-005  0.4541547E+02  0.7818608E-02  0.1518241E+00
          2   -1    0    0  502    0  0.00000000000E+00  0.00000000000E+00  0.14129703693E+03  0.14129703693E+03  0.00000000000E+00 0. -1.
          1   -1    0    0  501    0 -0.00000000000E+00 -0.00000000000E+00 -0.16234455027E+03  0.16234455027E+03  0.00000000000E+00 0.  1.
          2    1    1    2  501    0 -0.17944562974E+02  0.51549747918E+02  0.54306388291E+02  0.76997192546E+02  0.00000000000E+00 0. -1.
          1    1    1    2  502    0  0.24882730737E+02 -0.17623092236E+02 -0.94195275598E+02  0.99007442214E+02  0.00000000000E+00 0.  1.
         22    1    1    2    0    0  0.54068830344E+01 -0.13497731705E+02 -0.51417645838E+02  0.53434047656E+02  0.00000000000E+00 0.  1.
         22    1    1    2    0    0 -0.12345050797E+02 -0.20428923978E+02  0.70259019804E+02  0.74202904781E+02  0.00000000000E+00 0. -1.
</event>
<event>
 6    1  0.2144783E-005  0.1844821E+03  0.7818608E-02  0.1249982E+00
          2   -1    0    0  502    0  0.00000000000E+00  0.00000000000E+00  0.87528457372E+03  0.87528457372E+03  0.00000000000E+00 0. -1.
          1   -1    0    0  501    0 -0.00000000000E+00 -0.00000000000E+00 -0.49743910317E+02  0.49743910317E+02  0.00000000000E+00 0. -1.
          2    1    1    2  501    0  0.15003702794E+03 -0.67089489050E+02  0.22900171880E+03  0.28187567562E+03  0.00000000000E+00 0. -1.
          1    1    1    2  502    0 -0.67825902036E+02  0.48004746777E+02  0.25909350270E+03  0.27209235903E+03  0.00000000000E+00 0. -1.
         22    1    1    2    0    0 -0.10083878960E+03  0.40996868122E+02  0.17502901164E+03  0.20611734425E+03  0.00000000000E+00 0. -1.
         22    1    1    2    0    0  0.18627663702E+02 -0.21912125849E+02  0.16241643027E+03  0.16494310515E+03  0.00000000000E+00 0.  1.
</event>
<event>
 6    1  0.2144783E-005  0.5373468E+02  0.7818608E-02  0.1497795E+00
          2   -1    0    0  502    0  0.00000000000E+00  0.00000000000E+00  0.31467025062E+03  0.31467025062E+03  0.00000000000E+00 0.  1.
          1   -1    0    0  501    0 -0.00000000000E+00 -0.00000000000E+00 -0.69662851440E+02  0.69662851440E+02  0.00000000000E+00 0. -1.
          2    1    1    2  501    0 -0.34381018714E+02  0.43009631970E+01  0.21210702045E+03  0.21491845164E+03  0.00000000000E+00 0.  1.
          1    1    1    2  502    0  0.35339118383E+02 -0.42594110407E+01 -0.10445144124E+02  0.37095780167E+02  0.00000000000E+00 0. -1.
         22    1    1    2    0    0 -0.18469873512E+02 -0.74845201296E+01  0.84585188921E+02  0.86901141844E+02  0.00000000000E+00 0.  1.
         22    1    1    2    0    0  0.17511773844E+02  0.74429679733E+01 -0.41239666072E+02  0.45417728401E+02  0.00000000000E+00 0. -1.
</event>
<event>
 6    1  0.2144783E-005  0.8078628E+02  0.7818608E-02  0.1359483E+00
          2   -1    0    0  502    0  0.00000000000E+00  0.00000000000E+00  0.60123176145E+02  0.60123176145E+02  0.00000000000E+00 0.  1.
          1   -1    0    0  501    0 -0.00000000000E+00 -0.00000000000E+00 -0.28816061125E+03  0.28816061125E+03  0.00000000000E+00 0.  1.
          2    1    1    2  501    0  0.42834272209E+02 -0.73903014737E+02 -0.12432050355E+03  0.15083772096E+03  0.00000000000E+00 0.  1.
          1    1    1    2  502    0 -0.26564557947E+02  0.12289498809E+02 -0.30171894606E+02  0.42036302692E+02  0.00000000000E+00 0.  1.
         22    1    1    2    0    0  0.26561036734E+02  0.37566947045E+02  0.19676405971E+02  0.50039235951E+02  0.00000000000E+00 0.  1.
         22    1    1    2    0    0 -0.42830750996E+02  0.24046568883E+02 -0.93221442929E+02  0.10537052779E+03  0.00000000000E+00 0.  1.
</event>
<event>
 6    1  0.2144783E-005  0.1004983E+03  0.7818608E-02  0.1391703E+00
          2   -1    0    0  502    0  0.00000000000E+00  0.00000000000E+00  0.45453130333E+03  0.45453130333E+03  0.00000000000E+00 0. -1.
          1   -1    0    0  501    0 -0.00000000000E+00 -0.00000000000E+00 -0.10499445661E+03  0.10499445661E+03  0.00000000000E+00 0.  1.
          2    1    1    2  501    0 -0.31917988617E+01 -0.72350917171E+02  0.36105764774E+03  0.36824919251E+03  0.00000000000E+00 0. -1.
          1    1    1    2  502    0 -0.30704506341E+02  0.35444390924E+02 -0.27843972820E+02  0.54537678536E+02  0.00000000000E+00 0.  1.
         22    1    1    2    0    0  0.24632142661E+02  0.47509445289E+02 -0.47393847986E+02  0.71484730332E+02  0.00000000000E+00 0.  1.
         22    1    1    2    0    0  0.92641625425E+01 -0.10602919043E+02  0.63717019783E+02  0.65254158564E+02  0.00000000000E+00 0. -1.
</event>
<event>
 6    1  0.2144783E-005  0.1598523E+03  0.7818608E-02  0.1248486E+00
          2   -1    0    0  502    0  0.00000000000E+00  0.00000000000E+00  0.19132304583E+04  0.19132304583E+04  0.00000000000E+00 0.  1.
          1   -1    0    0  501    0 -0.00000000000E+00 -0.00000000000E+00 -0.25058942891E+02  0.25058942891E+02  0.00000000000E+00 0. -1.
          2    1    1    2  501    0 -0.28677238162E+02  0.10954748359E+03  0.13621946295E+04  0.13668932818E+04  0.00000000000E+00 0.  1.
          1    1    1    2  502    0 -0.45613420242E+01 -0.36327627788E+02  0.27872212933E+03  0.28111657326E+03  0.00000000000E+00 0. -1.
         22    1    1    2    0    0  0.20290143469E+02 -0.40781329475E+02  0.25104798723E+03  0.25514681783E+03  0.00000000000E+00 0.  1.
         22    1    1    2    0    0  0.12948436717E+02 -0.32438526329E+02 -0.37932306072E+01  0.35132728364E+02  0.00000000000E+00 0. -1.
</event>
<event>
 6    1  0.2144783E-005  0.2096060E+03  0.7818608E-02  0.1142429E+00
          2   -1    0    0  502    0  0.00000000000E+00  0.00000000000E+00  0.76399357506E+03  0.76399357506E+03  0.00000000000E+00 0. -1.
          1   -1    0    0  501    0 -0.00000000000E+00 -0.00000000000E+00 -0.67939515394E+03  0.67939515394E+03  0.00000000000E+00 0.  1.
          2    1    1    2  501    0  0.20453676847E+02 -0.19623751613E+03  0.67277919970E+03  0.70111294895E+03  0.00000000000E+00 0. -1.
          1    1    1    2  502    0 -0.35485786442E+02  0.18210315241E+03 -0.58624968704E+03  0.61490608609E+03  0.00000000000E+00 0.  1.
         22    1    1    2    0    0  0.57437744398E+01  0.20482425100E+02 -0.62367237714E+02  0.65895318672E+02  0.00000000000E+00 0.  1.
         22    1    1    2    0    0  0.92883351550E+01 -0.63480613818E+01  0.60436146170E+02  0.61474375289E+02  0.00000000000E+00 0.  1.
</event>
<event>
 6    1  0.2144783E-005  0.7987031E+02  0.7818608E-02  0.1386880E+00
          2   -1    0    0  502    0  0.00000000000E+00  0.00000000000E+00  0.12736624506E+03  0.12736624506E+03  0.00000000000E+00 0. -1.
          1   -1    0    0  501    0 -0.00000000000E+00 -0.00000000000E+00 -0.19525514075E+03  0.19525514075E+03  0.00000000000E+00 0. -1.
          2    1    1    2  501    0 -0.21168260177E+02 -0.60786402624E+02  0.75245933256E+02  0.99020363837E+02  0.00000000000E+00 0. -1.
          1    1    1    2  502    0 -0.23038534349E+02  0.19194466235E+02 -0.29334932497E+02  0.41949253433E+02  0.00000000000E+00 0. -1.
         22    1    1    2    0    0  0.14328098028E+02  0.36481267250E+02 -0.13762468201E+03  0.14309692642E+03  0.00000000000E+00 0. -1.
         22    1    1    2    0    0  0.29878696498E+02  0.51106691389E+01  0.23824785563E+02  0.38554842116E+02  0.00000000000E+00 0. -1.
</event>
<event>
 6    1  0.2144783E-005  0.6397975E+03  0.7818608E-02  0.1060650E+00
          2   -1    0    0  502    0  0.00000000000E+00  0.00000000000E+00  0.11375031179E+04  0.11375031179E+04  0.00000000000E+00 0. -1.
          1   -1    0    0  501    0 -0.00000000000E+00 -0.00000000000E+00 -0.49081581677E+03  0.49081581677E+03  0.00000000000E+00 0.  1.
          2    1    1    2  501    0 -0.31791789988E+03  0.20765361994E+03  0.82535688830E+03  0.90851846982E+03  0.00000000000E+00 0. -1.
          1    1    1    2  502    0  0.25061173329E+03 -0.34248573799E+03  0.42378172309E+02  0.42649575740E+03  0.00000000000E+00 0.  1.
         22    1    1    2    0    0  0.11970391247E+02  0.11030645017E+03 -0.20091642754E+03  0.22951735026E+03  0.00000000000E+00 0.  1.
         22    1    1    2    0    0  0.55335775350E+02  0.24525667888E+02 -0.20131331911E+02  0.63787357238E+02  0.00000000000E+00 0. -1.
</event>
<event>
 6    1  0.2144783E-005  0.6367498E+02  0.7818608E-02  0.1498572E+00
          2   -1    0    0  502    0  0.00000000000E+00  0.00000000000E+00  0.10931067358E+03  0.10931067358E+03  0.00000000000E+00 0.  1.
          1   -1    0    0  501    0 -0.00000000000E+00 -0.00000000000E+00 -0.17034139979E+03  0.17034139979E+03  0.00000000000E+00 0. -1.
          2    1    1    2  501    0  0.26991138765E+02 -0.54148650894E+02  0.58756211159E+02  0.84337952994E+02  0.00000000000E+00 0.  1.
          1    1    1    2  502    0 -0.18938590136E+02  0.14070969205E+02 -0.30727365584E+02  0.38740590683E+02  0.00000000000E+00 0. -1.
         22    1    1    2    0    0 -0.14786125568E+02  0.30986114642E+02 -0.11937585873E+03  0.12421499288E+03  0.00000000000E+00 0. -1.
         22    1    1    2    0    0  0.67335769389E+01  0.90915670477E+01  0.30316286954E+02  0.32358536809E+02  0.00000000000E+00 0. -1.
</event>
<event>
 6    1  0.2144783E-005  0.4277085E+03  0.7818608E-02  0.1088582E+00
          2   -1    0    0  502    0  0.00000000000E+00  0.00000000000E+00  0.21814925071E+03  0.21814925071E+03  0.00000000000E+00 0. -1.
          1   -1    0    0  501    0 -0.00000000000E+00 -0.00000000000E+00 -0.19287350840E+04  0.19287350840E+04  0.00000000000E+00 0. -1.
          2    1    1    2  501    0  0.32913063733E+03  0.25411457592E+03 -0.66946536159E+02  0.42116865129E+03  0.00000000000E+00 0. -1.
          1    1    1    2  502    0 -0.16986032761E+03 -0.18068342960E+03 -0.46268964182E+03  0.52495784333E+03  0.00000000000E+00 0. -1.
         22    1    1    2    0    0 -0.37763039553E+02 -0.86870632878E+02 -0.48823675849E+03  0.49734061402E+03  0.00000000000E+00 0.  1.
         22    1    1    2    0    0 -0.12150727017E+03  0.13439486559E+02 -0.69271289678E+03  0.70341722603E+03  0.00000000000E+00 0.  1.
</event>
<event>
 6    1  0.2144783E-005  0.5164078E+02  0.7818608E-02  0.1497597E+00
          2   -1    0    0  502    0  0.00000000000E+00  0.00000000000E+00  0.10876011104E+03  0.10876011104E+03  0.00000000000E+00 0.  1.
          1   -1    0    0  501    0 -0.00000000000E+00 -0.00000000000E+00 -0.14314812063E+03  0.14314812063E+03  0.00000000000E+00 0.  1.
          2    1    1    2  501    0 -0.24244291799E+02  0.11809292811E+00  0.79365237937E+01  0.25510547636E+02  0.00000000000E+00 0.  1.
          1    1    1    2  502    0  0.57130472119E+02 -0.31720531334E+02 -0.66324306004E+02  0.93107446102E+02  0.00000000000E+00 0.  1.
         22    1    1    2    0    0 -0.15728676214E+02  0.44552534874E+02 -0.42409062049E+02  0.63488960954E+02  0.00000000000E+00 0.  1.
         22    1    1    2    0    0 -0.17157504106E+02 -0.12950096469E+02  0.66408834670E+02  0.69801276980E+02  0.00000000000E+00 0.  1.
</event>
<event>
 6    1  0.2144783E-005  0.3625844E+02  0.7818608E-02  0.1623695E+00
          2   -1    0    0  502    0  0.00000000000E+00  0.00000000000E+00  0.31119690635E+02  0.31119690635E+02  0.00000000000E+00 0. -1.
          1   -1    0    0  501    0 -0.00000000000E+00 -0.00000000000E+00 -0.13696530764E+04  0.13696530764E+04  0.00000000000E+00 0. -1.
          2    1    1    2  501    0  0.29144765968E+02 -0.20226758818E+02 -0.84248303135E+03  0.84322962309E+03  0.00000000000E+00 0. -1.
          1    1    1    2  502    0 -0.27481251643E+02 -0.29476023482E+02 -0.36293743193E+03  0.36516795402E+03  0.00000000000E+00 0. -1.
         22    1    1    2    0    0  0.54743491992E+01  0.11281963006E+02  0.25822373682E+02  0.28706204399E+02  0.00000000000E+00 0. -1.
         22    1    1    2    0    0 -0.71378635239E+01  0.38420819294E+02 -0.15893529614E+03  0.16366898549E+03  0.00000000000E+00 0. -1.
</event>
<event>
 6    1  0.2144783E-005  0.1148493E+03  0.7818608E-02  0.1342669E+00
          2   -1    0    0  502    0  0.00000000000E+00  0.00000000000E+00  0.51784172087E+03  0.51784172087E+03  0.00000000000E+00 0.  1.
          1   -1    0    0  501    0 -0.00000000000E+00 -0.00000000000E+00 -0.73920783205E+02  0.73920783205E+02  0.00000000000E+00 0. -1.
          2    1    1    2  501    0 -0.13358859149E+01  0.60543090805E+02  0.41650433224E+03  0.42088372410E+03  0.00000000000E+00 0.  1.
          1    1    1    2  502    0 -0.22522774371E+02  0.24241403140E+01  0.21935396562E+02  0.31532736069E+02  0.00000000000E+00 0. -1.
         22    1    1    2    0    0  0.17987123851E+02  0.11452686120E+02  0.48645619985E+02  0.53113999920E+02  0.00000000000E+00 0.  1.
         22    1    1    2    0    0  0.58715364359E+01 -0.74419917239E+02 -0.43164411126E+02  0.86232043985E+02  0.00000000000E+00 0. -1.
</event>
<event>
 6    1  0.2144783E-005  0.1267840E+03  0.7818608E-02  0.1360208E+00
          2   -1    0    0  502    0  0.00000000000E+00  0.00000000000E+00  0.69165386289E+02  0.69165386289E+02  0.00000000000E+00 0. -1.
          1   -1    0    0  501    0 -0.00000000000E+00 -0.00000000000E+00 -0.35506026587E+03  0.35506026587E+03  0.00000000000E+00 0. -1.
          2    1    1    2  501    0 -0.74835218653E+02 -0.13177634077E+02 -0.15220325545E+03  0.17011699198E+03  0.00000000000E+00 0. -1.
          1    1    1    2  502    0  0.21350918548E+02  0.51828756051E+02 -0.87381138704E+02  0.10381495594E+03  0.00000000000E+00 0. -1.
         22    1    1    2    0    0  0.65800686169E+01  0.97453046177E+01  0.39481406604E+02  0.41195263472E+02  0.00000000000E+00 0. -1.
         22    1    1    2    0    0  0.46904231487E+02 -0.48396426591E+02 -0.85791892026E+02  0.10909844076E+03  0.00000000000E+00 0. -1.
</event>
<event>
 6    1  0.2144783E-005  0.1675267E+03  0.7818608E-02  0.1262660E+00
          2   -1    0    0  502    0  0.00000000000E+00  0.00000000000E+00  0.37675141080E+02  0.37675141080E+02  0.00000000000E+00 0.  1.
          1   -1    0    0  501    0 -0.00000000000E+00 -0.00000000000E+00 -0.86379208663E+03  0.86379208663E+03  0.00000000000E+00 0.  1.
          2    1    1    2  501    0 -0.78736103312E+02  0.10346225521E+03 -0.20216806569E+03  0.24036584409E+03  0.00000000000E+00 0.  1.
          1    1    1    2  502    0  0.39776961156E+02 -0.22299133809E+02 -0.59266659086E+02  0.74779642194E+02  0.00000000000E+00 0.  1.
         22    1    1    2    0    0  0.66880862075E+02 -0.70496679070E+02 -0.53653871796E+03  0.54526748238E+03  0.00000000000E+00 0.  1.
         22    1    1    2    0    0 -0.27921719919E+02 -0.10666442332E+02 -0.28143502806E+02  0.41054259042E+02  0.00000000000E+00 0. -1.
</event>
<event>
 6    1  0.2144783E-005  0.4281500E+02  0.7818608E-02  0.1522124E+00
          2   -1    0    0  502    0  0.00000000000E+00  0.00000000000E+00  0.12792866995E+03  0.12792866995E+03  0.00000000000E+00 0. -1.
          1   -1    0    0  501    0 -0.00000000000E+00 -0.00000000000E+00 -0.99307311203E+02  0.99307311203E+02  0.00000000000E+00 0. -1.
          2    1    1    2  501    0  0.94107740070E+01  0.17756549214E+02 -0.12781810007E+02  0.23816640704E+02  0.00000000000E+00 0. -1.
          1    1    1    2  502    0  0.21383640162E+02 -0.67933161836E+01 -0.45072166175E+02  0.50347883521E+02  0.00000000000E+00 0. -1.
         22    1    1    2    0    0 -0.72969147725E+01 -0.24357070335E+02 -0.26605134397E+02  0.36801426831E+02  0.00000000000E+00 0.  1.
         22    1    1    2    0    0 -0.23497499397E+02  0.13393837304E+02  0.11308046932E+03  0.11627003009E+03  0.00000000000E+00 0. -1.
</event>
<event>
 6    1  0.2144783E-005  0.6147554E+02  0.7818608E-02  0.1497532E+00
          2   -1    0    0  502    0  0.00000000000E+00  0.00000000000E+00  0.38155124369E+03  0.38155124369E+03  0.00000000000E+00 0.  1.
          1   -1    0    0  501    0 -0.00000000000E+00 -0.00000000000E+00 -0.35867536712E+03  0.35867536712E+03  0.00000000000E+00 0. -1.
          2    1    1    2  501    0  0.21237804140E+01  0.53687081282E+02  0.30846949291E+03  0.31311378314E+03  0.00000000000E+00 0.  1.
          1    1    1    2  502    0  0.10586253683E+02 -0.46451322140E+02 -0.29692291289E+03  0.30072081786E+03  0.00000000000E+00 0. -1.
         22    1    1    2    0    0 -0.11323926071E+02  0.58664249419E+01  0.67501320943E+02  0.68695520759E+02  0.00000000000E+00 0. -1.
         22    1    1    2    0    0 -0.13861080255E+01 -0.13102184084E+02 -0.56172024390E+02  0.57696489038E+02  0.00000000000E+00 0. -1.
</event>
<event>
 6    1  0.2144783E-005  0.3800451E+02  0.7818608E-02  0.1539707E+00
          2   -1    0    0  502    0  0.00000000000E+00  0.00000000000E+00  0.11227854248E+03  0.11227854248E+03  0.00000000000E+00 0. -1.
          1   -1    0    0  501    0 -0.00000000000E+00 -0.00000000000E+00 -0.22891137890E+03  0.22891137890E+03  0.00000000000E+00 0. -1.
          2    1    1    2  501    0 -0.15151301034E+02  0.26175989648E+02 -0.43510912890E+02  0.52990035833E+02  0.00000000000E+00 0. -1.
          1    1    1    2  502    0 -0.52389283369E+01 -0.20778530050E+02 -0.14313623953E+03  0.14473139517E+03  0.00000000000E+00 0. -1.
         22    1    1    2    0    0 -0.95628700235E+01 -0.12008900685E+02 -0.32779243387E+02  0.36195869596E+02  0.00000000000E+00 0. -1.
         22    1    1    2    0    0  0.29953099394E+02  0.66114410876E+01  0.10279355939E+03  0.10727262078E+03  0.00000000000E+00 0. -1.
</event>
<event>
 6    1  0.2144783E-005  0.6279198E+02  0.7818608E-02  0.1434937E+00
          2   -1    0    0  502    0  0.00000000000E+00  0.00000000000E+00  0.18519662236E+03  0.18519662236E+03  0.00000000000E+00 0. -1.
          1   -1    0    0  501    0 -0.00000000000E+00 -0.00000000000E+00 -0.21101857823E+03  0.21101857823E+03  0.00000000000E+00 0. -1.
          2    1    1    2  501    0 -0.82918957942E+02 -0.10144517027E+03  0.36076871864E+01  0.13107132243E+03  0.00000000000E+00 0. -1.
          1    1    1    2  502    0  0.46400152658E+02  0.81823143980E+02 -0.77894004930E+02  0.12212893622E+03  0.00000000000E+00 0. -1.
         22    1    1    2    0    0  0.35891094380E+02  0.27098162546E+01  0.90664477396E+02  0.97547738167E+02  0.00000000000E+00 0. -1.
         22    1    1    2    0    0  0.62771090420E+00  0.16912210038E+02 -0.42200115519E+02  0.45467203776E+02  0.00000000000E+00 0. -1.
</event>
<event>
 6    1  0.2144783E-005  0.1253558E+03  0.7818608E-02  0.1235410E+00
          2   -1    0    0  502    0  0.00000000000E+00  0.00000000000E+00  0.65447003939E+03  0.65447003939E+03  0.00000000000E+00 0.  1.
          1   -1    0    0  501    0 -0.00000000000E+00 -0.00000000000E+00 -0.46125254316E+02  0.46125254316E+02  0.00000000000E+00 0.  1.
          2    1    1    2  501    0 -0.74030971430E+02 -0.55454161970E+01  0.27304934011E+03  0.28296162020E+03  0.00000000000E+00 0.  1.
          1    1    1    2  502    0  0.92704419699E+02  0.22607924876E+02  0.53241755751E+02  0.10926990553E+03  0.00000000000E+00 0.  1.
         22    1    1    2    0    0 -0.44982768620E+02 -0.17701386346E+02  0.27747134074E+03  0.28165072960E+03  0.00000000000E+00 0.  1.
         22    1    1    2    0    0  0.26309320351E+02  0.63887766671E+00  0.45823484748E+01  0.26713038381E+02  0.00000000000E+00 0. -1.
</event>
<event>
 6    1  0.2144783E-005  0.4162801E+02  0.7818608E-02  0.1529218E+00
          2   -1    0    0  502    0  0.00000000000E+00  0.00000000000E+00  0.12257000548E+03  0.12257000548E+03  0.00000000000E+00 0.  1.
          1   -1    0    0  501    0 -0.00000000000E+00 -0.00000000000E+00 -0.76671857888E+02  0.76671857888E+02  0.00000000000E+00 0.  1.
          2    1    1    2  501    0 -0.16458050395E+02 -0.13309457392E+02  0.90975261288E+01  0.23038534253E+02  0.00000000000E+00 0.  1.
          1    1    1    2  502    0  0.18793533584E+02  0.25067986892E+02 -0.24141513785E+02  0.39552668168E+02  0.00000000000E+00 0.  1.
         22    1    1    2    0    0 -0.11204592241E+02 -0.24326999530E+02  0.95307624985E+02  0.98999440270E+02  0.00000000000E+00 0.  1.
         22    1    1    2    0    0  0.88691090518E+01  0.12568470031E+02 -0.34365489732E+02  0.37651220682E+02  0.00000000000E+00 0.  1.
</event>
<event>
 6    1  0.2144783E-005  0.1368832E+03  0.7818608E-02  0.1245857E+00
          2   -1    0    0  502    0  0.00000000000E+00  0.00000000000E+00  0.24667245093E+03  0.24667245093E+03  0.00000000000E+00 0.  1.
          1   -1    0    0  501    0 -0.00000000000E+00 -0.00000000000E+00 -0.24469060280E+03  0.24469060280E+03  0.00000000000E+00 0.  1.
          2    1    1    2  501    0 -0.88299882768E+02 -0.56816226472E+02  0.11266757705E+03  0.15400953154E+03  0.00000000000E+00 0.  1.
          1    1    1    2  502    0  0.56128080489E+02  0.13276969456E+03 -0.12297434733E+03  0.18947517862E+03  0.00000000000E+00 0.  1.
         22    1    1    2    0    0  0.54720304386E+02 -0.53422184675E+02 -0.40254976210E+02  0.86421667637E+02  0.00000000000E+00 0.  1.
         22    1    1    2    0    0 -0.22548502107E+02 -0.22531283412E+02  0.52543594622E+02  0.61456675921E+02  0.00000000000E+00 0.  1.
</event>
<event>
 6    1  0.2144783E-005  0.1221043E+03  0.7818608E-02  0.1369088E+00
          2   -1    0    0  502    0  0.00000000000E+00  0.00000000000E+00  0.49103182081E+02  0.49103182081E+02  0.00000000000E+00 0.  1.
          1   -1    0    0  501    0 -0.00000000000E+00 -0.00000000000E+00 -0.47165253050E+03  0.47165253050E+03  0.00000000000E+00 0.  1.
          2    1    1    2  501    0  0.73164653510E+02  0.82778309020E+02 -0.24879485439E+03  0.27222085618E+03  0.00000000000E+00 0.  1.
          1    1    1    2  502    0 -0.85582370860E+01 -0.18535199699E+02 -0.47895920480E+01  0.20969912778E+02  0.00000000000E+00 0.  1.
         22    1    1    2    0    0 -0.54863112953E+02 -0.58421417744E+02 -0.18857957280E+03  0.20490309536E+03  0.00000000000E+00 0.  1.
         22    1    1    2    0    0 -0.97433034712E+01 -0.58216915763E+01  0.19614670816E+02  0.22661848260E+02  0.00000000000E+00 0.  1.
</event>
<event>
 6    1  0.2144783E-005  0.1962147E+03  0.7818608E-02  0.1276008E+00
          2   -1    0    0  502    0  0.00000000000E+00  0.00000000000E+00  0.50748778608E+03  0.50748778608E+03  0.00000000000E+00 0.  1.
          1   -1    0    0  501    0 -0.00000000000E+00 -0.00000000000E+00 -0.69316230378E+02  0.69316230378E+02  0.00000000000E+00 0.  1.
          2    1    1    2  501    0  0.14203386774E+02  0.14042636339E+03  0.14336278184E+03  0.20118197471E+03  0.00000000000E+00 0.  1.
          1    1    1    2  502    0 -0.22464101957E+02 -0.15499155896E+02  0.13002857029E+03  0.13286191630E+03  0.00000000000E+00 0.  1.
         22    1    1    2    0    0 -0.38660308060E+00  0.14361387192E+02  0.76025963158E+02  0.77371480392E+02  0.00000000000E+00 0. -1.
         22    1    1    2    0    0  0.86473182642E+01 -0.13928859469E+03  0.88754240409E+02  0.16538864506E+03  0.00000000000E+00 0.  1.
</event>
<event>
 6    1  0.2144783E-005  0.4639747E+02  0.7818608E-02  0.1518379E+00
          2   -1    0    0  502    0  0.00000000000E+00  0.00000000000E+00  0.61235074774E+02  0.61235074774E+02  0.00000000000E+00 0. -1.
          1   -1    0    0  501    0 -0.00000000000E+00 -0.00000000000E+00 -0.14169194467E+03  0.14169194467E+03  0.00000000000E+00 0. -1.
          2    1    1    2  501    0  0.19573784480E+02  0.26283107544E+02 -0.37434999286E+02  0.49752527097E+02  0.00000000000E+00 0. -1.
          1    1    1    2  502    0 -0.16460780844E+02 -0.11688646531E+02 -0.18965661981E+02  0.27699785163E+02  0.00000000000E+00 0. -1.
         22    1    1    2    0    0 -0.15707752594E+02 -0.33050960499E+02 -0.67409703145E+02  0.76701809363E+02  0.00000000000E+00 0. -1.
         22    1    1    2    0    0  0.12594748958E+02  0.18456499486E+02  0.43353494518E+02  0.48772897818E+02  0.00000000000E+00 0. -1.
</event>
<event>
 6    1  0.2144783E-005  0.8800996E+02  0.7818608E-02  0.1312594E+00
          2   -1    0    0  502    0  0.00000000000E+00  0.00000000000E+00  0.56595887060E+03  0.56595887060E+03  0.00000000000E+00 0.  1.
          1   -1    0    0  501    0 -0.00000000000E+00 -0.00000000000E+00 -0.14688992191E+03  0.14688992191E+03  0.00000000000E+00 0. -1.
          2    1    1    2  501    0 -0.97909100862E+01  0.56329556630E+02  0.37658553148E+03  0.38090096271E+03  0.00000000000E+00 0.  1.
          1    1    1    2  502    0  0.28888830609E+02 -0.64230323148E+02 -0.11326443662E+03  0.13337515341E+03  0.00000000000E+00 0. -1.
         22    1    1    2    0    0 -0.27491633917E+02  0.13510289951E+02  0.17455758513E+03  0.17722490907E+03  0.00000000000E+00 0.  1.
         22    1    1    2    0    0  0.83937133941E+01 -0.56095234334E+01 -0.18809731300E+02  0.21347767313E+02  0.00000000000E+00 0.  1.
</event>
<event>
 6    1  0.2144783E-005  0.4752803E+02  0.7818608E-02  0.1480311E+00
          2   -1    0    0  502    0  0.00000000000E+00  0.00000000000E+00  0.52484309229E+03  0.52484309229E+03  0.00000000000E+00 0.  1.
          1   -1    0    0  501    0 -0.00000000000E+00 -0.00000000000E+00 -0.14824793868E+03  0.14824793868E+03  0.00000000000E+00 0.  1.
          2    1    1    2  501    0 -0.58438509378E+02  0.29456853063E+02  0.34638059558E+03  0.35250855673E+03  0.00000000000E+00 0.  1.
          1    1    1    2  502    0  0.28639963906E+02 -0.63838947329E+02 -0.10649531870E+03  0.12742414070E+03  0.00000000000E+00 0.  1.
         22    1    1    2    0    0  0.21330031347E+02  0.58061171990E+01 -0.22287690309E+02  0.31391437901E+02  0.00000000000E+00 0.  1.
         22    1    1    2    0    0  0.84685141261E+01  0.28575977066E+02  0.15899756705E+03  0.16176689564E+03  0.00000000000E+00 0.  1.
</event>
<event>
 6    1  0.2144783E-005  0.6259145E+02  0.7818608E-02  0.1505329E+00
          2   -1    0    0  502    0  0.00000000000E+00  0.00000000000E+00  0.59796716540E+02  0.59796716540E+02  0.00000000000E+00 0.  1.
          1   -1    0    0  501    0 -0.00000000000E+00 -0.00000000000E+00 -0.27532261804E+03  0.27532261804E+03  0.00000000000E+00 0.  1.
          2    1    1    2  501    0  0.50793538186E+02  0.25210066917E+02  0.93476520276E+01  0.57470945650E+02  0.00000000000E+00 0.  1.
          1    1    1    2  502    0 -0.23023622368E+02 -0.16991190916E+02 -0.85989743230E+02  0.90625734184E+02  0.00000000000E+00 0.  1.
         22    1    1    2    0    0 -0.26811238065E+02 -0.19034185871E+02 -0.15996516081E+03  0.16330950796E+03  0.00000000000E+00 0.  1.
         22    1    1    2    0    0 -0.95867775374E+00  0.10815309871E+02  0.21081350516E+02  0.23713146780E+02  0.00000000000E+00 0. -1.
</event>
<event>
 6    1  0.2144783E-005  0.1167081E+03  0.7818608E-02  0.1261851E+00
          2   -1    0    0  502    0  0.00000000000E+00  0.00000000000E+00  0.87575786186E+03  0.87575786186E+03  0.00000000000E+00 0. -1.
          1   -1    0    0  501    0 -0.00000000000E+00 -0.00000000000E+00 -0.28384041356E+03  0.28384041356E+03  0.00000000000E+00 0.  1.
          2    1    1    2  501    0 -0.10136524621E+01 -0.11760919232E+03  0.82058105566E+03  0.82896695864E+03  0.00000000000E+00 0. -1.
          1    1    1    2  502    0  0.45095419769E+02  0.43778855396E+02 -0.71256443537E+01  0.63253141198E+02  0.00000000000E+00 0.  1.
         22    1    1    2    0    0 -0.70204099846E+02  0.67236939147E+02 -0.21985221858E+03  0.24038390053E+03  0.00000000000E+00 0.  1.
         22    1    1    2    0    0  0.26122332540E+02  0.65933977723E+01 -0.16857444252E+01  0.26994275055E+02  0.00000000000E+00 0.  1.
</event>
<event>
 6    1  0.2144783E-005  0.2541287E+03  0.7818608E-02  0.1224776E+00
          2   -1    0    0  502    0  0.00000000000E+00  0.00000000000E+00  0.82811852755E+03  0.82811852755E+03  0.00000000000E+00 0.  1.
          1   -1    0    0  501    0 -0.00000000000E+00 -0.00000000000E+00 -0.53329137238E+03  0.53329137238E+03  0.00000000000E+00 0. -1.
          2    1    1    2  501    0  0.35793806563E+03  0.34497892007E+02  0.54213440088E+03  0.65055320459E+03  0.00000000000E+00 0.  1.
          1    1    1    2  502    0 -0.31093718065E+03  0.15348713560E+03 -0.31514726684E+03  0.46857019848E+03  0.00000000000E+00 0. -1.
         22    1    1    2    0    0 -0.48377743968E+02 -0.17481375738E+03  0.86040399755E+01  0.18158823031E+03  0.00000000000E+00 0.  1.
         22    1    1    2    0    0  0.13768589898E+01 -0.13171270227E+02  0.59235981152E+02  0.60698266557E+02  0.00000000000E+00 0. -1.
</event>
<event>
 6    1  0.2144783E-005  0.1831513E+03  0.7818608E-02  0.1285734E+00
          2   -1    0    0  502    0  0.00000000000E+00  0.00000000000E+00  0.96106985766E+03  0.96106985766E+03  0.00000000000E+00 0.  1.
          1   -1    0    0  501    0 -0.00000000000E+00 -0.00000000000E+00 -0.25782477053E+03  0.25782477053E+03  0.00000000000E+00 0.  1.
          2    1    1    2  501    0 -0.18572767813E+03 -0.70760301606E+01  0.85939517521E+03  0.87926384425E+03  0.00000000000E+00 0.  1.
          1    1    1    2  502    0  0.14023137992E+03  0.55604373119E+01 -0.14521492929E+03  0.20194834504E+03  0.00000000000E+00 0.  1.
         22    1    1    2    0    0  0.69660281791E+01  0.12926270401E+02  0.56940567781E+02  0.58803420600E+02  0.00000000000E+00 0. -1.
         22    1    1    2    0    0  0.38530270038E+02 -0.11410677552E+02 -0.67875726568E+02  0.78879018303E+02  0.00000000000E+00 0. -1.
</event>
<event>
 6    1  0.2144783E-005  0.6128278E+02  0.7818608E-02  0.1427287E+00
          2   -1    0    0  502    0  0.00000000000E+00  0.00000000000E+00  0.69592379188E+02  0.69592379188E+02  0.00000000000E+00 0. -1.
          1   -1    0    0  501    0 -0.00000000000E+00 -0.00000000000E+00 -0.72401757864E+03  0.72401757864E+03  0.00000000000E+00 0.  1.
          2    1    1    2  501    0 -0.72853241172E+02 -0.43103661617E+02 -0.51692036765E+02  0.99184610998E+02  0.00000000000E+00 0. -1.
          1    1    1    2  502    0  0.81583276586E+02  0.59948112317E+02 -0.54987732114E+03  0.55911955384E+03  0.00000000000E+00 0.  1.
         22    1    1    2    0    0 -0.15675281871E+01 -0.36944163347E+02  0.31325346116E+02  0.48462414914E+02  0.00000000000E+00 0.  1.
         22    1    1    2    0    0 -0.71625072273E+01  0.20099712646E+02 -0.84181187663E+02  0.86843378070E+02  0.00000000000E+00 0.  1.
</event>
<event>
 6    1  0.2144783E-005  0.3600765E+02  0.7818608E-02  0.1586243E+00
          2   -1    0    0  502    0  0.00000000000E+00  0.00000000000E+00  0.18361174125E+03  0.18361174125E+03  0.00000000000E+00 0. -1.
          1   -1    0    0  501    0 -0.00000000000E+00 -0.00000000000E+00 -0.16483985104E+03  0.16483985104E+03  0.00000000000E+00 0. -1.
          2    1    1    2  501    0 -0.38369959814E+02  0.26827232150E+02  0.74587980100E+02  0.88064300238E+02  0.00000000000E+00 0. -1.
          1    1    1    2  502    0  0.35083164106E+02 -0.11263904770E+02 -0.11283456085E+03  0.11869853444E+03  0.00000000000E+00 0. -1.
         22    1    1    2    0    0 -0.14928795891E+01 -0.33190271565E+02  0.94404553905E+02  0.10008018092E+03  0.00000000000E+00 0.  1.
         22    1    1    2    0    0  0.47796752975E+01  0.17626944184E+02 -0.37386082936E+02  0.41608576694E+02  0.00000000000E+00 0. -1.
</event>
<event>
 6    1  0.2144783E-005  0.9642558E+02  0.7818608E-02  0.1328630E+00
          2   -1    0    0  502    0  0.00000000000E+00  0.00000000000E+00  0.22581926988E+03  0.22581926988E+03  0.00000000000E+00 0.  1.
          1   -1    0    0  501    0 -0.00000000000E+00 -0.00000000000E+00 -0.16861425495E+03  0.16861425495E+03  0.00000000000E+00 0.  1.
          2    1    1    2  501    0 -0.62686187709E+02  0.47391427420E+02 -0.51067922954E+02  0.93719999345E+02  0.00000000000E+00 0.  1.
          1    1    1    2  502    0  0.82967397852E+02 -0.61379967319E+02 -0.32003647101E+02  0.10805240822E+03  0.00000000000E+00 0.  1.
         22    1    1    2    0    0 -0.35708974779E+02  0.29039521007E+02  0.15811845618E+03  0.16468111867E+03  0.00000000000E+00 0.  1.
         22    1    1    2    0    0  0.15427764637E+02 -0.15050981108E+02 -0.17841871200E+02  0.27979998605E+02  0.00000000000E+00 0. -1.
</event>
<event>
 6    1  0.2144783E-005  0.8071313E+02  0.7818608E-02  0.1357735E+00
          2   -1    0    0  502    0  0.00000000000E+00  0.00000000000E+00  0.73856964411E+03  0.73856964411E+03  0.00000000000E+00 0. -1.
          1   -1    0    0  501    0 -0.00000000000E+00 -0.00000000000E+00 -0.23507309844E+02  0.23507309844E+02  0.00000000000E+00 0. -1.
          2    1    1    2  501    0 -0.29752751224E+02  0.39892089697E+02  0.45704853634E+03  0.45974989896E+03  0.00000000000E+00 0. -1.
          1    1    1    2  502    0 -0.27875382619E+01 -0.29458707830E+02  0.33157743472E+02  0.44441217228E+02  0.00000000000E+00 0. -1.
         22    1    1    2    0    0  0.17367749351E+02 -0.55456800951E+02  0.49911475224E+02  0.76604509321E+02  0.00000000000E+00 0. -1.
         22    1    1    2    0    0  0.15172540135E+02  0.45023419083E+02  0.17494457923E+03  0.18128132844E+03  0.00000000000E+00 0.  1.
</event>
<event>
 6    1  0.2144783E-005  0.2652885E+02  0.7818608E-02  0.1660119E+00
          2   -1    0    0  502    0  0.00000000000E+00  0.00000000000E+00  0.67478285023E+03  0.67478285023E+03  0.00000000000E+00 0.  1.
          1   -1    0    0  501    0 -0.00000000000E+00 -0.00000000000E+00 -0.95184711989E+02  0.95184711989E+02  0.00000000000E+00 0.  1.
          2    1    1    2  501    0 -0.16963270663E+01 -0.32061718309E+02  0.60526690637E+03  0.60611785921E+03  0.00000000000E+00 0.  1.
          1    1    1    2  502    0  0.27300535371E+02 -0.71168232501E+01 -0.15701185294E+02  0.32287700822E+02  0.00000000000E+00 0.  1.
         22    1    1    2    0    0 -0.66153842793E+01  0.20066598037E+02  0.56242527459E+02  0.60080392483E+02  0.00000000000E+00 0.  1.
         22    1    1    2    0    0 -0.18988824025E+02  0.19111943522E+02 -0.66210110286E+02  0.71481609713E+02  0.00000000000E+00 0.  1.
</event>
<event>
 6    1  0.2144783E-005  0.5674177E+02  0.7818608E-02  0.1453655E+00
          2   -1    0    0  502    0  0.00000000000E+00  0.00000000000E+00  0.36149683793E+02  0.36149683793E+02  0.00000000000E+00 0. -1.
          1   -1    0    0  501    0 -0.00000000000E+00 -0.00000000000E+00 -0.30226277836E+03  0.30226277836E+03  0.00000000000E+00 0. -1.
          2    1    1    2  501    0  0.90033826622E+01 -0.34447187387E+02 -0.31341212479E+02  0.47433545281E+02  0.00000000000E+00 0. -1.
          1    1    1    2  502    0  0.11673508555E+01  0.36595006293E+02 -0.10318234695E+03  0.10948586171E+03  0.00000000000E+00 0. -1.
         22    1    1    2    0    0  0.15701645272E+01  0.25746505641E+02 -0.14579589827E+03  0.14806009564E+03  0.00000000000E+00 0. -1.
         22    1    1    2    0    0 -0.11740898045E+02 -0.27894324547E+02  0.14206363127E+02  0.33432959518E+02  0.00000000000E+00 0. -1.
</event>
<event>
 6    1  0.2144783E-005  0.9643092E+02  0.7818608E-02  0.1365470E+00
          2   -1    0    0  502    0  0.00000000000E+00  0.00000000000E+00  0.10079714021E+04  0.10079714021E+04  0.00000000000E+00 0. -1.
          1   -1    0    0  501    0 -0.00000000000E+00 -0.00000000000E+00 -0.65667045839E+02  0.65667045839E+02  0.00000000000E+00 0.  1.
          2    1    1    2  501    0 -0.68108384044E+02 -0.31486291387E+02  0.83151829025E+03  0.83489688318E+03  0.00000000000E+00 0. -1.
          1    1    1    2  502    0  0.50691770873E+02 -0.14951028595E+02 -0.18011706660E+02  0.55835566328E+02  0.00000000000E+00 0.  1.
         22    1    1    2    0    0 -0.16156073763E+02  0.18380533718E+02  0.13633052824E+03  0.13850947862E+03  0.00000000000E+00 0. -1.
         22    1    1    2    0    0  0.33572686934E+02  0.28056786264E+02 -0.75327555765E+01  0.44396519797E+02  0.00000000000E+00 0. -1.
</event>
<event>
 6    1  0.2144783E-005  0.1243611E+03  0.7818608E-02  0.1346768E+00
          2   -1    0    0  502    0  0.00000000000E+00  0.00000000000E+00  0.16154813186E+03  0.16154813186E+03  0.00000000000E+00 0. -1.
          1   -1    0    0  501    0 -0.00000000000E+00 -0.00000000000E+00 -0.33935451601E+03  0.33935451601E+03  0.00000000000E+00 0. -1.
          2    1    1    2  501    0  0.67241888492E+02 -0.77359646522E+02  0.58489385847E+01  0.10266545943E+03  0.00000000000E+00 0. -1.
          1    1    1    2  502    0 -0.54036154330E+02  0.88085074425E+02 -0.23758214539E+03  0.25908331116E+03  0.00000000000E+00 0. -1.
         22    1    1    2    0    0  0.99715237739E+01 -0.12064514806E+02  0.92672641234E+02  0.93985117105E+02  0.00000000000E+00 0. -1.
         22    1    1    2    0    0 -0.23177257936E+02  0.13390869025E+01 -0.38745818576E+02  0.45168760181E+02  0.00000000000E+00 0.  1.
</event>
<event>
 6    1  0.2144783E-005  0.1059754E+03  0.7818608E-02  0.1269385E+00
          2   -1    0    0  502    0  0.00000000000E+00  0.00000000000E+00  0.19597312331E+03  0.19597312331E+03  0.00000000000E+00 0. -1.
          1   -1    0    0  501    0 -0.00000000000E+00 -0.00000000000E+00 -0.43905365515E+03  0.43905365515E+03  0.00000000000E+00 0. -1.
          2    1    1    2  501    0  0.67258178145E+02  0.80533540783E+01  0.10641530940E+03  0.12614569796E+03  0.00000000000E+00 0. -1.
          1    1    1    2  502    0 -0.87007058715E+02 -0.31934648941E+02 -0.36410228422E+03  0.37571335276E+03  0.00000000000E+00 0. -1.
         22    1    1    2    0    0  0.30324121601E+02  0.23023123027E+02  0.68429730606E+02  0.78308649430E+02  0.00000000000E+00 0. -1.
         22    1    1    2    0    0 -0.10575241031E+02  0.85817183612E+00 -0.53823287628E+02  0.54859078309E+02  0.00000000000E+00 0.  1.
</event>
<event>
 6    1  0.2144783E-005  0.1111471E+03  0.7818608E-02  0.1261348E+00
          2   -1    0    0  502    0  0.00000000000E+00  0.00000000000E+00  0.36319105140E+03  0.36319105140E+03  0.00000000000E+00 0. -1.
          1   -1    0    0  501    0 -0.00000000000E+00 -0.00000000000E+00 -0.37293772857E+02  0.37293772857E+02  0.00000000000E+00 0. -1.
          2    1    1    2  501    0  0.13470203751E+02 -0.33338297225E+02  0.95779283723E+02  0.10230620529E+03  0.00000000000E+00 0. -1.
          1    1    1    2  502    0 -0.52015805324E+02  0.11576271084E+02  0.45451591722E+02  0.70039283590E+02  0.00000000000E+00 0. -1.
         22    1    1    2    0    0 -0.33598279304E+02  0.39235774309E+02  0.39260487277E+02  0.64882017686E+02  0.00000000000E+00 0.  1.
         22    1    1    2    0    0  0.72143880877E+02 -0.17473748168E+02  0.14540591582E+03  0.16325731769E+03  0.00000000000E+00 0. -1.
</event>
<event>
 6    1  0.2144783E-005  0.1931291E+03  0.7818608E-02  0.1244956E+00
          2   -1    0    0  502    0  0.00000000000E+00  0.00000000000E+00  0.34457241680E+03  0.34457241680E+03  0.00000000000E+00 0. -1.
          1   -1    0    0  501    0 -0.00000000000E+00 -0.00000000000E+00 -0.14437654823E+03  0.14437654823E+03  0.00000000000E+00 0. -1.
          2    1    1    2  501    0 -0.33597224217E+02 -0.17718723128E+03  0.14963257941E+03  0.23433735772E+03  0.00000000000E+00 0. -1.
          1    1    1    2  502    0  0.83741919833E+01  0.94645049090E+02  0.15907846756E+02  0.96337282488E+02  0.00000000000E+00 0. -1.
         22    1    1    2    0    0 -0.27726346419E+02  0.90529344719E-01  0.51840539540E+02  0.58789455016E+02  0.00000000000E+00 0. -1.
         22    1    1    2    0    0  0.52949378652E+02  0.82451652844E+02 -0.17185097137E+02  0.99484869804E+02  0.00000000000E+00 0.  1.
</event>
<event>
 6    1  0.2144783E-005  0.1153683E+03  0.7818608E-02  0.1302004E+00
          2   -1    0    0  502    0  0.00000000000E+00  0.00000000000E+00  0.12013286681E+03  0.12013286681E+03  0.00000000000E+00 0. -1.
          1   -1    0    0  501    0 -0.00000000000E+00 -0.00000000000E+00 -0.21517382738E+03  0.21517382738E+03  0.00000000000E+00 0. -1.
          2    1    1    2  501    0  0.62137478063E+02  0.57947235725E+02 -0.10927719744E+03  0.13842129239E+03  0.00000000000E+00 0. -1.
          1    1    1    2  502    0 -0.62355562437E+02 -0.54881113317E+01  0.11960838206E+01  0.62608035820E+02  0.00000000000E+00 0. -1.
         22    1    1    2    0    0  0.39079048637E+02  0.18874575780E+02  0.28044270648E+02  0.51671101880E+02  0.00000000000E+00 0.  1.
         22    1    1    2    0    0 -0.38860964263E+02 -0.71333700174E+02 -0.15004117601E+02  0.82606264102E+02  0.00000000000E+00 0. -1.
</event>
<event>
 6    1  0.2144783E-005  0.1422582E+03  0.7818608E-02  0.1291420E+00
          2   -1    0    0  502    0  0.00000000000E+00  0.00000000000E+00  0.22963781268E+03  0.22963781268E+03  0.00000000000E+00 0.  1.
          1   -1    0    0  501    0 -0.00000000000E+00 -0.00000000000E+00 -0.83063821839E+02  0.83063821839E+02  0.00000000000E+00 0. -1.
          2    1    1    2  501    0 -0.40167633494E+02  0.10625349152E+02  0.11063116835E+03  0.11817610687E+03  0.00000000000E+00 0.  1.
          1    1    1    2  502    0  0.20549268534E+02 -0.62714325084E+01  0.63625150812E+02  0.67154769889E+02  0.00000000000E+00 0. -1.
         22    1    1    2    0    0  0.14550116409E+02 -0.24113391237E+02  0.44332934700E+02  0.52522096527E+02  0.00000000000E+00 0. -1.
         22    1    1    2    0    0  0.50682485519E+01  0.19759474594E+02 -0.72015263022E+02  0.74848661229E+02  0.00000000000E+00 0. -1.
</event>
<event>
 6    1  0.2144783E-005  0.5953756E+02  0.7818608E-02  0.1411338E+00
          2   -1    0    0  502    0  0.00000000000E+00  0.00000000000E+00  0.63699512146E+02  0.63699512146E+02  0.00000000000E+00 0. -1.
          1   -1    0    0  501    0 -0.00000000000E+00 -0.00000000000E+00 -0.46395412048E+03  0.46395412048E+03  0.00000000000E+00 0. -1.
          2    1    1    2  501    0 -0.67694555154E+02 -0.66073470490E+01  0.59091219059E+01  0.68272450917E+02  0.00000000000E+00 0. -1.
          1    1    1    2  502    0  0.84716622773E+02  0.38827588327E+01 -0.11483353483E+03  0.14275406373E+03  0.00000000000E+00 0. -1.
         22    1    1    2    0    0 -0.29635700375E+02  0.42209878657E+02 -0.25892782024E+03  0.26401432667E+03  0.00000000000E+00 0. -1.
         22    1    1    2    0    0  0.12613632756E+02 -0.39485290440E+02 -0.32402375172E+02  0.52612791308E+02  0.00000000000E+00 0. -1.
</event>
<event>
 6    1  0.2144783E-005  0.6282996E+02  0.7818608E-02  0.1502782E+00
          2   -1    0    0  502    0  0.00000000000E+00  0.00000000000E+00  0.49415133645E+02  0.49415133645E+02  0.00000000000E+00 0.  1.
          1   -1    0    0  501    0 -0.00000000000E+00 -0.00000000000E+00 -0.30822836158E+03  0.30822836158E+03  0.00000000000E+00 0.  1.
          2    1    1    2  501    0 -0.25901634016E+02 -0.40349914518E+02  0.36024119907E+01  0.48083132369E+02  0.00000000000E+00 0.  1.
          1    1    1    2  502    0  0.24266470544E+02  0.93826723197E+01 -0.10105293061E+03  0.10434841119E+03  0.00000000000E+00 0.  1.
         22    1    1    2    0    0  0.10171015535E+02 -0.44820232882E+01  0.18559002453E+02  0.21632722015E+02  0.00000000000E+00 0.  1.
         22    1    1    2    0    0 -0.85358520633E+01  0.35449265486E+02 -0.17992171177E+03  0.18357922965E+03  0.00000000000E+00 0.  1.
</event>
<event>
 6    1  0.2144783E-005  0.1252369E+03  0.7818608E-02  0.1353277E+00
          2   -1    0    0  502    0  0.00000000000E+00  0.00000000000E+00  0.36187947844E+02  0.36187947844E+02  0.00000000000E+00 0.  1.
          1   -1    0    0  501    0 -0.00000000000E+00 -0.00000000000E+00 -0.42015549243E+03  0.42015549243E+03  0.00000000000E+00 0.  1.
          2    1    1    2  501    0 -0.39755332734E+02 -0.47301560614E+02 -0.86391079632E+02  0.10621366559E+03  0.00000000000E+00 0.  1.
          1    1    1    2  502    0  0.33433252177E+02 -0.20032486004E+02 -0.32526301122E+02  0.50764585208E+02  0.00000000000E+00 0.  1.
         22    1    1    2    0    0 -0.89353662055E+01  0.10404860849E+02  0.10694676590E+02  0.17391894833E+02  0.00000000000E+00 0.  1.
         22    1    1    2    0    0  0.15257446762E+02  0.56929185769E+02 -0.27574484042E+03  0.28197329465E+03  0.00000000000E+00 0.  1.
</event>
<event>
 6    1  0.2144783E-005  0.3915534E+02  0.7818608E-02  0.1575822E+00
          2   -1    0    0  502    0  0.00000000000E+00  0.00000000000E+00  0.92494242641E+02  0.92494242641E+02  0.00000000000E+00 0.  1.
          1   -1    0    0  501    0 -0.00000000000E+00 -0.00000000000E+00 -0.58838797907E+03  0.58838797907E+03  0.00000000000E+00 0. -1.
          2    1    1    2  501    0 -0.54125772415E+02 -0.15260937034E+02  0.39464243743E+02  0.68701688283E+02  0.00000000000E+00 0.  1.
          1    1    1    2  502    0  0.28360878471E+02  0.40015989138E+02 -0.45002942676E+03  0.45269427185E+03  0.00000000000E+00 0. -1.
         22    1    1    2    0    0  0.23085922637E+02 -0.12977200639E+02 -0.11993932930E+03  0.12282837731E+03  0.00000000000E+00 0. -1.
         22    1    1    2    0    0  0.26789713078E+01 -0.11777851466E+02  0.34610775880E+02  0.36657884274E+02  0.00000000000E+00 0. -1.
</event>
<event>
 6    1  0.2144783E-005  0.2962628E+02  0.7818608E-02  0.1607544E+00
          2   -1    0    0  502    0  0.00000000000E+00  0.00000000000E+00  0.26092421006E+03  0.26092421006E+03  0.00000000000E+00 0.  1.
          1   -1    0    0  501    0 -0.00000000000E+00 -0.00000000000E+00 -0.53697202329E+03  0.53697202329E+03  0.00000000000E+00 0. -1.
          2    1    1    2  501    0 -0.44069919724E+02  0.44539841041E+01  0.16007575444E+03  0.16609106826E+03  0.00000000000E+00 0.  1.
          1    1    1    2  502    0  0.35495055172E+02 -0.34170826528E+01 -0.49312896651E+03  0.49441657841E+03  0.00000000000E+00 0. -1.
         22    1    1    2    0    0  0.51318597843E+01 -0.18614843417E+02 -0.36976699458E+02  0.41714801726E+02  0.00000000000E+00 0.  1.
         22    1    1    2    0    0  0.34430047678E+01  0.17577941966E+02  0.93982098304E+02  0.95673784953E+02  0.00000000000E+00 0.  1.
</event>
<event>
 6    1  0.2144783E-005  0.5108204E+03  0.7818608E-02  0.1137992E+00
          2   -1    0    0  502    0  0.00000000000E+00  0.00000000000E+00  0.27997331418E+03  0.27997331418E+03  0.00000000000E+00 0. -1.
          1   -1    0    0  501    0 -0.00000000000E+00 -0.00000000000E+00 -0.12123961825E+04  0.12123961825E+04  0.00000000000E+00 0. -1.
          2    1    1    2  501    0 -0.25393909268E+02  0.51105618403E+03 -0.22634997116E+03  0.55951548978E+03  0.00000000000E+00 0. -1.
          1    1    1    2  502    0 -0.18698697981E+02 -0.41707079492E+03 -0.62967308334E+03  0.75550372677E+03  0.00000000000E+00 0. -1.
         22    1    1    2    0    0  0.37007224517E+02 -0.79746253399E+02 -0.10962015078E+03  0.14051895621E+03  0.00000000000E+00 0. -1.
         22    1    1    2    0    0  0.70853827316E+01 -0.14239135711E+02  0.33220336952E+02  0.36831323916E+02  0.00000000000E+00 0. -1.
</event>
<event>
 6    1  0.2144783E-005  0.3161083E+02  0.7818608E-02  0.1588788E+00
          2   -1    0    0  502    0  0.00000000000E+00  0.00000000000E+00  0.74849119922E+02  0.74849119922E+02  0.00000000000E+00 0. -1.
          1   -1    0    0  501    0 -0.00000000000E+00 -0.00000000000E+00 -0.11771599819E+04  0.11771599819E+04  0.00000000000E+00 0. -1.
          2    1    1    2  501    0  0.51423369371E+01 -0.31146452067E+02 -0.46116370038E+02  0.55886176206E+02  0.00000000000E+00 0. -1.
          1    1    1    2  502    0 -0.57079417148E+01  0.34431910678E+02 -0.10729562211E+04  0.10735237256E+04  0.00000000000E+00 0. -1.
         22    1    1    2    0    0  0.19340427924E+02 -0.13232221757E+02  0.65427509633E+02  0.69497502558E+02  0.00000000000E+00 0. -1.
         22    1    1    2    0    0 -0.18774823146E+02  0.99467631455E+01 -0.48665780414E+02  0.53101697379E+02  0.00000000000E+00 0.  1.
</event>
<event>
 6    1  0.2144783E-005  0.2493500E+03  0.7818608E-02  0.1251708E+00
          2   -1    0    0  502    0  0.00000000000E+00  0.00000000000E+00  0.52225858081E+02  0.52225858081E+02  0.00000000000E+00 0. -1.
          1   -1    0    0  501    0 -0.00000000000E+00 -0.00000000000E+00 -0.75901594708E+03  0.75901594708E+03  0.00000000000E+00 0. -1.
          2    1    1    2  501    0  0.67463235437E+01  0.60398652819E+02 -0.50016442356E+02  0.78709304721E+02  0.00000000000E+00 0. -1.
          1    1    1    2  502    0  0.41503919737E+01 -0.15020238675E+03 -0.44757305204E+03  0.47212246256E+03  0.00000000000E+00 0. -1.
         22    1    1    2    0    0 -0.18423253907E+01  0.96485545621E+02 -0.22277444180E+03  0.24277830750E+03  0.00000000000E+00 0. -1.
         22    1    1    2    0    0 -0.90543901267E+01 -0.66818116881E+01  0.13573847201E+02  0.17631730370E+02  0.00000000000E+00 0. -1.
</event>
<event>
 6    1  0.2144783E-005  0.8114919E+02  0.7818608E-02  0.1327626E+00
          2   -1    0    0  502    0  0.00000000000E+00  0.00000000000E+00  0.90500096800E+02  0.90500096800E+02  0.00000000000E+00 0. -1.
          1   -1    0    0  501    0 -0.00000000000E+00 -0.00000000000E+00 -0.24411385582E+03  0.24411385582E+03  0.00000000000E+00 0. -1.
          2    1    1    2  501    0  0.34318363058E+02  0.44402578935E+02  0.37741789366E+02  0.67629739934E+02  0.00000000000E+00 0. -1.
          1    1    1    2  502    0 -0.35706648982E+02 -0.38247527746E+02 -0.10457525320E+03  0.11693511766E+03  0.00000000000E+00 0. -1.
         22    1    1    2    0    0  0.19792313681E+02  0.70798594305E+01  0.26895301892E+02  0.34135280199E+02  0.00000000000E+00 0.  1.
         22    1    1    2    0    0 -0.18404027757E+02 -0.13234910619E+02 -0.11367559708E+03  0.11591381483E+03  0.00000000000E+00 0. -1.
</event>
<event>
 6    1  0.2144783E-005  0.1175111E+03  0.7818608E-02  0.1312530E+00
          2   -1    0    0  502    0  0.00000000000E+00  0.00000000000E+00  0.42872679150E+03  0.42872679150E+03  0.00000000000E+00 0. -1.
          1   -1    0    0  501    0 -0.00000000000E+00 -0.00000000000E+00 -0.17156766108E+03  0.17156766108E+03  0.00000000000E+00 0.  1.
          2    1    1    2  501    0  0.96848547130E+02  0.90670464376E+01  0.21996476848E+03  0.24051268529E+03  0.00000000000E+00 0. -1.
          1    1    1    2  502    0 -0.10337397681E+03  0.90099518045E+01 -0.12014882989E+03  0.15875484130E+03  0.00000000000E+00 0.  1.
         22    1    1    2    0    0 -0.11505448991E+02  0.10628022189E+02 -0.17176421954E+02  0.23245637941E+02  0.00000000000E+00 0.  1.
         22    1    1    2    0    0  0.18030878670E+02 -0.28705020431E+02  0.17451961379E+03  0.17778128805E+03  0.00000000000E+00 0.  1.
</event>
<event>
 6    1  0.2144783E-005  0.1189691E+03  0.7818608E-02  0.1287219E+00
          2   -1    0    0  502    0  0.00000000000E+00  0.00000000000E+00  0.54032778504E+03  0.54032778504E+03  0.00000000000E+00 0.  1.
          1   -1    0    0  501    0 -0.00000000000E+00 -0.00000000000E+00 -0.34702084630E+02  0.34702084630E+02  0.00000000000E+00 0.  1.
          2    1    1    2  501    0  0.25265539234E+02 -0.83718558757E+01  0.28423736690E+03  0.28548085082E+03  0.00000000000E+00 0.  1.
          1    1    1    2  502    0 -0.18718713949E+02  0.21283597833E+02  0.12598382992E+03  0.12913290514E+03  0.00000000000E+00 0.  1.
         22    1    1    2    0    0  0.24165070275E+02 -0.46154487682E+02  0.10214014398E+03  0.11465948005E+03  0.00000000000E+00 0.  1.
         22    1    1    2    0    0 -0.30711895560E+02  0.33242745724E+02 -0.67356403852E+01  0.45756633656E+02  0.00000000000E+00 0.  1.
</event>
<event>
 6    1  0.2144783E-005  0.2178198E+03  0.7818608E-02  0.1234602E+00
          2   -1    0    0  502    0  0.00000000000E+00  0.00000000000E+00  0.33544929772E+03  0.33544929772E+03  0.00000000000E+00 0.  1.
          1   -1    0    0  501    0 -0.00000000000E+00 -0.00000000000E+00 -0.19838377358E+03  0.19838377358E+03  0.00000000000E+00 0. -1.
          2    1    1    2  501    0 -0.18651469745E+02  0.12921197256E+03  0.22952213802E+03  0.26405306856E+03  0.00000000000E+00 0.  1.
          1    1    1    2  502    0  0.40429581935E+02 -0.34836029262E+02  0.38911078258E+02  0.66046741338E+02  0.00000000000E+00 0. -1.
         22    1    1    2    0    0 -0.21200808450E+02  0.10926164169E+02  0.11315856343E+02  0.26398938372E+02  0.00000000000E+00 0. -1.
         22    1    1    2    0    0 -0.57730374011E+00 -0.10530210746E+03 -0.14268354848E+03  0.17733432303E+03  0.00000000000E+00 0. -1.
</event>
<event>
 6    1  0.2144783E-005  0.5269437E+02  0.7818608E-02  0.1480309E+00
          2   -1    0    0  502    0  0.00000000000E+00  0.00000000000E+00  0.20121310118E+03  0.20121310118E+03  0.00000000000E+00 0. -1.
          1   -1    0    0  501    0 -0.00000000000E+00 -0.00000000000E+00 -0.27217838744E+03  0.27217838744E+03  0.00000000000E+00 0.  1.
          2    1    1    2  501    0 -0.24980446061E+02  0.22391084052E+02  0.93995017587E+02  0.99802037362E+02  0.00000000000E+00 0. -1.
          1    1    1    2  502    0  0.16068879492E+02 -0.50778235112E+02 -0.22558353390E+03  0.23178560960E+03  0.00000000000E+00 0.  1.
         22    1    1    2    0    0  0.19875246735E+02  0.16374650172E+02 -0.35754850045E+02  0.44063180807E+02  0.00000000000E+00 0. -1.
         22    1    1    2    0    0 -0.10963680165E+02  0.12012500888E+02  0.96378080098E+02  0.97740660852E+02  0.00000000000E+00 0. -1.
</event>
<event>
 6    1  0.2144783E-005  0.1346133E+03  0.7818608E-02  0.1326706E+00
          2   -1    0    0  502    0  0.00000000000E+00  0.00000000000E+00  0.18637194147E+02  0.18637194147E+02  0.00000000000E+00 0. -1.
          1   -1    0    0  501    0 -0.00000000000E+00 -0.00000000000E+00 -0.11163557061E+04  0.11163557061E+04  0.00000000000E+00 0.  1.
          2    1    1    2  501    0  0.20258361664E+00 -0.70210125698E+02 -0.16572520550E+03  0.17998429523E+03  0.00000000000E+00 0. -1.
          1    1    1    2  502    0 -0.44924455346E+02  0.16263071809E+02 -0.42035272583E+03  0.42305922553E+03  0.00000000000E+00 0.  1.
         22    1    1    2    0    0 -0.12888669841E+02 -0.11839818284E+02 -0.55512085791E+01  0.18360692360E+02  0.00000000000E+00 0.  1.
         22    1    1    2    0    0  0.57610541570E+02  0.65786872173E+02 -0.50608937202E+03  0.51358868711E+03  0.00000000000E+00 0.  1.
</event>
<event>
 6    1  0.2144783E-005  0.1087627E+03  0.7818608E-02  0.1364872E+00
          2   -1    0    0  502    0  0.00000000000E+00  0.00000000000E+00  0.19782678895E+03  0.19782678895E+03  0.00000000000E+00 0.  1.
          1   -1    0    0  501    0 -0.00000000000E+00 -0.00000000000E+00 -0.34492813739E+03  0.34492813739E+03  0.00000000000E+00 0. -1.
          2    1    1    2  501    0 -0.54834810512E+02 -0.48385946375E+02  0.10355145560E+03  0.12677129094E+03  0.00000000000E+00 0.  1.
          1    1    1    2  502    0  0.60537475537E+02  0.68580378751E+02 -0.27381082768E+03  0.28868741512E+03  0.00000000000E+00 0. -1.
         22    1    1    2    0    0 -0.90879324495E+01  0.14634463931E+02 -0.46365812604E+02  0.49462578068E+02  0.00000000000E+00 0.  1.
         22    1    1    2    0    0  0.33852674250E+01 -0.34828896306E+02  0.69523836245E+02  0.77833642210E+02  0.00000000000E+00 0.  1.
</event>
<event>
 6    1  0.2144783E-005  0.3592843E+02  0.7818608E-02  0.1574758E+00
          2   -1    0    0  502    0  0.00000000000E+00  0.00000000000E+00  0.84177443101E+02  0.84177443101E+02  0.00000000000E+00 0. -1.
          1   -1    0    0  501    0 -0.00000000000E+00 -0.00000000000E+00 -0.20987581337E+03  0.20987581337E+03  0.00000000000E+00 0.  1.
          2    1    1    2  501    0 -0.71788632477E+02  0.13912194202E+02  0.17541966264E+02  0.75198919413E+02  0.00000000000E+00 0. -1.
          1    1    1    2  502    0  0.26632966325E+02 -0.17487549257E+01 -0.55159700856E+02  0.61277774417E+02  0.00000000000E+00 0.  1.
         22    1    1    2    0    0  0.15722858447E+02 -0.11945205285E+02 -0.11560461708E+03  0.11727882886E+03  0.00000000000E+00 0.  1.
         22    1    1    2    0    0  0.29432807705E+02 -0.21823399106E+00  0.27523981408E+02  0.40297733783E+02  0.00000000000E+00 0. -1.
</event>
<event>
 6    1  0.2144783E-005  0.2383033E+03  0.7818608E-02  0.1122294E+00
          2   -1    0    0  502    0  0.00000000000E+00  0.00000000000E+00  0.70106553171E+03  0.70106553171E+03  0.00000000000E+00 0. -1.
          1   -1    0    0  501    0 -0.00000000000E+00 -0.00000000000E+00 -0.17407892452E+03  0.17407892452E+03  0.00000000000E+00 0. -1.
          2    1    1    2  501    0  0.43470010360E+02 -0.20707373100E+03  0.54605258525E+03  0.58561301021E+03  0.00000000000E+00 0. -1.
          1    1    1    2  502    0  0.32482726160E+01  0.12228984491E+03 -0.45683903895E+02  0.13058474841E+03  0.00000000000E+00 0. -1.
         22    1    1    2    0    0 -0.61130730247E+02  0.96391692901E+02 -0.13333114334E+02  0.11491778182E+03  0.00000000000E+00 0. -1.
         22    1    1    2    0    0  0.14412447271E+02 -0.11607806809E+02  0.39951040174E+02  0.44028915797E+02  0.00000000000E+00 0. -1.
</event>
<event>
 6    1  0.2144783E-005  0.3472966E+02  0.7818608E-02  0.1563786E+00
          2   -1    0    0  502    0  0.00000000000E+00  0.00000000000E+00  0.12379529131E+03  0.12379529131E+03  0.00000000000E+00 0. -1.
          1   -1    0    0  501    0 -0.00000000000E+00 -0.00000000000E+00 -0.49817791804E+03  0.49817791804E+03  0.00000000000E+00 0. -1.
          2    1    1    2  501    0  0.36871657029E+02 -0.89967486518E+02  0.26105965266E+02  0.10067367652E+03  0.00000000000E+00 0. -1.
          1    1    1    2  502    0 -0.42440553871E+02  0.89175000045E+02 -0.38704171603E+03  0.39944295111E+03  0.00000000000E+00 0. -1.
         22    1    1    2    0    0  0.92973135084E+01 -0.10298053054E+02 -0.66293726062E+02  0.67729964199E+02  0.00000000000E+00 0. -1.
         22    1    1    2    0    0 -0.37284166663E+01  0.11090539527E+02  0.52846850100E+02  0.54126617512E+02  0.00000000000E+00 0.  1.
</event>
<event>
 6    1  0.2144783E-005  0.1029678E+03  0.7818608E-02  0.1298011E+00
          2   -1    0    0  502    0  0.00000000000E+00  0.00000000000E+00  0.14168474972E+02  0.14168474972E+02  0.00000000000E+00 0. -1.
          1   -1    0    0  501    0 -0.00000000000E+00 -0.00000000000E+00 -0.13994159114E+04  0.13994159114E+04  0.00000000000E+00 0. -1.
          2    1    1    2  501    0  0.57364781868E+02 -0.50362525668E+02 -0.50676131334E+03  0.51247841993E+03  0.00000000000E+00 0. -1.
          1    1    1    2  502    0  0.37553584189E+02  0.22220881641E+01 -0.19780836369E+03  0.20135381324E+03  0.00000000000E+00 0. -1.
         22    1    1    2    0    0  0.26084137271E+02 -0.99737238337E+01 -0.12714109724E+03  0.13017187097E+03  0.00000000000E+00 0.  1.
         22    1    1    2    0    0 -0.12100250333E+03  0.58114161338E+02 -0.55353666217E+03  0.56958028224E+03  0.00000000000E+00 0. -1.
</event>
<event>
 6    1  0.2144783E-005  0.7156542E+02  0.7818608E-02  0.1478655E+00
          2   -1    0    0  502    0  0.00000000000E+00  0.00000000000E+00  0.18710998828E+03  0.18710998828E+03  0.00000000000E+00 0.  1.
          1   -1    0    0  501    0 -0.00000000000E+00 -0.00000000000E+00 -0.24581567844E+03  0.24581567844E+03  0.00000000000E+00 0.  1.
          2    1    1    2  501    0 -0.57724130484E+02 -0.35706318891E+02  0.12311430333E+03  0.14058502101E+03  0.00000000000E+00 0.  1.
          1    1    1    2  502    0  0.39144110294E+02  0.18274213249E+02 -0.15523504993E+03  0.16113388523E+03  0.00000000000E+00 0.  1.
         22    1    1    2    0    0  0.11550767298E+02  0.25263341161E+02 -0.75877965449E+02  0.80802984304E+02  0.00000000000E+00 0.  1.
         22    1    1    2    0    0  0.70292528918E+01 -0.78312355188E+01  0.49293021893E+02  0.50403776181E+02  0.00000000000E+00 0.  1.
</event>
<event>
 6    1  0.2144783E-005  0.1898672E+03  0.7818608E-02  0.1201312E+00
          2   -1    0    0  502    0  0.00000000000E+00  0.00000000000E+00  0.36440881075E+03  0.36440881075E+03  0.00000000000E+00 0. -1.
          1   -1    0    0  501    0 -0.00000000000E+00 -0.00000000000E+00 -0.20200239782E+03  0.20200239782E+03  0.00000000000E+00 0. -1.
          2    1    1    2  501    0 -0.13461580543E+03  0.11618942213E+03  0.15649991157E+03  0.23688313407E+03  0.00000000000E+00 0. -1.
          1    1    1    2  502    0  0.18319299854E+02  0.58008071486E+02 -0.51875440924E+02  0.79947448213E+02  0.00000000000E+00 0. -1.
         22    1    1    2    0    0  0.11732146815E+03 -0.18554468599E+03  0.72301286969E+02  0.23112471414E+03  0.00000000000E+00 0. -1.
         22    1    1    2    0    0 -0.10249625732E+01  0.11347192382E+02 -0.14519344685E+02  0.18455912150E+02  0.00000000000E+00 0.  1.
</event>
<event>
 6    1  0.2144783E-005  0.5651429E+02  0.7818608E-02  0.1465167E+00
          2   -1    0    0  502    0  0.00000000000E+00  0.00000000000E+00  0.73453651063E+02  0.73453651063E+02  0.00000000000E+00 0. -1.
          1   -1    0    0  501    0 -0.00000000000E+00 -0.00000000000E+00 -0.28082035109E+03  0.28082035109E+03  0.00000000000E+00 0. -1.
          2    1    1    2  501    0  0.18815057176E+02  0.24460079334E+02  0.15834490736E+02  0.34684765452E+02  0.00000000000E+00 0. -1.
          1    1    1    2  502    0 -0.19725858473E+02  0.47083276372E+02 -0.14440788349E+03  0.15316520891E+03  0.00000000000E+00 0. -1.
         22    1    1    2    0    0 -0.54590989896E+01 -0.10146590367E+03 -0.25163755278E+02  0.10468211858E+03  0.00000000000E+00 0. -1.
         22    1    1    2    0    0  0.63699002860E+01  0.29922547966E+02 -0.53629551996E+02  0.61741909217E+02  0.00000000000E+00 0. -1.
</event>
<event>
 6    1  0.2144783E-005  0.7040760E+02  0.7818608E-02  0.1360030E+00
          2   -1    0    0  502    0  0.00000000000E+00  0.00000000000E+00  0.12427708169E+03  0.12427708169E+03  0.00000000000E+00 0. -1.
          1   -1    0    0  501    0 -0.00000000000E+00 -0.00000000000E+00 -0.11295915700E+03  0.11295915700E+03  0.00000000000E+00 0.  1.
          2    1    1    2  501    0 -0.38045747749E+02 -0.18404976604E+02  0.53200870106E+02  0.67945232839E+02  0.00000000000E+00 0. -1.
          1    1    1    2  502    0  0.22613726558E+02  0.18278907415E+02 -0.24551559608E+02  0.38056250003E+02  0.00000000000E+00 0.  1.
         22    1    1    2    0    0 -0.20075737062E+02 -0.16024855731E+02  0.48403409117E+02  0.54797091474E+02  0.00000000000E+00 0. -1.
         22    1    1    2    0    0  0.35507758253E+02  0.16150924919E+02 -0.65734794926E+02  0.76437664380E+02  0.00000000000E+00 0.  1.
</event>
<event>
 6    1  0.2144783E-005  0.7809928E+02  0.7818608E-02  0.1372193E+00
          2   -1    0    0  502    0  0.00000000000E+00  0.00000000000E+00  0.48451327234E+03  0.48451327234E+03  0.00000000000E+00 0. -1.
          1   -1    0    0  501    0 -0.00000000000E+00 -0.00000000000E+00 -0.94010633430E+02  0.94010633430E+02  0.00000000000E+00 0. -1.
          2    1    1    2  501    0 -0.10909873695E+03  0.10216658387E+02  0.16100924221E+03  0.19475854433E+03  0.00000000000E+00 0. -1.
          1    1    1    2  502    0  0.28221066332E+02 -0.57723640322E+01 -0.55618523001E+02  0.62635204735E+02  0.00000000000E+00 0. -1.
         22    1    1    2    0    0  0.10872075985E+02  0.31370010046E+01 -0.11583602631E+02  0.16193290630E+02  0.00000000000E+00 0. -1.
         22    1    1    2    0    0  0.70005594635E+02 -0.75812953595E+01  0.29669552233E+03  0.30493686607E+03  0.00000000000E+00 0. -1.
</event>
<event>
 6    1  0.2144783E-005  0.1531439E+03  0.7818608E-02  0.1252235E+00
          2   -1    0    0  502    0  0.00000000000E+00  0.00000000000E+00  0.40578361166E+03  0.40578361166E+03  0.00000000000E+00 0. -1.
          1   -1    0    0  501    0 -0.00000000000E+00 -0.00000000000E+00 -0.21071771963E+03  0.21071771963E+03  0.00000000000E+00 0.  1.
          2    1    1    2  501    0 -0.14061627726E+03 -0.51556204417E+01  0.10706805172E+02  0.14111751673E+03  0.00000000000E+00 0. -1.
          1    1    1    2  502    0  0.14407641357E+03  0.44245153730E+02 -0.87641042610E+02  0.17434620422E+03  0.00000000000E+00 0.  1.
         22    1    1    2    0    0 -0.10220388282E+02 -0.46966775325E+02  0.28233052971E+03  0.28639284615E+03  0.00000000000E+00 0. -1.
         22    1    1    2    0    0  0.67602519648E+01  0.78772420375E+01 -0.10330400249E+02  0.14644764185E+02  0.00000000000E+00 0.  1.
</event>
<event>
 6    1  0.2144783E-005  0.5167259E+02  0.7818608E-02  0.1438511E+00
          2   -1    0    0  502    0  0.00000000000E+00  0.00000000000E+00  0.67942382623E+02  0.67942382623E+02  0.00000000000E+00 0.  1.
          1   -1    0    0  501    0 -0.00000000000E+00 -0.00000000000E+00 -0.32457103066E+03  0.32457103066E+03  0.00000000000E+00 0.  1.
          2    1    1    2  501    0 -0.24497742802E+02  0.21392443080E+02 -0.15512531388E+03  0.15849807263E+03  0.00000000000E+00 0.  1.
          1    1    1    2  502    0  0.44475606940E+02  0.32300097612E+01 -0.99789216384E+02  0.10929958958E+03  0.00000000000E+00 0.  1.
         22    1    1    2    0    0  0.30115503458E+02 -0.22132730203E+02 -0.44977826950E+02  0.58479109192E+02  0.00000000000E+00 0.  1.
         22    1    1    2    0    0 -0.50093367595E+02 -0.24897226383E+01  0.43263709174E+02  0.66236641878E+02  0.00000000000E+00 0.  1.
</event>
<event>
 6    1  0.2144783E-005  0.2559172E+02  0.7818608E-02  0.1693172E+00
          2   -1    0    0  502    0  0.00000000000E+00  0.00000000000E+00  0.71961068643E+02  0.71961068643E+02  0.00000000000E+00 0.  1.
          1   -1    0    0  501    0 -0.00000000000E+00 -0.00000000000E+00 -0.21251007956E+03  0.21251007956E+03  0.00000000000E+00 0.  1.
          2    1    1    2  501    0  0.29496890835E+02 -0.34253214093E+02 -0.52719187434E+01  0.45509805227E+02  0.00000000000E+00 0.  1.
          1    1    1    2  502    0 -0.67955580876E+01  0.32609980390E+02 -0.10311772507E+03  0.10836445752E+03  0.00000000000E+00 0.  1.
         22    1    1    2    0    0 -0.13981825288E+02  0.65854626197E+01 -0.80121606995E+02  0.81598600869E+02  0.00000000000E+00 0.  1.
         22    1    1    2    0    0 -0.87195074593E+01 -0.49422289171E+01  0.47962239889E+02  0.48998284584E+02  0.00000000000E+00 0.  1.
</event>
<event>
 6    1  0.2144783E-005  0.6498491E+02  0.7818608E-02  0.1379410E+00
          2   -1    0    0  502    0  0.00000000000E+00  0.00000000000E+00  0.77320847693E+03  0.77320847693E+03  0.00000000000E+00 0.  1.
          1   -1    0    0  501    0 -0.00000000000E+00 -0.00000000000E+00 -0.61095842972E+02  0.61095842972E+02  0.00000000000E+00 0. -1.
          2    1    1    2  501    0 -0.75310679903E+02 -0.73435288927E+01  0.42890360451E+03  0.43552718387E+03  0.00000000000E+00 0.  1.
          1    1    1    2  502    0  0.24329830509E+02  0.38003230723E+02 -0.30238285475E+02  0.54318874311E+02  0.00000000000E+00 0. -1.
         22    1    1    2    0    0  0.41731649263E+02 -0.47906592738E+02  0.31806661479E+03  0.32435003256E+03  0.00000000000E+00 0.  1.
         22    1    1    2    0    0  0.92492001307E+01  0.17246890908E+02 -0.46192998639E+01  0.20108229168E+02  0.00000000000E+00 0. -1.
</event>
<event>
 6    1  0.2144783E-005  0.1107155E+03  0.7818608E-02  0.1361665E+00
          2   -1    0    0  502    0  0.00000000000E+00  0.00000000000E+00  0.11374349661E+03  0.11374349661E+03  0.00000000000E+00 0.  1.
          1   -1    0    0  501    0 -0.00000000000E+00 -0.00000000000E+00 -0.66519811194E+03  0.66519811194E+03  0.00000000000E+00 0. -1.
          2    1    1    2  501    0  0.64283601034E+01  0.72370343151E+02  0.83576332545E+02  0.11074201435E+03  0.00000000000E+00 0.  1.
          1    1    1    2  502    0 -0.44508997358E+02 -0.43176222958E+01 -0.30618248719E+03  0.30943078090E+03  0.00000000000E+00 0. -1.
         22    1    1    2    0    0  0.15683540121E+02 -0.71369712736E+01  0.55712129090E+01  0.18109340214E+02  0.00000000000E+00 0.  1.
         22    1    1    2    0    0  0.22397097133E+02 -0.60915749582E+02 -0.33441967359E+03  0.34065947307E+03  0.00000000000E+00 0. -1.
</event>
<event>
 6    1  0.2144783E-005  0.5571860E+02  0.7818608E-02  0.1522830E+00
          2   -1    0    0  502    0  0.00000000000E+00  0.00000000000E+00  0.72528234266E+02  0.72528234266E+02  0.00000000000E+00 0. -1.
          1   -1    0    0  501    0 -0.00000000000E+00 -0.00000000000E+00 -0.27664903942E+03  0.27664903942E+03  0.00000000000E+00 0. -1.
          2    1    1    2  501    0  0.34180377326E+02 -0.33620825721E+02  0.76840442624E+01  0.48556180374E+02  0.00000000000E+00 0. -1.
          1    1    1    2  502    0  0.18585607406E+02  0.69706438186E+02 -0.79445928102E+02  0.10731294339E+03  0.00000000000E+00 0. -1.
         22    1    1    2    0    0 -0.17516595113E+01 -0.12029836861E+02  0.24100587332E+02  0.26993028650E+02  0.00000000000E+00 0. -1.
         22    1    1    2    0    0 -0.51014325220E+02 -0.24055775604E+02 -0.15645950865E+03  0.16631512127E+03  0.00000000000E+00 0. -1.
</event>
<event>
 6    1  0.2144783E-005  0.2654597E+03  0.7818608E-02  0.1222779E+00
          2   -1    0    0  502    0  0.00000000000E+00  0.00000000000E+00  0.18189820808E+03  0.18189820808E+03  0.00000000000E+00 0. -1.
          1   -1    0    0  501    0 -0.00000000000E+00 -0.00000000000E+00 -0.73475970073E+03  0.73475970073E+03  0.00000000000E+00 0. -1.
          2    1    1    2  501    0 -0.36226087015E+02  0.26122565848E+03 -0.10841415591E+02  0.26394830994E+03  0.00000000000E+00 0. -1.
          1    1    1    2  502    0  0.19245907930E+02 -0.20163783087E+03 -0.41700070487E+03  0.46359228603E+03  0.00000000000E+00 0. -1.
         22    1    1    2    0    0 -0.15308834043E+02 -0.69902009024E+01  0.23142628338E+02  0.28614761135E+02  0.00000000000E+00 0.  1.
         22    1    1    2    0    0  0.32289013128E+02 -0.52597626711E+02 -0.14816200053E+03  0.16050255171E+03  0.00000000000E+00 0. -1.
</event>
<event>
 6    1  0.2144783E-005  0.9377036E+02  0.7818608E-02  0.1371713E+00
          2   -1    0    0  502    0  0.00000000000E+00  0.00000000000E+00  0.51551626027E+03  0.51551626027E+03  0.00000000000E+00 0.  1.
          1   -1    0    0  501    0 -0.00000000000E+00 -0.00000000000E+00 -0.24478464666E+03  0.24478464666E+03  0.00000000000E+00 0. -1.
          2    1    1    2  501    0 -0.10040446927E+03  0.28755309585E+02  0.45442307927E+03  0.46627058695E+03  0.00000000000E+00 0.  1.
          1    1    1    2  502    0  0.77406057258E+02  0.31683452505E+02 -0.94819687384E+02  0.12643698817E+03  0.00000000000E+00 0. -1.
         22    1    1    2    0    0  0.42089376232E+02 -0.62434508621E+02 -0.11360061323E+03  0.13628896795E+03  0.00000000000E+00 0. -1.
         22    1    1    2    0    0 -0.19090964221E+02  0.19957465302E+01  0.24728834949E+02  0.31304363866E+02  0.00000000000E+00 0.  1.
</event>
<event>
 6    1  0.2144783E-005  0.1483724E+03  0.7818608E-02  0.1257744E+00
          2   -1    0    0  502    0  0.00000000000E+00  0.00000000000E+00  0.14815236708E+03  0.14815236708E+03  0.00000000000E+00 0.  1.
          1   -1    0    0  501    0 -0.00000000000E+00 -0.00000000000E+00 -0.33049284946E+03  0.33049284946E+03  0.00000000000E+00 0.  1.
          2    1    1    2  501    0  0.51063448944E+02 -0.11225995450E+03  0.41169175374E+02  0.13001797646E+03  0.00000000000E+00 0.  1.
          1    1    1    2  502    0 -0.69186177262E+02  0.97267132787E+02 -0.17171165310E+03  0.20912320305E+03  0.00000000000E+00 0.  1.
         22    1    1    2    0    0  0.47277476622E+02  0.32337712579E+01  0.27088796181E+02  0.54584063158E+02  0.00000000000E+00 0.  1.
         22    1    1    2    0    0 -0.29154748303E+02  0.11759050458E+02 -0.78886800828E+02  0.84919973865E+02  0.00000000000E+00 0.  1.
</event>
<event>
 6    1  0.2144783E-005  0.2984392E+02  0.7818608E-02  0.1622369E+00
          2   -1    0    0  502    0  0.00000000000E+00  0.00000000000E+00  0.15546940918E+03  0.15546940918E+03  0.00000000000E+00 0.  1.
          1   -1    0    0  501    0 -0.00000000000E+00 -0.00000000000E+00 -0.37375738788E+03  0.37375738788E+03  0.00000000000E+00 0.  1.
          2    1    1    2  501    0 -0.18135391193E+02 -0.33624682698E+02  0.11364675834E+03  0.11989619419E+03  0.00000000000E+00 0.  1.
          1    1    1    2  502    0 -0.22121228483E+02  0.47677247021E+02 -0.24201768239E+03  0.24765909477E+03  0.00000000000E+00 0.  1.
         22    1    1    2    0    0  0.18775852746E+02 -0.22137184424E+01  0.32078253445E+02  0.37235031083E+02  0.00000000000E+00 0. -1.
         22    1    1    2    0    0  0.21480766930E+02 -0.11838845881E+02 -0.12199530809E+03  0.12443647703E+03  0.00000000000E+00 0. -1.
</event>
<event>
 6    1  0.2144783E-005  0.5271384E+02  0.7818608E-02  0.1507693E+00
          2   -1    0    0  502    0  0.00000000000E+00  0.00000000000E+00  0.17881734756E+03  0.17881734756E+03  0.00000000000E+00 0.  1.
          1   -1    0    0  501    0 -0.00000000000E+00 -0.00000000000E+00 -0.23891105255E+03  0.23891105255E+03  0.00000000000E+00 0.  1.
          2    1    1    2  501    0  0.20305513971E+02 -0.20181411792E+02  0.14633306981E+03  0.14910724529E+03  0.00000000000E+00 0.  1.
          1    1    1    2  502    0 -0.64038596053E+01  0.20575827470E+02 -0.98469415601E+02  0.10079980110E+03  0.00000000000E+00 0.  1.
         22    1    1    2    0    0 -0.31033315279E+02 -0.44303048254E+01 -0.13331666932E+03  0.13695265085E+03  0.00000000000E+00 0. -1.
         22    1    1    2    0    0  0.17131660913E+02  0.40358891475E+01  0.25359310114E+02  0.30868702861E+02  0.00000000000E+00 0.  1.
</event>
<event>
 6    1  0.2144783E-005  0.9599148E+02  0.7818608E-02  0.1369842E+00
          2   -1    0    0  502    0  0.00000000000E+00  0.00000000000E+00  0.10207933873E+03  0.10207933873E+03  0.00000000000E+00 0.  1.
          1   -1    0    0  501    0 -0.00000000000E+00 -0.00000000000E+00 -0.23175962660E+03  0.23175962660E+03  0.00000000000E+00 0.  1.
          2    1    1    2  501    0  0.20612472262E+01  0.60382318742E+02 -0.97301217069E+02  0.11453296469E+03  0.00000000000E+00 0.  1.
          1    1    1    2  502    0  0.43027790965E+02 -0.19001656670E+02 -0.63245384938E+02  0.78818985451E+02  0.00000000000E+00 0.  1.
         22    1    1    2    0    0 -0.22521581804E+02 -0.46173630497E+02 -0.40542370021E+02  0.65443942173E+02  0.00000000000E+00 0.  1.
         22    1    1    2    0    0 -0.22567456388E+02  0.47929684239E+01  0.71408684161E+02  0.75043073016E+02  0.00000000000E+00 0.  1.
</event>
<event>
 6    1  0.2144783E-005  0.4102208E+03  0.7818608E-02  0.1120622E+00
          2   -1    0    0  502    0  0.00000000000E+00  0.00000000000E+00  0.22445844319E+03  0.22445844319E+03  0.00000000000E+00 0. -1.
          1   -1    0    0  501    0 -0.00000000000E+00 -0.00000000000E+00 -0.11005936033E+04  0.11005936033E+04  0.00000000000E+00 0.  1.
          2    1    1    2  501    0  0.39190247008E+03  0.38299781090E+02 -0.13375195441E+03  0.41586536835E+03  0.00000000000E+00 0. -1.
          1    1    1    2  502    0 -0.34985299954E+03 -0.13945666567E+02 -0.66392388076E+03  0.75059078221E+03  0.00000000000E+00 0.  1.
         22    1    1    2    0    0 -0.60540768290E+02  0.18937595587E+02 -0.90017278845E+02  0.11012233035E+03  0.00000000000E+00 0.  1.
         22    1    1    2    0    0  0.18491297748E+02 -0.43291710111E+02  0.11557953931E+02  0.48473565536E+02  0.00000000000E+00 0. -1.
</event>
<event>
 6    1  0.2144783E-005  0.5548659E+02  0.7818608E-02  0.1449684E+00
          2   -1    0    0  502    0  0.00000000000E+00  0.00000000000E+00  0.11456166331E+03  0.11456166331E+03  0.00000000000E+00 0. -1.
          1   -1    0    0  501    0 -0.00000000000E+00 -0.00000000000E+00 -0.61359741197E+03  0.61359741197E+03  0.00000000000E+00 0. -1.
          2    1    1    2  501    0  0.12462215905E+03  0.12938029173E+03 -0.16403984224E+03  0.24326736784E+03  0.00000000000E+00 0. -1.
          1    1    1    2  502    0 -0.12127131886E+03 -0.12309067042E+03 -0.30786381269E+03  0.35304131923E+03  0.00000000000E+00 0. -1.
         22    1    1    2    0    0  0.62767147337E+00  0.10632588589E+02  0.50850360478E+02  0.51953874469E+02  0.00000000000E+00 0. -1.
         22    1    1    2    0    0 -0.39785116697E+01 -0.16922209907E+02 -0.77982454214E+02  0.79896513744E+02  0.00000000000E+00 0. -1.
</event>
<event>
 6    1  0.2144783E-005  0.7980841E+02  0.7818608E-02  0.1347631E+00
          2   -1    0    0  502    0  0.00000000000E+00  0.00000000000E+00  0.41379566625E+03  0.41379566625E+03  0.00000000000E+00 0. -1.
          1   -1    0    0  501    0 -0.00000000000E+00 -0.00000000000E+00 -0.58448611167E+02  0.58448611167E+02  0.00000000000E+00 0. -1.
          2    1    1    2  501    0  0.11090018333E+03  0.10969231171E+02  0.13189091155E+03  0.17266843152E+03  0.00000000000E+00 0. -1.
          1    1    1    2  502    0 -0.15874376330E+02  0.15800414160E+02 -0.14786364549E+01  0.22446275354E+02  0.00000000000E+00 0. -1.
         22    1    1    2    0    0 -0.49748635164E+02  0.10040313657E+02  0.66566829583E+01  0.51186385172E+02  0.00000000000E+00 0. -1.
         22    1    1    2    0    0 -0.45277171837E+02 -0.36809958988E+02  0.21827809703E+03  0.22594318537E+03  0.00000000000E+00 0. -1.
</event>
<event>
 6    1  0.2144783E-005  0.1496922E+03  0.7818608E-02  0.1201537E+00
          2   -1    0    0  502    0  0.00000000000E+00  0.00000000000E+00  0.80253438577E+03  0.80253438577E+03  0.00000000000E+00 0. -1.
          1   -1    0    0  501    0 -0.00000000000E+00 -0.00000000000E+00 -0.29240296941E+03  0.29240296941E+03  0.00000000000E+00 0.  1.
          2    1    1    2  501    0  0.30372192242E+02  0.11314197550E+03  0.66588413286E+03  0.67611038676E+03  0.00000000000E+00 0. -1.
          1    1    1    2  502    0 -0.51192240806E+02 -0.11051631273E+03 -0.23855180853E+03  0.26784597487E+03  0.00000000000E+00 0.  1.
         22    1    1    2    0    0  0.21653420474E+02  0.21156039552E+02  0.11043651650E+03  0.11451057944E+03  0.00000000000E+00 0. -1.
         22    1    1    2    0    0 -0.83337190974E+00 -0.23781702321E+02 -0.27637424476E+02  0.36470414115E+02  0.00000000000E+00 0.  1.
</event>
<event>
 6    1  0.2144783E-005  0.5491615E+02  0.7818608E-02  0.1513264E+00
          2   -1    0    0  502    0  0.00000000000E+00  0.00000000000E+00  0.47346367640E+02  0.47346367640E+02  0.00000000000E+00 0.  1.
          1   -1    0    0  501    0 -0.00000000000E+00 -0.00000000000E+00 -0.29036182694E+03  0.29036182694E+03  0.00000000000E+00 0.  1.
          2    1    1    2  501    0 -0.28617075675E+02 -0.16199898474E+02 -0.40981403700E+02  0.52543783457E+02  0.00000000000E+00 0.  1.
          1    1    1    2  502    0  0.14346587763E+02 -0.22450451708E+02 -0.13080995506E+03  0.13349566174E+03  0.00000000000E+00 0.  1.
         22    1    1    2    0    0  0.87589865230E+01  0.25308649287E+02 -0.10846792899E+03  0.11172528448E+03  0.00000000000E+00 0.  1.
         22    1    1    2    0    0  0.55115013893E+01  0.13341700895E+02  0.37243828448E+02  0.39943464895E+02  0.00000000000E+00 0.  1.
</event>
<event>
 6    1  0.2144783E-005  0.4524967E+02  0.7818608E-02  0.1474583E+00
          2   -1    0    0  502    0  0.00000000000E+00  0.00000000000E+00  0.10268300574E+03  0.10268300574E+03  0.00000000000E+00 0.  1.
          1   -1    0    0  501    0 -0.00000000000E+00 -0.00000000000E+00 -0.10430612961E+03  0.10430612961E+03  0.00000000000E+00 0.  1.
          2    1    1    2  501    0  0.57469618136E+01 -0.21693297615E+02  0.35687514576E+02  0.42157151565E+02  0.00000000000E+00 0.  1.
          1    1    1    2  502    0 -0.15951023354E+00  0.20202566173E+02 -0.32444644436E+02  0.38220728356E+02  0.00000000000E+00 0.  1.
         22    1    1    2    0    0 -0.91069203087E+00  0.22682061185E+02 -0.61716876414E+02  0.65759243410E+02  0.00000000000E+00 0.  1.
         22    1    1    2    0    0 -0.46767595491E+01 -0.21191329744E+02  0.56850882401E+02  0.60852012012E+02  0.00000000000E+00 0.  1.
</event>
<event>
 6    1  0.2144783E-005  0.6131621E+02  0.7818608E-02  0.1469826E+00
          2   -1    0    0  502    0  0.00000000000E+00  0.00000000000E+00  0.20567498862E+03  0.20567498862E+03  0.00000000000E+00 0.  1.
          1   -1    0    0  501    0 -0.00000000000E+00 -0.00000000000E+00 -0.83709944620E+02  0.83709944620E+02  0.00000000000E+00 0. -1.
          2    1    1    2  501    0 -0.25966355122E+02  0.57297975808E+02  0.72856812298E+02  0.96257076250E+02  0.00000000000E+00 0.  1.
          1    1    1    2  502    0  0.28043815874E+02 -0.24300827808E+02 -0.26254169407E+02  0.45456212470E+02  0.00000000000E+00 0. -1.
         22    1    1    2    0    0 -0.13133747238E+02 -0.13692439122E+02  0.10718092563E+03  0.10884727385E+03  0.00000000000E+00 0.  1.
         22    1    1    2    0    0  0.11056286486E+02 -0.19304708878E+02 -0.31818524517E+02  0.38824370674E+02  0.00000000000E+00 0. -1.
</event>
<event>
 6    1  0.2144783E-005  0.6532220E+02  0.7818608E-02  0.1449199E+00
          2   -1    0    0  502    0  0.00000000000E+00  0.00000000000E+00  0.47471106127E+03  0.47471106127E+03  0.00000000000E+00 0. -1.
          1   -1    0    0  501    0 -0.00000000000E+00 -0.00000000000E+00 -0.68497458080E+02  0.68497458080E+02  0.00000000000E+00 0.  1.
          2    1    1    2  501    0 -0.73173399492E+02 -0.38680964338E+02  0.13160919451E+03  0.15547200222E+03  0.00000000000E+00 0. -1.
          1    1    1    2  502    0  0.10420117005E+03  0.18354928407E+02  0.32535115884E+02  0.11069471984E+03  0.00000000000E+00 0.  1.
         22    1    1    2    0    0 -0.41321985099E+02  0.11143630073E+02  0.25474062355E+03  0.25831080549E+03  0.00000000000E+00 0. -1.
         22    1    1    2    0    0  0.10294214545E+02  0.91824058580E+01 -0.12671330758E+02  0.18730991795E+02  0.00000000000E+00 0. -1.
</event>
<event>
 6    1  0.2144783E-005  0.1197146E+03  0.7818608E-02  0.1298256E+00
          2   -1    0    0  502    0  0.00000000000E+00  0.00000000000E+00  0.88813728549E+03  0.88813728549E+03  0.00000000000E+00 0.  1.
          1   -1    0    0  501    0 -0.00000000000E+00 -0.00000000000E+00 -0.27047633666E+02  0.27047633666E+02  0.00000000000E+00 0.  1.
          2    1    1    2  501    0  0.21725025798E+02 -0.24246647466E+02 -0.35740625298E+01  0.32751344739E+02  0.00000000000E+00 0.  1.
          1    1    1    2  502    0  0.28833728392E+02  0.30836123767E+02  0.24087899506E+03  0.24455048698E+03  0.00000000000E+00 0.  1.
         22    1    1    2    0    0  0.41139405913E+02 -0.62998545206E+01  0.20308066674E+03  0.20730146186E+03  0.00000000000E+00 0.  1.
         22    1    1    2    0    0 -0.91698160103E+02 -0.28962178051E+00  0.42070405256E+03  0.43058162558E+03  0.00000000000E+00 0.  1.
</event>
<event>
 6    1  0.2144783E-005  0.2610258E+03  0.7818608E-02  0.1209941E+00
          2   -1    0    0  502    0  0.00000000000E+00  0.00000000000E+00  0.24989891808E+04  0.24989891808E+04  0.00000000000E+00 0.  1.
          1   -1    0    0  501    0 -0.00000000000E+00 -0.00000000000E+00 -0.73103721802E+02  0.73103721802E+02  0.00000000000E+00 0.  1.
          2    1    1    2  501    0 -0.15095075375E+03  0.12101594160E+03  0.21588712507E+04  0.21675230253E+04  0.00000000000E+00 0.  1.
          1    1    1    2  502    0  0.19756026635E+02 -0.11919894042E+03  0.14192026159E+03  0.18638682527E+03  0.00000000000E+00 0.  1.
         22    1    1    2    0    0  0.52977339657E+01  0.22603985402E+02  0.78299152734E+02  0.81668619801E+02  0.00000000000E+00 0. -1.
         22    1    1    2    0    0  0.12589699315E+03 -0.24420986587E+02  0.46794794023E+02  0.13651443227E+03  0.00000000000E+00 0.  1.
</event>
<event>
 6    1  0.2144783E-005  0.3555412E+02  0.7818608E-02  0.1579060E+00
          2   -1    0    0  502    0  0.00000000000E+00  0.00000000000E+00  0.65057307431E+03  0.65057307431E+03  0.00000000000E+00 0.  1.
          1   -1    0    0  501    0 -0.00000000000E+00 -0.00000000000E+00 -0.21689171465E+03  0.21689171465E+03  0.00000000000E+00 0. -1.
          2    1    1    2  501    0 -0.23921616751E+02  0.53748531028E+02  0.56469405399E+03  0.56775040550E+03  0.00000000000E+00 0.  1.
          1    1    1    2  502    0  0.38682916948E+02 -0.25239418520E+02 -0.16055050719E+03  0.16706244841E+03  0.00000000000E+00 0. -1.
         22    1    1    2    0    0  0.13352754222E+02 -0.14839083466E+02  0.74926024515E+02  0.77539690437E+02  0.00000000000E+00 0.  1.
         22    1    1    2    0    0 -0.28114054420E+02 -0.13670029042E+02 -0.45388211651E+02  0.55112244618E+02  0.00000000000E+00 0. -1.
</event>
<event>
 6    1  0.2144783E-005  0.1091344E+03  0.7818608E-02  0.1335273E+00
          2   -1    0    0  502    0  0.00000000000E+00  0.00000000000E+00  0.15759145294E+03  0.15759145294E+03  0.00000000000E+00 0. -1.
          1   -1    0    0  501    0 -0.00000000000E+00 -0.00000000000E+00 -0.44312655593E+03  0.44312655593E+03  0.00000000000E+00 0.  1.
          2    1    1    2  501    0  0.21320373484E+02 -0.67168902289E+02  0.12070551755E+03  0.13977139095E+03  0.00000000000E+00 0. -1.
          1    1    1    2  502    0  0.19583396240E+00  0.50092758688E+02 -0.25993874754E+03  0.26472150517E+03  0.00000000000E+00 0.  1.
         22    1    1    2    0    0  0.19882316567E+02 -0.20075635412E+02  0.10272008333E+02  0.30064128201E+02  0.00000000000E+00 0. -1.
         22    1    1    2    0    0 -0.41398524013E+02  0.37151779014E+02 -0.15657388133E+03  0.16616098455E+03  0.00000000000E+00 0.  1.
</event>
<event>
 6    1  0.2144783E-005  0.1498926E+03  0.7818608E-02  0.1303734E+00
          2   -1    0    0  502    0  0.00000000000E+00  0.00000000000E+00  0.46103893373E+02  0.46103893373E+02  0.00000000000E+00 0. -1.
          1   -1    0    0  501    0 -0.00000000000E+00 -0.00000000000E+00 -0.66412807095E+03  0.66412807095E+03  0.00000000000E+00 0. -1.
          2    1    1    2  501    0  0.12875927682E+03 -0.50684904445E+02 -0.22974560058E+03  0.26819946289E+03  0.00000000000E+00 0. -1.
          1    1    1    2  502    0 -0.66628059576E+02  0.21034907588E+02 -0.11528803403E+03  0.13480762756E+03  0.00000000000E+00 0. -1.
         22    1    1    2    0    0 -0.65335263902E+02  0.10750507855E+02 -0.27930206436E+03  0.28704339965E+03  0.00000000000E+00 0.  1.
         22    1    1    2    0    0  0.32040466574E+01  0.18899489003E+02  0.63115213876E+01  0.20181474222E+02  0.00000000000E+00 0. -1.
</event>
<event>
 6    1  0.2144783E-005  0.3254689E+03  0.7818608E-02  0.1187665E+00
          2   -1    0    0  502    0  0.00000000000E+00  0.00000000000E+00  0.69938360780E+03  0.69938360780E+03  0.00000000000E+00 0.  1.
          1   -1    0    0  501    0 -0.00000000000E+00 -0.00000000000E+00 -0.26098685577E+03  0.26098685577E+03  0.00000000000E+00 0. -1.
          2    1    1    2  501    0  0.28829933946E+02  0.19116264683E+03  0.47782784677E+03  0.51545491926E+03  0.00000000000E+00 0.  1.
          1    1    1    2  502    0  0.44431094508E+02 -0.56796919414E+02 -0.18547195181E+03  0.19899712843E+03  0.00000000000E+00 0. -1.
         22    1    1    2    0    0 -0.19167200729E+02 -0.32959949537E+01  0.92228837086E+02  0.94257114091E+02  0.00000000000E+00 0. -1.
         22    1    1    2    0    0 -0.54093827725E+02 -0.13106973247E+03  0.53812019980E+02  0.15166130179E+03  0.00000000000E+00 0.  1.
</event>
<event>
 6    1  0.2144783E-005  0.7283341E+02  0.7818608E-02  0.1351482E+00
          2   -1    0    0  502    0  0.00000000000E+00  0.00000000000E+00  0.45161247898E+03  0.45161247898E+03  0.00000000000E+00 0.  1.
          1   -1    0    0  501    0 -0.00000000000E+00 -0.00000000000E+00 -0.10853308436E+03  0.10853308436E+03  0.00000000000E+00 0. -1.
          2    1    1    2  501    0 -0.13620965189E+03 -0.28510680867E+01  0.54450368196E+01  0.13634825369E+03  0.00000000000E+00 0.  1.
          1    1    1    2  502    0  0.11236522432E+03  0.38634764446E+02  0.19259482873E+03  0.22629926362E+03  0.00000000000E+00 0. -1.
         22    1    1    2    0    0 -0.25307832961E+02 -0.46236904789E+02  0.13676373908E+03  0.14656963567E+03  0.00000000000E+00 0.  1.
         22    1    1    2    0    0  0.49152260529E+02  0.10453208429E+02  0.82757899931E+01  0.50928410358E+02  0.00000000000E+00 0.  1.
</event>
<event>
 6    1  0.2144783E-005  0.7228627E+02  0.7818608E-02  0.1405707E+00
          2   -1    0    0  502    0  0.00000000000E+00  0.00000000000E+00  0.52711616540E+02  0.52711616540E+02  0.00000000000E+00 0.  1.
          1   -1    0    0  501    0 -0.00000000000E+00 -0.00000000000E+00 -0.49140667158E+03  0.49140667158E+03  0.00000000000E+00 0.  1.
          2    1    1    2  501    0  0.10690028424E+02  0.44401867733E+02 -0.26364600962E+02  0.52734189571E+02  0.00000000000E+00 0.  1.
          1    1    1    2  502    0 -0.32550085483E+01  0.20751461077E+02 -0.31828029953E+03  0.31897267483E+03  0.00000000000E+00 0.  1.
         22    1    1    2    0    0 -0.15092200950E+01 -0.35440471340E+02 -0.12450074046E+03  0.12945554886E+03  0.00000000000E+00 0.  1.
         22    1    1    2    0    0 -0.59257997804E+01 -0.29712857470E+02  0.30450585920E+02  0.42955874859E+02  0.00000000000E+00 0.  1.
</event>
<event>
 6    1  0.2144783E-005  0.1076768E+03  0.7818608E-02  0.1390049E+00
          2   -1    0    0  502    0  0.00000000000E+00  0.00000000000E+00  0.51544030121E+02  0.51544030121E+02  0.00000000000E+00 0.  1.
          1   -1    0    0  501    0 -0.00000000000E+00 -0.00000000000E+00 -0.47789222387E+03  0.47789222387E+03  0.00000000000E+00 0.  1.
          2    1    1    2  501    0  0.14695476079E+02 -0.79410005088E+02 -0.15182496521E+02  0.82173074214E+02  0.00000000000E+00 0.  1.
          1    1    1    2  502    0 -0.27438619947E+02  0.35507215595E+02 -0.10657025212E+03  0.11563242997E+03  0.00000000000E+00 0.  1.
         22    1    1    2    0    0  0.94826483132E+01  0.55197029030E+02 -0.31249085884E+03  0.31746995053E+03  0.00000000000E+00 0.  1.
         22    1    1    2    0    0  0.32604955545E+01 -0.11294239538E+02  0.78954137343E+01  0.14160799272E+02  0.00000000000E+00 0.  1.
</event>
<event>
 6    1  0.2144783E-005  0.3934412E+02  0.7818608E-02  0.1565426E+00
          2   -1    0    0  502    0  0.00000000000E+00  0.00000000000E+00  0.17441865472E+03  0.17441865472E+03  0.00000000000E+00 0. -1.
          1   -1    0    0  501    0 -0.00000000000E+00 -0.00000000000E+00 -0.21577842981E+03  0.21577842981E+03  0.00000000000E+00 0. -1.
          2    1    1    2  501    0 -0.30203125501E+02  0.25822512470E+02  0.11854920168E+03  0.12503177260E+03  0.00000000000E+00 0. -1.
          1    1    1    2  502    0  0.46002231831E+02 -0.97752043355E+00 -0.12564914304E+03  0.13380907304E+03  0.00000000000E+00 0. -1.
         22    1    1    2    0    0 -0.24866231407E+02 -0.13752200775E+02  0.43680598904E+02  0.52109953091E+02  0.00000000000E+00 0.  1.
         22    1    1    2    0    0  0.90671250765E+01 -0.11092791261E+02 -0.77940432635E+02  0.79246285809E+02  0.00000000000E+00 0.  1.
</event>
<event>
 6    1  0.2144783E-005  0.1210877E+03  0.7818608E-02  0.1313041E+00
          2   -1    0    0  502    0  0.00000000000E+00  0.00000000000E+00  0.46343282848E+02  0.46343282848E+02  0.00000000000E+00 0. -1.
          1   -1    0    0  501    0 -0.00000000000E+00 -0.00000000000E+00 -0.78837666032E+03  0.78837666032E+03  0.00000000000E+00 0. -1.
          2    1    1    2  501    0  0.38654793019E+02 -0.10551133032E+03 -0.71036140216E+02  0.13293971215E+03  0.00000000000E+00 0. -1.
          1    1    1    2  502    0 -0.42634256922E+02  0.27797701830E+02 -0.28340086612E+03  0.28793478950E+03  0.00000000000E+00 0. -1.
         22    1    1    2    0    0  0.28676437975E+02  0.10954553662E+02 -0.14374530465E+02  0.33896422628E+02  0.00000000000E+00 0. -1.
         22    1    1    2    0    0 -0.24696974072E+02  0.66759074826E+02 -0.37322184067E+03  0.37994901889E+03  0.00000000000E+00 0.  1.
</event>
<event>
 6    1  0.2144783E-005  0.1624137E+03  0.7818608E-02  0.1286998E+00
          2   -1    0    0  502    0  0.00000000000E+00  0.00000000000E+00  0.34416950570E+03  0.34416950570E+03  0.00000000000E+00 0.  1.
          1   -1    0    0  501    0 -0.00000000000E+00 -0.00000000000E+00 -0.41135787560E+03  0.41135787560E+03  0.00000000000E+00 0. -1.
          2    1    1    2  501    0 -0.13051936107E+03 -0.49190257604E+02  0.20536153762E+03  0.24825057138E+03  0.00000000000E+00 0.  1.
          1    1    1    2  502    0  0.13193686597E+03  0.43996781092E+02 -0.33975462009E+03  0.36711885708E+03  0.00000000000E+00 0. -1.
         22    1    1    2    0    0  0.16487474266E+02  0.15302534821E+02 -0.31849451676E+02  0.38992203729E+02  0.00000000000E+00 0.  1.
         22    1    1    2    0    0 -0.17904979163E+02 -0.10109058308E+02  0.99054164247E+02  0.10116574911E+03  0.00000000000E+00 0.  1.
</event>
<event>
 6    1  0.2144783E-005  0.9860025E+02  0.7818608E-02  0.1414352E+00
          2   -1    0    0  502    0  0.00000000000E+00  0.00000000000E+00  0.11957416777E+03  0.11957416777E+03  0.00000000000E+00 0.  1.
          1   -1    0    0  501    0 -0.00000000000E+00 -0.00000000000E+00 -0.25923883790E+03  0.25923883790E+03  0.00000000000E+00 0. -1.
          2    1    1    2  501    0 -0.51592260095E+02 -0.77523748869E+02  0.48681486827E+02  0.10507892320E+03  0.00000000000E+00 0.  1.
          1    1    1    2  502    0  0.20267792527E+02  0.50623435417E+02 -0.99268516028E+02  0.11325967465E+03  0.00000000000E+00 0. -1.
         22    1    1    2    0    0  0.37364198499E+02  0.18394703626E+02 -0.12043229241E+03  0.12742992390E+03  0.00000000000E+00 0.  1.
         22    1    1    2    0    0 -0.60397309311E+01  0.85056098260E+01  0.31354651480E+02  0.33044483922E+02  0.00000000000E+00 0.  1.
</event>
<event>
 6    1  0.2144783E-005  0.1168271E+03  0.7818608E-02  0.1258381E+00
          2   -1    0    0  502    0  0.00000000000E+00  0.00000000000E+00  0.25143784080E+03  0.25143784080E+03  0.00000000000E+00 0. -1.
          1   -1    0    0  501    0 -0.00000000000E+00 -0.00000000000E+00 -0.47293384685E+03  0.47293384685E+03  0.00000000000E+00 0. -1.
          2    1    1    2  501    0  0.10227516798E+03 -0.17192848041E+03  0.14712945596E+03  0.24832778574E+03  0.00000000000E+00 0. -1.
          1    1    1    2  502    0 -0.37767946822E+02  0.38379451543E+02 -0.23968656579E+03  0.24566043623E+03  0.00000000000E+00 0. -1.
         22    1    1    2    0    0 -0.32435874672E+02  0.90206448261E+02 -0.58918899898E+01  0.96041676585E+02  0.00000000000E+00 0.  1.
         22    1    1    2    0    0 -0.32071346485E+02  0.43342580602E+02 -0.12304700623E+03  0.13434178911E+03  0.00000000000E+00 0.  1.
</event>
<event>
 6    1  0.2144783E-005  0.1035262E+03  0.7818608E-02  0.1350813E+00
          2   -1    0    0  502    0  0.00000000000E+00  0.00000000000E+00  0.58366057872E+02  0.58366057872E+02  0.00000000000E+00 0. -1.
          1   -1    0    0  501    0 -0.00000000000E+00 -0.00000000000E+00 -0.56087549413E+03  0.56087549413E+03  0.00000000000E+00 0. -1.
          2    1    1    2  501    0  0.80384203036E+02  0.75543122598E+02 -0.19081540035E+03  0.22040621697E+03  0.00000000000E+00 0. -1.
          1    1    1    2  502    0 -0.54100143350E+02 -0.50682922577E+02 -0.23949547421E+03  0.25070633482E+03  0.00000000000E+00 0. -1.
         22    1    1    2    0    0 -0.10024972078E+01 -0.23487615680E+02 -0.10448611690E+03  0.10709818727E+03  0.00000000000E+00 0. -1.
         22    1    1    2    0    0 -0.25281562478E+02 -0.13725843413E+01  0.32287555207E+02  0.41030812938E+02  0.00000000000E+00 0. -1.
</event>
<event>
 6    1  0.2144783E-005  0.6115189E+02  0.7818608E-02  0.1422674E+00
          2   -1    0    0  502    0  0.00000000000E+00  0.00000000000E+00  0.30994592370E+03  0.30994592370E+03  0.00000000000E+00 0. -1.
          1   -1    0    0  501    0 -0.00000000000E+00 -0.00000000000E+00 -0.32850712573E+02  0.32850712573E+02  0.00000000000E+00 0. -1.
          2    1    1    2  501    0  0.65980697295E+01 -0.39306612646E+02  0.88540465209E+02  0.97097674026E+02  0.00000000000E+00 0. -1.
          1    1    1    2  502    0 -0.32001073882E+01  0.24331230290E+02  0.10751437127E+02  0.26792589554E+02  0.00000000000E+00 0. -1.
         22    1    1    2    0    0  0.30873645852E+02  0.32437223214E+02  0.88720999293E+01  0.45651611310E+02  0.00000000000E+00 0. -1.
         22    1    1    2    0    0 -0.34271608193E+02 -0.17461840858E+02  0.16893120887E+03  0.17325476139E+03  0.00000000000E+00 0. -1.
</event>
<event>
 6    1  0.2144783E-005  0.1296971E+03  0.7818608E-02  0.1273155E+00
          2   -1    0    0  502    0  0.00000000000E+00  0.00000000000E+00  0.43416992785E+03  0.43416992785E+03  0.00000000000E+00 0. -1.
          1   -1    0    0  501    0 -0.00000000000E+00 -0.00000000000E+00 -0.59311174882E+03  0.59311174882E+03  0.00000000000E+00 0. -1.
          2    1    1    2  501    0  0.89217445080E+02 -0.86610987114E+02 -0.55653969196E+03  0.57026103174E+03  0.00000000000E+00 0. -1.
          1    1    1    2  502    0 -0.80780793672E+02  0.33959290093E+02  0.20397423309E+03  0.22200058057E+03  0.00000000000E+00 0. -1.
         22    1    1    2    0    0 -0.60941554185E+02  0.50571267777E+02  0.13302085011E+03  0.15480914933E+03  0.00000000000E+00 0.  1.
         22    1    1    2    0    0  0.52504902777E+02  0.20804292437E+01  0.60602787791E+02  0.80210915027E+02  0.00000000000E+00 0. -1.
</event>
<event>
 6    1  0.2144783E-005  0.7864580E+02  0.7818608E-02  0.1408175E+00
          2   -1    0    0  502    0  0.00000000000E+00  0.00000000000E+00  0.38693411740E+03  0.38693411740E+03  0.00000000000E+00 0.  1.
          1   -1    0    0  501    0 -0.00000000000E+00 -0.00000000000E+00 -0.47706555833E+02  0.47706555833E+02  0.00000000000E+00 0. -1.
          2    1    1    2  501    0 -0.56501206998E+01 -0.69585918124E+02  0.21774177951E+03  0.22866046096E+03  0.00000000000E+00 0.  1.
          1    1    1    2  502    0 -0.74695198815E+01  0.27597210643E+02  0.12289643175E+02  0.31119689778E+02  0.00000000000E+00 0. -1.
         22    1    1    2    0    0 -0.92615970363E+01  0.45360857947E+02 -0.14963419249E+02  0.48654789373E+02  0.00000000000E+00 0. -1.
         22    1    1    2    0    0  0.22381237618E+02 -0.33721504658E+01  0.12415955813E+03  0.12620573312E+03  0.00000000000E+00 0. -1.
</event>
<event>
 6    1  0.2144783E-005  0.1783937E+03  0.7818608E-02  0.1259971E+00
          2   -1    0    0  502    0  0.00000000000E+00  0.00000000000E+00  0.17871757931E+03  0.17871757931E+03  0.00000000000E+00 0.  1.
          1   -1    0    0  501    0 -0.00000000000E+00 -0.00000000000E+00 -0.37086277321E+03  0.37086277321E+03  0.00000000000E+00 0.  1.
          2    1    1    2  501    0 -0.15068795515E+03  0.38773061818E+02  0.45122081459E+02  0.16200682821E+03  0.00000000000E+00 0.  1.
          1    1    1    2  502    0  0.14668870478E+03 -0.42534934300E+02 -0.21383365864E+03  0.26277676898E+03  0.00000000000E+00 0.  1.
         22    1    1    2    0    0  0.26636850937E+02 -0.92166838816E+01 -0.67744019123E+02  0.73373845589E+02  0.00000000000E+00 0. -1.
         22    1    1    2    0    0 -0.22637600569E+02  0.12978556364E+02  0.44310402409E+02  0.51422909743E+02  0.00000000000E+00 0.  1.
</event>
<event>
 6    1  0.2144783E-005  0.6145312E+02  0.7818608E-02  0.1456965E+00
          2   -1    0    0  502    0  0.00000000000E+00  0.00000000000E+00  0.10562181151E+03  0.10562181151E+03  0.00000000000E+00 0. -1.
          1   -1    0    0  501    0 -0.00000000000E+00 -0.00000000000E+00 -0.17600326475E+03  0.17600326475E+03  0.00000000000E+00 0.  1.
          2    1    1    2  501    0  0.58590607190E+02 -0.89996184594E+01  0.57812746248E+02  0.82801968649E+02  0.00000000000E+00 0. -1.
          1    1    1    2  502    0 -0.20017620742E+02 -0.65491814155E+01 -0.28721015793E+02  0.35615918710E+02  0.00000000000E+00 0.  1.
         22    1    1    2    0    0 -0.35010478407E+02 -0.68679278344E+01 -0.12444667644E+03  0.12945994480E+03  0.00000000000E+00 0.  1.
         22    1    1    2    0    0 -0.35625080416E+01  0.22416727709E+02  0.24973492745E+02  0.33747244104E+02  0.00000000000E+00 0.  1.
</event>
<event>
 6    1  0.2144783E-005  0.1245523E+03  0.7818608E-02  0.1347692E+00
          2   -1    0    0  502    0  0.00000000000E+00  0.00000000000E+00  0.32927170930E+03  0.32927170930E+03  0.00000000000E+00 0.  1.
          1   -1    0    0  501    0 -0.00000000000E+00 -0.00000000000E+00 -0.12938479294E+03  0.12938479294E+03  0.00000000000E+00 0.  1.
          2    1    1    2  501    0  0.78663401286E+02 -0.12950238076E+02  0.14519741630E+02  0.81033710671E+02  0.00000000000E+00 0.  1.
          1    1    1    2  502    0 -0.61716960805E+02  0.12235566330E+03  0.16377709100E+02  0.13801493017E+03  0.00000000000E+00 0.  1.
         22    1    1    2    0    0 -0.26652255716E+02 -0.12127857976E+03  0.76479330396E+02  0.14583526536E+03  0.00000000000E+00 0.  1.
         22    1    1    2    0    0  0.97058152347E+01  0.11873154532E+02  0.92510135235E+02  0.93772596045E+02  0.00000000000E+00 0.  1.
</event>
<event>
 6    1  0.2144783E-005  0.1144513E+03  0.7818608E-02  0.1365671E+00
          2   -1    0    0  502    0  0.00000000000E+00  0.00000000000E+00  0.19258391280E+03  0.19258391280E+03  0.00000000000E+00 0.  1.
          1   -1    0    0  501    0 -0.00000000000E+00 -0.00000000000E+00 -0.33556559601E+03  0.33556559601E+03  0.00000000000E+00 0.  1.
          2    1    1    2  501    0  0.10324358097E+03 -0.68251634381E+02  0.11233112489E+03  0.16714007367E+03  0.00000000000E+00 0.  1.
          1    1    1    2  502    0 -0.49670871224E+02  0.34472420180E+02 -0.20434586694E+03  0.21310273705E+03  0.00000000000E+00 0.  1.
         22    1    1    2    0    0 -0.13443815304E+02  0.56628733103E+01  0.41100491303E+02  0.43612551971E+02  0.00000000000E+00 0.  1.
         22    1    1    2    0    0 -0.40128894439E+02  0.28116340891E+02 -0.92067432463E+02  0.10429414612E+03  0.00000000000E+00 0. -1.
</event>
<event>
 6    1  0.2144783E-005  0.8483417E+02  0.7818608E-02  0.1381016E+00
          2   -1    0    0  502    0  0.00000000000E+00  0.00000000000E+00  0.32438330713E+03  0.32438330713E+03  0.00000000000E+00 0. -1.
          1   -1    0    0  501    0 -0.00000000000E+00 -0.00000000000E+00 -0.54894021291E+02  0.54894021291E+02  0.00000000000E+00 0. -1.
          2    1    1    2  501    0  0.92209484940E+02 -0.89203224145E+01  0.96337527647E+02  0.13365283573E+03  0.00000000000E+00 0. -1.
          1    1    1    2  502    0 -0.25376849632E+02 -0.10376072195E+00  0.11745457670E+02  0.27963387480E+02  0.00000000000E+00 0. -1.
         22    1    1    2    0    0 -0.46317614776E+02  0.27814748975E+02  0.15526825886E+00  0.54027824380E+02  0.00000000000E+00 0. -1.
         22    1    1    2    0    0 -0.20515020533E+02 -0.18790665839E+02  0.16125103227E+03  0.16363328083E+03  0.00000000000E+00 0. -1.
</event>
<event>
 6    1  0.2144783E-005  0.1343105E+03  0.7818608E-02  0.1293864E+00
          2   -1    0    0  502    0  0.00000000000E+00  0.00000000000E+00  0.87789692572E+02  0.87789692572E+02  0.00000000000E+00 0.  1.
          1   -1    0    0  501    0 -0.00000000000E+00 -0.00000000000E+00 -0.12335885322E+04  0.12335885322E+04  0.00000000000E+00 0.  1.
          2    1    1    2  501    0  0.35129444206E+02  0.52691084004E+02 -0.10055329397E+02  0.64121274418E+02  0.00000000000E+00 0.  1.
          1    1    1    2  502    0 -0.12175321166E+03 -0.55510175033E+02 -0.10938527494E+04  0.11020068337E+04  0.00000000000E+00 0.  1.
         22    1    1    2    0    0  0.26944030812E+02 -0.17214178220E+02 -0.76854347819E+02  0.83240011454E+02  0.00000000000E+00 0.  1.
         22    1    1    2    0    0  0.59679736642E+02  0.20033269250E+02  0.34963586979E+02  0.72010105242E+02  0.00000000000E+00 0.  1.
</event>
<event>
 6    1  0.2144783E-005  0.8168739E+02  0.7818608E-02  0.1325978E+00
          2   -1    0    0  502    0  0.00000000000E+00  0.00000000000E+00  0.16618113152E+03  0.16618113152E+03  0.00000000000E+00 0.  1.
          1   -1    0    0  501    0 -0.00000000000E+00 -0.00000000000E+00 -0.15845275513E+03  0.15845275513E+03  0.00000000000E+00 0. -1.
          2    1    1    2  501    0  0.18702681415E+02 -0.56126281624E+02  0.85719541558E+02  0.10415272241E+03  0.00000000000E+00 0.  1.
          1    1    1    2  502    0 -0.25900540497E+02  0.42496735471E+02 -0.80648694913E+02  0.94768256895E+02  0.00000000000E+00 0. -1.
         22    1    1    2    0    0 -0.40756730080E+01  0.29080936906E+02 -0.56426418676E+02  0.63610162131E+02  0.00000000000E+00 0.  1.
         22    1    1    2    0    0  0.11273532090E+02 -0.15451390754E+02  0.59083948418E+02  0.62102745211E+02  0.00000000000E+00 0.  1.
</event>
<event>
 6    1  0.2144783E-005  0.3262561E+02  0.7818608E-02  0.1588575E+00
          2   -1    0    0  502    0  0.00000000000E+00  0.00000000000E+00  0.84607450061E+02  0.84607450061E+02  0.00000000000E+00 0. -1.
          1   -1    0    0  501    0 -0.00000000000E+00 -0.00000000000E+00 -0.50112898013E+03  0.50112898013E+03  0.00000000000E+00 0.  1.
          2    1    1    2  501    0 -0.50155817560E+02 -0.22786101260E+02 -0.89226055839E+02  0.10486229774E+03  0.00000000000E+00 0. -1.
          1    1    1    2  502    0  0.61968843739E+02  0.39407816880E+02 -0.34927418550E+03  0.35691115180E+03  0.00000000000E+00 0.  1.
         22    1    1    2    0    0 -0.15570958192E+02 -0.42320554755E+01  0.71231856304E+02  0.73036582513E+02  0.00000000000E+00 0. -1.
         22    1    1    2    0    0  0.37579320135E+01 -0.12389660145E+02 -0.49253145036E+02  0.50926398140E+02  0.00000000000E+00 0. -1.
</event>
<event>
 6    1  0.2144783E-005  0.2741595E+02  0.7818608E-02  0.1642809E+00
          2   -1    0    0  502    0  0.00000000000E+00  0.00000000000E+00  0.26725162710E+03  0.26725162710E+03  0.00000000000E+00 0. -1.
          1   -1    0    0  501    0 -0.00000000000E+00 -0.00000000000E+00 -0.24565714821E+03  0.24565714821E+03  0.00000000000E+00 0. -1.
          2    1    1    2  501    0  0.28978756545E+02  0.57144711649E+01  0.93151643542E+02  0.97722321944E+02  0.00000000000E+00 0. -1.
          1    1    1    2  502    0  0.81901322387E+00  0.37071287185E+02 -0.21455807405E+03  0.21773864667E+03  0.00000000000E+00 0. -1.
         22    1    1    2    0    0 -0.17586030849E+02 -0.22979210642E+02  0.16374070247E+03  0.16627787059E+03  0.00000000000E+00 0. -1.
         22    1    1    2    0    0 -0.12211738920E+02 -0.19806547708E+02 -0.20739793077E+02  0.31169936100E+02  0.00000000000E+00 0. -1.
</event>
<event>
 6    1  0.2144783E-005  0.2532031E+03  0.7818608E-02  0.1243498E+00
          2   -1    0    0  502    0  0.00000000000E+00  0.00000000000E+00  0.45135059078E+02  0.45135059078E+02  0.00000000000E+00 0. -1.
          1   -1    0    0  501    0 -0.00000000000E+00 -0.00000000000E+00 -0.15816581613E+04  0.15816581613E+04  0.00000000000E+00 0. -1.
          2    1    1    2  501    0  0.91335028726E+02  0.19677191486E+03 -0.42745860765E+03  0.47935595876E+03  0.00000000000E+00 0. -1.
          1    1    1    2  502    0 -0.63580154502E+02 -0.16092348849E+02 -0.17447545946E+03  0.18639497228E+03  0.00000000000E+00 0. -1.
         22    1    1    2    0    0  0.92126417713E+01 -0.86990115097E+01 -0.30404706142E+01  0.13030350387E+02  0.00000000000E+00 0.  1.
         22    1    1    2    0    0 -0.36967515996E+02 -0.17198055450E+03 -0.93154856452E+03  0.94801193897E+03  0.00000000000E+00 0. -1.
</event>
<event>
 6    1  0.2144783E-005  0.6293679E+02  0.7818608E-02  0.1387637E+00
          2   -1    0    0  502    0  0.00000000000E+00  0.00000000000E+00  0.26365265716E+03  0.26365265716E+03  0.00000000000E+00 0. -1.
          1   -1    0    0  501    0 -0.00000000000E+00 -0.00000000000E+00 -0.11115322722E+03  0.11115322722E+03  0.00000000000E+00 0. -1.
          2    1    1    2  501    0  0.45028572171E+02  0.17593583401E+02  0.20054212765E+03  0.20628681841E+03  0.00000000000E+00 0. -1.
          1    1    1    2  502    0 -0.20166230681E+02 -0.13122964618E+02 -0.28090988128E+02  0.36986384985E+02  0.00000000000E+00 0. -1.
         22    1    1    2    0    0 -0.31245890123E+02 -0.17424312101E+02 -0.70448209042E+02  0.79011786836E+02  0.00000000000E+00 0.  1.
         22    1    1    2    0    0  0.63835486333E+01  0.12953693318E+02  0.50496499458E+02  0.52520894139E+02  0.00000000000E+00 0. -1.
</event>
<event>
 6    1  0.2144783E-005  0.7755727E+02  0.7818608E-02  0.1384385E+00
          2   -1    0    0  502    0  0.00000000000E+00  0.00000000000E+00  0.86121835627E+02  0.86121835627E+02  0.00000000000E+00 0. -1.
          1   -1    0    0  501    0 -0.00000000000E+00 -0.00000000000E+00 -0.17947127088E+03  0.17947127088E+03  0.00000000000E+00 0. -1.
          2    1    1    2  501    0  0.47076179341E+02  0.32082628755E+02 -0.22699125130E+02  0.61324644401E+02  0.00000000000E+00 0. -1.
          1    1    1    2  502    0 -0.41240423077E+02 -0.35167893179E+02 -0.54499072787E+02  0.76861577793E+02  0.00000000000E+00 0. -1.
         22    1    1    2    0    0 -0.13448165385E+02 -0.30532884693E+02 -0.61785298980E+02  0.70217756799E+02  0.00000000000E+00 0. -1.
         22    1    1    2    0    0  0.76124091205E+01  0.33618149117E+02  0.45634061648E+02  0.57189127508E+02  0.00000000000E+00 0. -1.
</event>
<event>
 6    1  0.2144783E-005  0.5236087E+02  0.7818608E-02  0.1541968E+00
          2   -1    0    0  502    0  0.00000000000E+00  0.00000000000E+00  0.12883094434E+03  0.12883094434E+03  0.00000000000E+00 0.  1.
          1   -1    0    0  501    0 -0.00000000000E+00 -0.00000000000E+00 -0.16234213885E+03  0.16234213885E+03  0.00000000000E+00 0.  1.
          2    1    1    2  501    0 -0.19107956068E+02 -0.37513260290E+02  0.54358172806E+02  0.68754415375E+02  0.00000000000E+00 0.  1.
          1    1    1    2  502    0  0.12150794402E+02  0.21622020312E+02 -0.92457460888E+02  0.95726358130E+02  0.00000000000E+00 0.  1.
         22    1    1    2    0    0 -0.10705250356E+02 -0.38870483349E+01  0.62219457154E+02  0.63253240063E+02  0.00000000000E+00 0. -1.
         22    1    1    2    0    0  0.17662412022E+02  0.19778288312E+02 -0.57631363581E+02  0.63439069628E+02  0.00000000000E+00 0.  1.
</event>
<event>
 6    1  0.2144783E-005  0.8838404E+02  0.7818608E-02  0.1406801E+00
          2   -1    0    0  502    0  0.00000000000E+00  0.00000000000E+00  0.47481891400E+03  0.47481891400E+03  0.00000000000E+00 0. -1.
          1   -1    0    0  501    0 -0.00000000000E+00 -0.00000000000E+00 -0.47698087375E+03  0.47698087375E+03  0.00000000000E+00 0. -1.
          2    1    1    2  501    0  0.20023033636E+02 -0.95518247981E+02  0.42779882404E+03  0.43878980324E+03  0.00000000000E+00 0. -1.
          1    1    1    2  502    0  0.31961501531E+01  0.66662079463E+02 -0.35097497582E+03  0.35726388268E+03  0.00000000000E+00 0. -1.
         22    1    1    2    0    0 -0.12909832879E+02  0.99400248394E+01  0.35600740092E+02  0.39152018771E+02  0.00000000000E+00 0.  1.
         22    1    1    2    0    0 -0.10309350910E+02  0.18916143678E+02 -0.11458654807E+03  0.11659408307E+03  0.00000000000E+00 0. -1.
</event>
<event>
 6    1  0.2144783E-005  0.6984324E+02  0.7818608E-02  0.1361905E+00
          2   -1    0    0  502    0  0.00000000000E+00  0.00000000000E+00  0.13717962725E+03  0.13717962725E+03  0.00000000000E+00 0.  1.
          1   -1    0    0  501    0 -0.00000000000E+00 -0.00000000000E+00 -0.23175735802E+03  0.23175735802E+03  0.00000000000E+00 0.  1.
          2    1    1    2  501    0 -0.29613672467E+02  0.47710989472E+02  0.95112314474E+02  0.11045207322E+03  0.00000000000E+00 0.  1.
          1    1    1    2  502    0  0.22075785882E+02 -0.28746193081E+02 -0.86106364689E+02  0.93423712081E+02  0.00000000000E+00 0.  1.
         22    1    1    2    0    0 -0.94452729705E+01  0.70518671113E+01  0.27725111695E+02  0.30126795875E+02  0.00000000000E+00 0.  1.
         22    1    1    2    0    0  0.16983159555E+02 -0.26016663503E+02 -0.13130879225E+03  0.13493440410E+03  0.00000000000E+00 0.  1.
</event>
<event>
 6    1  0.2144783E-005  0.2941636E+03  0.7818608E-02  0.1193007E+00
          2   -1    0    0  502    0  0.00000000000E+00  0.00000000000E+00  0.87013873627E+03  0.87013873627E+03  0.00000000000E+00 0. -1.
          1   -1    0    0  501    0 -0.00000000000E+00 -0.00000000000E+00 -0.23402233288E+03  0.23402233288E+03  0.00000000000E+00 0. -1.
          2    1    1    2  501    0 -0.23823746726E+03 -0.13702120837E+03  0.59362082119E+03  0.65415409630E+03  0.00000000000E+00 0. -1.
          1    1    1    2  502    0  0.23641205629E+03  0.12867491570E+03 -0.75671970559E+02  0.27959639021E+03  0.00000000000E+00 0. -1.
         22    1    1    2    0    0  0.25228693770E+02  0.77468169220E+01 -0.18193363526E+02  0.32054619607E+02  0.00000000000E+00 0.  1.
         22    1    1    2    0    0 -0.23403282796E+02  0.59947575098E+00  0.13636091628E+03  0.13835596303E+03  0.00000000000E+00 0.  1.
</event>
<event>
 6    1  0.2144783E-005  0.1490991E+03  0.7818608E-02  0.1322791E+00
          2   -1    0    0  502    0  0.00000000000E+00  0.00000000000E+00  0.66641623011E+03  0.66641623011E+03  0.00000000000E+00 0.  1.
          1   -1    0    0  501    0 -0.00000000000E+00 -0.00000000000E+00 -0.75597058170E+02  0.75597058170E+02  0.00000000000E+00 0.  1.
          2    1    1    2  501    0 -0.33600598784E+02  0.83430929122E+02  0.52564529279E+03  0.53328481509E+03  0.00000000000E+00 0.  1.
          1    1    1    2  502    0 -0.37012864967E+02 -0.23982606661E+02  0.72226862743E+01  0.44690992295E+02  0.00000000000E+00 0.  1.
         22    1    1    2    0    0 -0.84661642993E+01  0.10905737230E+02  0.56520474952E+02  0.58182257873E+02  0.00000000000E+00 0.  1.
         22    1    1    2    0    0  0.79079628050E+02 -0.70354059691E+02  0.14307179241E+01  0.10585522302E+03  0.00000000000E+00 0.  1.
</event>
<event>
 6    1  0.2144783E-005  0.5911800E+02  0.7818608E-02  0.1464275E+00
          2   -1    0    0  502    0  0.00000000000E+00  0.00000000000E+00  0.16281340559E+03  0.16281340559E+03  0.00000000000E+00 0. -1.
          1   -1    0    0  501    0 -0.00000000000E+00 -0.00000000000E+00 -0.81982052597E+02  0.81982052597E+02  0.00000000000E+00 0. -1.
          2    1    1    2  501    0  0.24412957905E+01 -0.47190343140E+02  0.12351578934E+02  0.48841067893E+02  0.00000000000E+00 0. -1.
          1    1    1    2  502    0  0.19639710376E+02 -0.64868288494E+01 -0.22904059226E+02  0.30860866825E+02  0.00000000000E+00 0. -1.
         22    1    1    2    0    0 -0.13713412256E+02  0.32329613936E+02 -0.27133298841E+02  0.44378795826E+02  0.00000000000E+00 0. -1.
         22    1    1    2    0    0 -0.83675939108E+01  0.21347558053E+02  0.11851713212E+03  0.12071472764E+03  0.00000000000E+00 0. -1.
</event>
<event>
 6    1  0.2144783E-005  0.3342104E+02  0.7818608E-02  0.1571795E+00
          2   -1    0    0  502    0  0.00000000000E+00  0.00000000000E+00  0.12706477869E+03  0.12706477869E+03  0.00000000000E+00 0. -1.
          1   -1    0    0  501    0 -0.00000000000E+00 -0.00000000000E+00 -0.98128846835E+02  0.98128846835E+02  0.00000000000E+00 0. -1.
          2    1    1    2  501    0 -0.17049420287E+02 -0.13717135646E+02  0.44692873489E+01  0.22334213035E+02  0.00000000000E+00 0. -1.
          1    1    1    2  502    0 -0.51486010149E+01  0.20043673609E+02 -0.49122011786E+02  0.53303179887E+02  0.00000000000E+00 0. -1.
         22    1    1    2    0    0  0.36760294408E+02 -0.52946779975E+01  0.10690992869E+03  0.11317723142E+03  0.00000000000E+00 0. -1.
         22    1    1    2    0    0 -0.14562273106E+02 -0.10318599649E+01 -0.33321272395E+02  0.36379001183E+02  0.00000000000E+00 0. -1.
</event>
<event>
 6    1  0.2144783E-005  0.2673364E+03  0.7818608E-02  0.1223343E+00
          2   -1    0    0  502    0  0.00000000000E+00  0.00000000000E+00  0.12554188831E+04  0.12554188831E+04  0.00000000000E+00 0. -1.
          1   -1    0    0  501    0 -0.00000000000E+00 -0.00000000000E+00 -0.29891539957E+03  0.29891539957E+03  0.00000000000E+00 0.  1.
          2    1    1    2  501    0  0.27803949730E+03  0.19540555859E+03  0.90641110650E+03  0.96802396064E+03  0.00000000000E+00 0. -1.
          1    1    1    2  502    0 -0.11601810889E+03 -0.32250989959E+03  0.44342642380E+02  0.34559963376E+03  0.00000000000E+00 0.  1.
         22    1    1    2    0    0  0.59706602506E+01 -0.11790293543E+02  0.18070870831E+02  0.22387857830E+02  0.00000000000E+00 0. -1.
         22    1    1    2    0    0 -0.16799204866E+03  0.13889463454E+03 -0.12321136133E+02  0.21832283049E+03  0.00000000000E+00 0. -1.
</event>
<event>
 6    1  0.2144783E-005  0.2553602E+02  0.7818608E-02  0.1696431E+00
          2   -1    0    0  502    0  0.00000000000E+00  0.00000000000E+00  0.90799338767E+02  0.90799338767E+02  0.00000000000E+00 0. -1.
          1   -1    0    0  501    0 -0.00000000000E+00 -0.00000000000E+00 -0.14259859452E+03  0.14259859452E+03  0.00000000000E+00 0. -1.
          2    1    1    2  501    0 -0.19156444796E+02  0.26054778791E+02  0.43591133951E+01  0.32631621851E+02  0.00000000000E+00 0. -1.
          1    1    1    2  502    0  0.27545932635E+02 -0.23041906888E+00 -0.65280706389E+02  0.70854796057E+02  0.00000000000E+00 0. -1.
         22    1    1    2    0    0  0.26706353009E+01 -0.19711895435E+02 -0.58152260070E+02  0.61460364999E+02  0.00000000000E+00 0. -1.
         22    1    1    2    0    0 -0.11060123140E+02 -0.61124642864E+01  0.67274597316E+02  0.68451150374E+02  0.00000000000E+00 0. -1.
</event>
<event>
 6    1  0.2144783E-005  0.6624033E+02  0.7818608E-02  0.1380070E+00
          2   -1    0    0  502    0  0.00000000000E+00  0.00000000000E+00  0.62269428576E+02  0.62269428576E+02  0.00000000000E+00 0.  1.
          1   -1    0    0  501    0 -0.00000000000E+00 -0.00000000000E+00 -0.38450538031E+03  0.38450538031E+03  0.00000000000E+00 0.  1.
          2    1    1    2  501    0 -0.24798000447E+02 -0.27834030832E+02 -0.55687279918E+02  0.67013037859E+02  0.00000000000E+00 0.  1.
          1    1    1    2  502    0  0.43503663515E+02  0.69286093461E+02 -0.22678525994E+03  0.24109061702E+03  0.00000000000E+00 0.  1.
         22    1    1    2    0    0  0.14546710369E+00  0.14821760911E+02 -0.70357637661E+02  0.71902037067E+02  0.00000000000E+00 0. -1.
         22    1    1    2    0    0 -0.18851130172E+02 -0.56273823541E+02  0.30594225793E+02  0.66769116937E+02  0.00000000000E+00 0.  1.
</event>
<event>
 6    1  0.2144783E-005  0.4628904E+02  0.7818608E-02  0.1502135E+00
          2   -1    0    0  502    0  0.00000000000E+00  0.00000000000E+00  0.11639156089E+03  0.11639156089E+03  0.00000000000E+00 0. -1.
          1   -1    0    0  501    0 -0.00000000000E+00 -0.00000000000E+00 -0.22320697059E+03  0.22320697059E+03  0.00000000000E+00 0. -1.
          2    1    1    2  501    0  0.16196230310E+02 -0.47867509992E+02  0.66961062688E+02  0.83889214476E+02  0.00000000000E+00 0. -1.
          1    1    1    2  502    0 -0.23398818419E+02 -0.20712991380E+02 -0.76723243036E+02  0.82843157456E+02  0.00000000000E+00 0. -1.
         22    1    1    2    0    0 -0.11583889675E+02  0.25538086220E+02 -0.11811336183E+03  0.12139664983E+03  0.00000000000E+00 0. -1.
         22    1    1    2    0    0  0.18786477784E+02  0.43042415153E+02  0.21060132479E+02  0.51469509710E+02  0.00000000000E+00 0. -1.
</event>
<event>
 6    1  0.2144783E-005  0.4204495E+02  0.7818608E-02  0.1529032E+00
          2   -1    0    0  502    0  0.00000000000E+00  0.00000000000E+00  0.14362147955E+03  0.14362147955E+03  0.00000000000E+00 0. -1.
          1   -1    0    0  501    0 -0.00000000000E+00 -0.00000000000E+00 -0.13401924083E+03  0.13401924083E+03  0.00000000000E+00 0. -1.
          2    1    1    2  501    0  0.41304986204E+02 -0.33876576386E+02 -0.41073556399E+02  0.67385171576E+02  0.00000000000E+00 0. -1.
          1    1    1    2  502    0 -0.46595429508E+02  0.21086292126E+02 -0.29368212433E+02  0.58976755321E+02  0.00000000000E+00 0. -1.
         22    1    1    2    0    0  0.18282614673E+02  0.29491269738E+02  0.10958183885E+03  0.11494419688E+03  0.00000000000E+00 0. -1.
         22    1    1    2    0    0 -0.12992171369E+02 -0.16700985477E+02 -0.29537831302E+02  0.36334596610E+02  0.00000000000E+00 0. -1.
</event>
<event>
 6    1  0.2144783E-005  0.5974684E+02  0.7818608E-02  0.1445979E+00
          2   -1    0    0  502    0  0.00000000000E+00  0.00000000000E+00  0.74284210997E+02  0.74284210997E+02  0.00000000000E+00 0.  1.
          1   -1    0    0  501    0 -0.00000000000E+00 -0.00000000000E+00 -0.18707312887E+03  0.18707312887E+03  0.00000000000E+00 0. -1.
          2    1    1    2  501    0  0.19240890262E+02  0.92833848988E+01  0.32453050622E+02  0.38853488748E+02  0.00000000000E+00 0.  1.
          1    1    1    2  502    0 -0.20555638558E+02  0.32587613041E+01 -0.77039397965E+02  0.79801144356E+02  0.00000000000E+00 0. -1.
         22    1    1    2    0    0  0.11961395523E+02  0.26450170413E+02  0.26769059036E+02  0.39487580571E+02  0.00000000000E+00 0. -1.
         22    1    1    2    0    0 -0.10646647228E+02 -0.38992316615E+02 -0.94971629562E+02  0.10321512619E+03  0.00000000000E+00 0. -1.
</event>
<event>
 6    1  0.2144783E-005  0.7892896E+02  0.7818608E-02  0.1362687E+00
          2   -1    0    0  502    0  0.00000000000E+00  0.00000000000E+00  0.37306765421E+03  0.37306765421E+03  0.00000000000E+00 0. -1.
          1   -1    0    0  501    0 -0.00000000000E+00 -0.00000000000E+00 -0.18020145239E+03  0.18020145239E+03  0.00000000000E+00 0.  1.
          2    1    1    2  501    0 -0.29243687926E+02 -0.46916654076E+02  0.28530164393E+03  0.29060866082E+03  0.00000000000E+00 0. -1.
          1    1    1    2  502    0 -0.11127611187E+02  0.62374769645E+02 -0.11164732365E+03  0.12837274047E+03  0.00000000000E+00 0.  1.
         22    1    1    2    0    0  0.38387184542E+01  0.13714374972E+02 -0.49316184434E+02  0.51331334361E+02  0.00000000000E+00 0.  1.
         22    1    1    2    0    0  0.36532580659E+02 -0.29172490540E+02  0.68528065967E+02  0.82956370938E+02  0.00000000000E+00 0. -1.
</event>
<event>
 6    1  0.2144783E-005  0.4481727E+02  0.7818608E-02  0.1568111E+00
          2   -1    0    0  502    0  0.00000000000E+00  0.00000000000E+00  0.89810627073E+02  0.89810627073E+02  0.00000000000E+00 0.  1.
          1   -1    0    0  501    0 -0.00000000000E+00 -0.00000000000E+00 -0.29985058043E+03  0.29985058043E+03  0.00000000000E+00 0.  1.
          2    1    1    2  501    0  0.28976359712E+02  0.34077311183E+02  0.29841529045E+02  0.53771827339E+02  0.00000000000E+00 0.  1.
          1    1    1    2  502    0 -0.19975959398E+02 -0.18287758763E+02 -0.19887537329E+03  0.20071097423E+03  0.00000000000E+00 0.  1.
         22    1    1    2    0    0 -0.16286757278E+02 -0.50111403901E+01 -0.86344680143E+02  0.88010077717E+02  0.00000000000E+00 0. -1.
         22    1    1    2    0    0  0.72863569638E+01 -0.10778412030E+02  0.45338571031E+02  0.47168328218E+02  0.00000000000E+00 0. -1.
</event>
<event>
 6    1  0.2144783E-005  0.7648723E+02  0.7818608E-02  0.1372563E+00
          2   -1    0    0  502    0  0.00000000000E+00  0.00000000000E+00  0.39028637829E+02  0.39028637829E+02  0.00000000000E+00 0. -1.
          1   -1    0    0  501    0 -0.00000000000E+00 -0.00000000000E+00 -0.44771476347E+03  0.44771476347E+03  0.00000000000E+00 0. -1.
          2    1    1    2  501    0 -0.54888544114E+02 -0.41290646082E+02 -0.21291357089E+03  0.22371825674E+03  0.00000000000E+00 0. -1.
          1    1    1    2  502    0  0.25817224201E+02 -0.19249501375E+02 -0.53149253611E+02  0.62144312113E+02  0.00000000000E+00 0. -1.
         22    1    1    2    0    0  0.30381834171E+02  0.16961256784E+02 -0.15229747002E+03  0.15622182771E+03  0.00000000000E+00 0. -1.
         22    1    1    2    0    0 -0.13105142584E+01  0.43578890673E+02  0.96741688842E+01  0.44659004731E+02  0.00000000000E+00 0. -1.
</event>
<event>
 6    1  0.2144783E-005  0.5590419E+02  0.7818608E-02  0.1501184E+00
          2   -1    0    0  502    0  0.00000000000E+00  0.00000000000E+00  0.18697709912E+03  0.18697709912E+03  0.00000000000E+00 0. -1.
          1   -1    0    0  501    0 -0.00000000000E+00 -0.00000000000E+00 -0.32028312609E+03  0.32028312609E+03  0.00000000000E+00 0. -1.
          2    1    1    2  501    0 -0.44714231873E+02  0.25928289247E+02  0.11402098887E+03  0.12518955474E+03  0.00000000000E+00 0. -1.
          1    1    1    2  502    0  0.25115669801E+02 -0.36152772681E+02 -0.24844112151E+03  0.25231094050E+03  0.00000000000E+00 0. -1.
         22    1    1    2    0    0  0.11379557740E+02 -0.36519914247E+01 -0.62756513032E+02  0.63884358834E+02  0.00000000000E+00 0.  1.
         22    1    1    2    0    0  0.82190043322E+01  0.13876474859E+02  0.63870618711E+02  0.65875371128E+02  0.00000000000E+00 0.  1.
</event>
<event>
 6    1  0.2144783E-005  0.1727707E+03  0.7818608E-02  0.1288698E+00
          2   -1    0    0  502    0  0.00000000000E+00  0.00000000000E+00  0.74393369918E+02  0.74393369918E+02  0.00000000000E+00 0.  1.
          1   -1    0    0  501    0 -0.00000000000E+00 -0.00000000000E+00 -0.88154071504E+03  0.88154071504E+03  0.00000000000E+00 0. -1.
          2    1    1    2  501    0 -0.10670953233E+02 -0.17993298691E+03 -0.16683079141E+03  0.24560590788E+03  0.00000000000E+00 0.  1.
          1    1    1    2  502    0 -0.26096196512E+01  0.13785949556E+03 -0.49040766231E+03  0.50942293419E+03  0.00000000000E+00 0. -1.
         22    1    1    2    0    0  0.30534981390E+01  0.29069136104E+02 -0.17134903780E+03  0.17382413895E+03  0.00000000000E+00 0. -1.
         22    1    1    2    0    0  0.10227074745E+02  0.13004355249E+02  0.21440146398E+02  0.27081103945E+02  0.00000000000E+00 0. -1.
</event>
<event>
 6    1  0.2144783E-005  0.4249603E+02  0.7818608E-02  0.1587396E+00
          2   -1    0    0  502    0  0.00000000000E+00  0.00000000000E+00  0.92085072517E+02  0.92085072517E+02  0.00000000000E+00 0. -1.
          1   -1    0    0  501    0 -0.00000000000E+00 -0.00000000000E+00 -0.14359107698E+03  0.14359107698E+03  0.00000000000E+00 0. -1.
          2    1    1    2  501    0  0.23769047285E+01  0.30821800294E+02  0.89120432938E+01  0.32172310535E+02  0.00000000000E+00 0. -1.
          1    1    1    2  502    0  0.11108657608E+02 -0.26237883590E+02 -0.72839285816E+02  0.78213747943E+02  0.00000000000E+00 0. -1.
         22    1    1    2    0    0 -0.78786614017E+01  0.90756386026E+01  0.67348694287E+02  0.68412624155E+02  0.00000000000E+00 0. -1.
         22    1    1    2    0    0 -0.56069009351E+01 -0.13659555307E+02 -0.54927456224E+02  0.56877466861E+02  0.00000000000E+00 0.  1.
</event>
<event>
 6    1  0.2144783E-005  0.8736880E+02  0.7818608E-02  0.1310314E+00
          2   -1    0    0  502    0  0.00000000000E+00  0.00000000000E+00  0.23090598330E+03  0.23090598330E+03  0.00000000000E+00 0.  1.
          1   -1    0    0  501    0 -0.00000000000E+00 -0.00000000000E+00 -0.23559605046E+03  0.23559605046E+03  0.00000000000E+00 0. -1.
          2    1    1    2  501    0 -0.53339758131E+02  0.22287486929E+02  0.13793680520E+03  0.14956077059E+03  0.00000000000E+00 0.  1.
          1    1    1    2  502    0  0.71415942245E+02 -0.16156621530E+02 -0.16971329641E+03  0.18483472673E+03  0.00000000000E+00 0. -1.
         22    1    1    2    0    0  0.10398041496E+02  0.16029557062E+01 -0.49200266046E+02  0.50312572116E+02  0.00000000000E+00 0. -1.
         22    1    1    2    0    0 -0.28474225610E+02 -0.77338211053E+01  0.76286690106E+02  0.81793964327E+02  0.00000000000E+00 0.  1.
</event>
<event>
 6    1  0.2144783E-005  0.2822318E+02  0.7818608E-02  0.1628303E+00
          2   -1    0    0  502    0  0.00000000000E+00  0.00000000000E+00  0.11055573674E+03  0.11055573674E+03  0.00000000000E+00 0. -1.
          1   -1    0    0  501    0 -0.00000000000E+00 -0.00000000000E+00 -0.13154879973E+03  0.13154879973E+03  0.00000000000E+00 0.  1.
          2    1    1    2  501    0  0.61383051698E+02  0.55081478488E-01  0.27449786945E+01  0.61444421860E+02  0.00000000000E+00 0. -1.
          1    1    1    2  502    0 -0.45254544548E+02 -0.12130378503E+02 -0.27449349326E+02  0.54300890078E+02  0.00000000000E+00 0.  1.
         22    1    1    2    0    0 -0.12855839163E+02 -0.21383885625E+01 -0.59795380453E+02  0.61199124420E+02  0.00000000000E+00 0.  1.
         22    1    1    2    0    0 -0.32726679869E+01  0.14213685587E+02  0.63506688100E+02  0.65160100116E+02  0.00000000000E+00 0. -1.
</event>
<event>
 6    1  0.2144783E-005  0.9773370E+02  0.7818608E-02  0.1354948E+00
          2   -1    0    0  502    0  0.00000000000E+00  0.00000000000E+00  0.26370357509E+02  0.26370357509E+02  0.00000000000E+00 0.  1.
          1   -1    0    0  501    0 -0.00000000000E+00 -0.00000000000E+00 -0.76626355700E+03  0.76626355700E+03  0.00000000000E+00 0. -1.
          2    1    1    2  501    0 -0.14123177923E+02 -0.53365791438E+02 -0.12983642812E+03  0.14108461971E+03  0.00000000000E+00 0.  1.
          1    1    1    2  502    0 -0.41213550914E+02 -0.37303780698E+01 -0.33993946532E+03  0.34244899267E+03  0.00000000000E+00 0. -1.
         22    1    1    2    0    0  0.21099636991E+02  0.18484683485E+02  0.55918826998E+01  0.28603275281E+02  0.00000000000E+00 0.  1.
         22    1    1    2    0    0  0.34237091847E+02  0.38611486023E+02 -0.27570918875E+03  0.28049702685E+03  0.00000000000E+00 0. -1.
</event>
<event>
 6    1  0.2144783E-005  0.6448017E+02  0.7818608E-02  0.1462904E+00
          2   -1    0    0  502    0  0.00000000000E+00  0.00000000000E+00  0.62907121974E+02  0.62907121974E+02  0.00000000000E+00 0. -1.
          1   -1    0    0  501    0 -0.00000000000E+00 -0.00000000000E+00 -0.24428189752E+03  0.24428189752E+03  0.00000000000E+00 0. -1.
          2    1    1    2  501    0  0.68357399974E+02  0.46092303652E+00 -0.20221743895E+02  0.71287204374E+02  0.00000000000E+00 0. -1.
          1    1    1    2  502    0 -0.31754168396E+02 -0.50638605026E+01 -0.68285318005E+02  0.75477510219E+02  0.00000000000E+00 0. -1.
         22    1    1    2    0    0 -0.25675058748E+02 -0.97309643701E+01 -0.12260989942E+03  0.12564667821E+03  0.00000000000E+00 0. -1.
         22    1    1    2    0    0 -0.10928172831E+02  0.14333901836E+02  0.29742185778E+02  0.34777626689E+02  0.00000000000E+00 0. -1.
</event>
<event>
 6    1  0.2144783E-005  0.6781249E+02  0.7818608E-02  0.1411655E+00
          2   -1    0    0  502    0  0.00000000000E+00  0.00000000000E+00  0.67120267376E+02  0.67120267376E+02  0.00000000000E+00 0.  1.
          1   -1    0    0  501    0 -0.00000000000E+00 -0.00000000000E+00 -0.21345823059E+03  0.21345823059E+03  0.00000000000E+00 0. -1.
          2    1    1    2  501    0  0.63231320760E+02  0.23124503969E+00 -0.24834941027E+02  0.67933995136E+02  0.00000000000E+00 0.  1.
          1    1    1    2  502    0 -0.32120728162E+02 -0.32074782798E+01 -0.62519488953E+02  0.70361321716E+02  0.00000000000E+00 0. -1.
         22    1    1    2    0    0 -0.22207216830E+02 -0.29256738908E+02 -0.89667510096E+02  0.96898811230E+02  0.00000000000E+00 0. -1.
         22    1    1    2    0    0 -0.89033757674E+01  0.32232972148E+02  0.30683976864E+02  0.45384369883E+02  0.00000000000E+00 0.  1.
</event>
<event>
 6    1  0.2144783E-005  0.1841872E+03  0.7818608E-02  0.1266854E+00
          2   -1    0    0  502    0  0.00000000000E+00  0.00000000000E+00  0.10905428856E+03  0.10905428856E+03  0.00000000000E+00 0.  1.
          1   -1    0    0  501    0 -0.00000000000E+00 -0.00000000000E+00 -0.79354084505E+03  0.79354084505E+03  0.00000000000E+00 0. -1.
          2    1    1    2  501    0 -0.16803924436E+03  0.56801446415E+02 -0.21515436253E+03  0.27884582061E+03  0.00000000000E+00 0.  1.
          1    1    1    2  502    0 -0.39948186114E+02 -0.36518462145E+02 -0.34866212144E+03  0.35283810817E+03  0.00000000000E+00 0. -1.
         22    1    1    2    0    0  0.18637589147E+02 -0.90621675219E+01 -0.72226415082E+02  0.75140785496E+02  0.00000000000E+00 0.  1.
         22    1    1    2    0    0  0.18934984132E+03 -0.11220816748E+02 -0.48443657445E+02  0.19577041933E+03  0.00000000000E+00 0.  1.
</event>
<event>
 6    1  0.2144783E-005  0.1271684E+03  0.7818608E-02  0.1346152E+00
          2   -1    0    0  502    0  0.00000000000E+00  0.00000000000E+00  0.28155414129E+03  0.28155414129E+03  0.00000000000E+00 0.  1.
          1   -1    0    0  501    0 -0.00000000000E+00 -0.00000000000E+00 -0.27023984948E+03  0.27023984948E+03  0.00000000000E+00 0. -1.
          2    1    1    2  501    0  0.11195398322E+03  0.94392999435E+01  0.16737093835E+03  0.20158329729E+03  0.00000000000E+00 0.  1.
          1    1    1    2  502    0 -0.10574579519E+03 -0.56523072121E+01 -0.18863814103E+03  0.21632954035E+03  0.00000000000E+00 0. -1.
         22    1    1    2    0    0  0.12173924313E+02  0.84053814788E+01  0.80120039088E+02  0.81474385757E+02  0.00000000000E+00 0.  1.
         22    1    1    2    0    0 -0.18382112349E+02 -0.12192374210E+02 -0.47538544604E+02  0.52406767371E+02  0.00000000000E+00 0.  1.
</event>
<event>
 6    1  0.2144783E-005  0.5353266E+02  0.7818608E-02  0.1457110E+00
          2   -1    0    0  502    0  0.00000000000E+00  0.00000000000E+00  0.26459820327E+03  0.26459820327E+03  0.00000000000E+00 0. -1.
          1   -1    0    0  501    0 -0.00000000000E+00 -0.00000000000E+00 -0.93853976930E+02  0.93853976930E+02  0.00000000000E+00 0. -1.
          2    1    1    2  501    0  0.33178872052E+02 -0.84096135374E+02  0.84550308096E+02  0.12378106533E+03  0.00000000000E+00 0. -1.
          1    1    1    2  502    0  0.69740214056E+01  0.88604443095E+02  0.28546683743E+02  0.93350401518E+02  0.00000000000E+00 0. -1.
         22    1    1    2    0    0 -0.25552251563E+02 -0.18751869537E+02  0.94239968351E+02  0.99426967197E+02  0.00000000000E+00 0.  1.
         22    1    1    2    0    0 -0.14600641895E+02  0.14243561815E+02 -0.36592733846E+02  0.41893746159E+02  0.00000000000E+00 0.  1.
</event>
<event>
 6    1  0.2144783E-005  0.6045005E+02  0.7818608E-02  0.1516650E+00
          2   -1    0    0  502    0  0.00000000000E+00  0.00000000000E+00  0.51149409735E+02  0.51149409735E+02  0.00000000000E+00 0. -1.
          1   -1    0    0  501    0 -0.00000000000E+00 -0.00000000000E+00 -0.31427516879E+03  0.31427516879E+03  0.00000000000E+00 0. -1.
          2    1    1    2  501    0  0.58572074366E+02  0.20790358991E+02 -0.99360382599E+02  0.11719817641E+03  0.00000000000E+00 0. -1.
          1    1    1    2  502    0 -0.31403277287E+02  0.38807445499E+00 -0.90749339925E+02  0.96029990748E+02  0.00000000000E+00 0. -1.
         22    1    1    2    0    0 -0.31512944338E+01 -0.98484569678E+01  0.37311529684E+02  0.38717864205E+02  0.00000000000E+00 0.  1.
         22    1    1    2    0    0 -0.24017502645E+02 -0.11329976478E+02 -0.11032756622E+03  0.11347854717E+03  0.00000000000E+00 0. -1.
</event>
<event>
 6    1  0.2144783E-005  0.7207127E+02  0.7818608E-02  0.1411292E+00
          2   -1    0    0  502    0  0.00000000000E+00  0.00000000000E+00  0.78790064214E+02  0.78790064214E+02  0.00000000000E+00 0.  1.
          1   -1    0    0  501    0 -0.00000000000E+00 -0.00000000000E+00 -0.18101558494E+03  0.18101558494E+03  0.00000000000E+00 0. -1.
          2    1    1    2  501    0  0.46601917734E+01  0.73074049473E+02 -0.77475590317E+01  0.73631234980E+02  0.00000000000E+00 0.  1.
          1    1    1    2  502    0  0.10023932596E+02 -0.28600521794E+02 -0.27469577022E+02  0.40902893948E+02  0.00000000000E+00 0. -1.
         22    1    1    2    0    0  0.96623339020E+01 -0.30617900645E+02 -0.98218832769E+02  0.10333322625E+03  0.00000000000E+00 0. -1.
         22    1    1    2    0    0 -0.24346458271E+02 -0.13855627034E+02  0.31210448100E+02  0.41938293975E+02  0.00000000000E+00 0.  1.
</event>
<event>
 6    1  0.2144783E-005  0.4152678E+02  0.7818608E-02  0.1533414E+00
          2   -1    0    0  502    0  0.00000000000E+00  0.00000000000E+00  0.31150302543E+03  0.31150302543E+03  0.00000000000E+00 0.  1.
          1   -1    0    0  501    0 -0.00000000000E+00 -0.00000000000E+00 -0.19986061857E+03  0.19986061857E+03  0.00000000000E+00 0.  1.
          2    1    1    2  501    0  0.38713262476E+02 -0.33608318624E+00  0.19774852140E+03  0.20150262370E+03  0.00000000000E+00 0.  1.
          1    1    1    2  502    0 -0.19460938725E+02 -0.22069631180E+02 -0.15969940583E+03  0.16238749022E+03  0.00000000000E+00 0.  1.
         22    1    1    2    0    0 -0.83511777281E+01  0.24124246336E+02  0.10818906760E+03  0.11116022571E+03  0.00000000000E+00 0. -1.
         22    1    1    2    0    0 -0.10901146023E+02 -0.17185319700E+01 -0.34595776300E+02  0.36313304374E+02  0.00000000000E+00 0.  1.
</event>
<event>
 6    1  0.2144783E-005  0.6884342E+02  0.7818608E-02  0.1403609E+00
          2   -1    0    0  502    0  0.00000000000E+00  0.00000000000E+00  0.26500936936E+03  0.26500936936E+03  0.00000000000E+00 0. -1.
          1   -1    0    0  501    0 -0.00000000000E+00 -0.00000000000E+00 -0.58264571719E+02  0.58264571719E+02  0.00000000000E+00 0. -1.
          2    1    1    2  501    0 -0.35815686466E+02  0.16603416264E+02  0.15784690136E+03  0.16270857721E+03  0.00000000000E+00 0. -1.
          1    1    1    2  502    0  0.19544446632E+02  0.16635298418E+02  0.66202429934E+01  0.26505587428E+02  0.00000000000E+00 0. -1.
         22    1    1    2    0    0  0.36979320242E+02 -0.34835588123E+01 -0.33524534550E+02  0.50034985004E+02  0.00000000000E+00 0. -1.
         22    1    1    2    0    0 -0.20708080408E+02 -0.29755155870E+02  0.75802187840E+02  0.84024791439E+02  0.00000000000E+00 0. -1.
</event>
<event>
 6    1  0.2144783E-005  0.1037449E+03  0.7818608E-02  0.1347489E+00
          2   -1    0    0  502    0  0.00000000000E+00  0.00000000000E+00  0.13537415283E+03  0.13537415283E+03  0.00000000000E+00 0.  1.
          1   -1    0    0  501    0 -0.00000000000E+00 -0.00000000000E+00 -0.83085983815E+03  0.83085983815E+03  0.00000000000E+00 0. -1.
          2    1    1    2  501    0  0.54225290969E+02  0.10319884469E+03  0.24596925000E+02  0.11914441844E+03  0.00000000000E+00 0.  1.
          1    1    1    2  502    0 -0.54537247908E+02 -0.67658207190E+02 -0.71418620007E+03  0.71945387120E+03  0.00000000000E+00 0. -1.
         22    1    1    2    0    0 -0.91625872053E+01 -0.10654145816E+02 -0.63042612742E+02  0.64589742597E+02  0.00000000000E+00 0. -1.
         22    1    1    2    0    0  0.94745441436E+01 -0.24886491683E+02  0.57146202488E+02  0.63045958743E+02  0.00000000000E+00 0.  1.
</event>
<event>
 6    1  0.2144783E-005  0.1378035E+03  0.7818608E-02  0.1257012E+00
          2   -1    0    0  502    0  0.00000000000E+00  0.00000000000E+00  0.91394401209E+03  0.91394401209E+03  0.00000000000E+00 0.  1.
          1   -1    0    0  501    0 -0.00000000000E+00 -0.00000000000E+00 -0.49644009507E+03  0.49644009507E+03  0.00000000000E+00 0. -1.
          2    1    1    2  501    0  0.35579581671E+03 -0.43615875311E+03  0.45707692450E+03  0.72508236499E+03  0.00000000000E+00 0.  1.
          1    1    1    2  502    0 -0.33527580831E+03  0.43405235847E+03 -0.76048720797E+02  0.55370996511E+03  0.00000000000E+00 0. -1.
         22    1    1    2    0    0 -0.33378529432E+02  0.10084854636E+02  0.79055053172E+02  0.86403309845E+02  0.00000000000E+00 0. -1.
         22    1    1    2    0    0  0.12858521039E+02 -0.79784599881E+01 -0.42579339849E+02  0.45188467213E+02  0.00000000000E+00 0.  1.
</event>
<event>
 6    1  0.2144783E-005  0.3378564E+02  0.7818608E-02  0.1570758E+00
          2   -1    0    0  502    0  0.00000000000E+00  0.00000000000E+00  0.16469994513E+03  0.16469994513E+03  0.00000000000E+00 0.  1.
          1   -1    0    0  501    0 -0.00000000000E+00 -0.00000000000E+00 -0.21279528969E+03  0.21279528969E+03  0.00000000000E+00 0. -1.
          2    1    1    2  501    0 -0.31616879833E+01  0.57343526089E+02  0.62294777683E+02  0.84728481527E+02  0.00000000000E+00 0.  1.
          1    1    1    2  502    0  0.12409238863E+02 -0.18973468381E+02 -0.15029376022E+03  0.15199406591E+03  0.00000000000E+00 0. -1.
         22    1    1    2    0    0 -0.84486860309E+01 -0.28137555555E+02  0.87386746320E+02  0.92192981081E+02  0.00000000000E+00 0.  1.
         22    1    1    2    0    0 -0.79886484886E+00 -0.10232502153E+02 -0.47483108353E+02  0.48579706301E+02  0.00000000000E+00 0.  1.
</event>
<event>
 6    1  0.2144783E-005  0.4540317E+02  0.7818608E-02  0.1473082E+00
          2   -1    0    0  502    0  0.00000000000E+00  0.00000000000E+00  0.35926089686E+02  0.35926089686E+02  0.00000000000E+00 0.  1.
          1   -1    0    0  501    0 -0.00000000000E+00 -0.00000000000E+00 -0.25844032963E+03  0.25844032963E+03  0.00000000000E+00 0.  1.
          2    1    1    2  501    0 -0.42246028125E+01  0.21829058503E+02 -0.14312029665E+02  0.26442187073E+02  0.00000000000E+00 0.  1.
          1    1    1    2  502    0  0.23505571878E+02 -0.23552539533E+02 -0.91691478887E+02  0.97542612884E+02  0.00000000000E+00 0.  1.
         22    1    1    2    0    0 -0.39138732576E+02  0.21396104036E+02  0.57425613134E+01  0.44973444009E+02  0.00000000000E+00 0.  1.
         22    1    1    2    0    0  0.19857763510E+02 -0.19672623007E+02 -0.12225329270E+03  0.12540817535E+03  0.00000000000E+00 0.  1.
</event>
<event>
 6    1  0.2144783E-005  0.9027023E+02  0.7818608E-02  0.1346108E+00
          2   -1    0    0  502    0  0.00000000000E+00  0.00000000000E+00  0.12200580090E+03  0.12200580090E+03  0.00000000000E+00 0. -1.
          1   -1    0    0  501    0 -0.00000000000E+00 -0.00000000000E+00 -0.18817819001E+03  0.18817819001E+03  0.00000000000E+00 0.  1.
          2    1    1    2  501    0  0.80296215562E+02  0.11940817089E+02  0.27425319161E+02  0.85686717042E+02  0.00000000000E+00 0. -1.
          1    1    1    2  502    0 -0.51085367477E+02 -0.30180599911E+01 -0.79264115846E+02  0.94348415552E+02  0.00000000000E+00 0.  1.
         22    1    1    2    0    0 -0.24582036519E+02  0.32208480644E+02 -0.57502110401E+02  0.70343126497E+02  0.00000000000E+00 0.  1.
         22    1    1    2    0    0 -0.46288115667E+01 -0.41131237742E+02  0.43168517971E+02  0.59805731820E+02  0.00000000000E+00 0.  1.
</event>
<event>
 6    1  0.2144783E-005  0.2772054E+02  0.7818608E-02  0.1646477E+00
          2   -1    0    0  502    0  0.00000000000E+00  0.00000000000E+00  0.83103415096E+02  0.83103415096E+02  0.00000000000E+00 0.  1.
          1   -1    0    0  501    0 -0.00000000000E+00 -0.00000000000E+00 -0.11903494237E+03  0.11903494237E+03  0.00000000000E+00 0.  1.
          2    1    1    2  501    0 -0.20548664775E+02 -0.17397476619E+02  0.34538730664E+01  0.27144963730E+02  0.00000000000E+00 0.  1.
          1    1    1    2  502    0  0.23735600069E+02 -0.56386345112E+01 -0.40425758079E+02  0.47216679532E+02  0.00000000000E+00 0.  1.
         22    1    1    2    0    0 -0.22539269179E+02  0.32608691489E+02 -0.54956894645E+02  0.67761387860E+02  0.00000000000E+00 0.  1.
         22    1    1    2    0    0  0.19352333885E+02 -0.95725803591E+01  0.55997252384E+02  0.60015326344E+02  0.00000000000E+00 0.  1.
</event>
<event>
 6    1  0.2144783E-005  0.3459826E+02  0.7818608E-02  0.1578157E+00
          2   -1    0    0  502    0  0.00000000000E+00  0.00000000000E+00  0.15907408670E+03  0.15907408670E+03  0.00000000000E+00 0.  1.
          1   -1    0    0  501    0 -0.00000000000E+00 -0.00000000000E+00 -0.20463798056E+03  0.20463798056E+03  0.00000000000E+00 0.  1.
          2    1    1    2  501    0  0.67599526247E+02 -0.25169789081E+02  0.54867265268E+02  0.90629084896E+02  0.00000000000E+00 0.  1.
          1    1    1    2  502    0 -0.49748428590E+02  0.18036139902E+01 -0.13478905382E+03  0.14368802386E+03  0.00000000000E+00 0.  1.
         22    1    1    2    0    0 -0.14642908444E+02  0.30359418297E+01  0.78912101370E+02  0.80316570228E+02  0.00000000000E+00 0.  1.
         22    1    1    2    0    0 -0.32081892127E+01  0.20330233261E+02 -0.44554206681E+02  0.49078388273E+02  0.00000000000E+00 0.  1.
</event>
<event>
 6    1  0.2144783E-005  0.1474947E+03  0.7818608E-02  0.1224313E+00
          2   -1    0    0  502    0  0.00000000000E+00  0.00000000000E+00  0.10285897239E+04  0.10285897239E+04  0.00000000000E+00 0.  1.
          1   -1    0    0  501    0 -0.00000000000E+00 -0.00000000000E+00 -0.10995152513E+03  0.10995152513E+03  0.00000000000E+00 0.  1.
          2    1    1    2  501    0 -0.59102428181E+02  0.10324780481E+02  0.62720865343E+03  0.63007173643E+03  0.00000000000E+00 0.  1.
          1    1    1    2  502    0  0.12000812618E+03 -0.63530656760E+02 -0.42140433632E+02  0.14217563379E+03  0.00000000000E+00 0.  1.
         22    1    1    2    0    0 -0.62336749602E+02  0.71716233579E+02  0.33447075296E+03  0.34770644672E+03  0.00000000000E+00 0.  1.
         22    1    1    2    0    0  0.14310516045E+01 -0.18510357301E+02 -0.90077402139E+00  0.18587432043E+02  0.00000000000E+00 0.  1.
</event>
<event>
 6    1  0.2144783E-005  0.1163944E+03  0.7818608E-02  0.1253779E+00
          2   -1    0    0  502    0  0.00000000000E+00  0.00000000000E+00  0.73346381396E+03  0.73346381396E+03  0.00000000000E+00 0. -1.
          1   -1    0    0  501    0 -0.00000000000E+00 -0.00000000000E+00 -0.20108313830E+03  0.20108313830E+03  0.00000000000E+00 0. -1.
          2    1    1    2  501    0 -0.30518662509E+02 -0.67446797542E+02 -0.46817279388E+02  0.87591762793E+02  0.00000000000E+00 0. -1.
          1    1    1    2  502    0  0.10481335641E+02  0.18407736248E+03 -0.53328075249E+02  0.19193284603E+03  0.00000000000E+00 0. -1.
         22    1    1    2    0    0  0.11258241016E+02  0.49215647379E+01  0.15492383779E+01  0.12384261374E+02  0.00000000000E+00 0. -1.
         22    1    1    2    0    0  0.87790858519E+01 -0.12155212968E+03  0.63097679192E+03  0.64263808206E+03  0.00000000000E+00 0. -1.
</event>
<event>
 6    1  0.2144783E-005  0.7481221E+02  0.7818608E-02  0.1419454E+00
          2   -1    0    0  502    0  0.00000000000E+00  0.00000000000E+00  0.13632332752E+03  0.13632332752E+03  0.00000000000E+00 0. -1.
          1   -1    0    0  501    0 -0.00000000000E+00 -0.00000000000E+00 -0.14383565511E+03  0.14383565511E+03  0.00000000000E+00 0.  1.
          2    1    1    2  501    0 -0.30963137559E+02  0.49772963600E+02 -0.94481289985E+00  0.58625561528E+02  0.00000000000E+00 0. -1.
          1    1    1    2  502    0  0.26987195859E+02 -0.38272432723E+02 -0.69118235632E+02  0.83489031278E+02  0.00000000000E+00 0.  1.
         22    1    1    2    0    0  0.12420327852E+02  0.18246011248E+02  0.92439754038E+02  0.95038358556E+02  0.00000000000E+00 0. -1.
         22    1    1    2    0    0 -0.84443861513E+01 -0.29746542126E+02 -0.29889033094E+02  0.43006031265E+02  0.00000000000E+00 0. -1.
</event>
<event>
 6    1  0.2144783E-005  0.8047875E+02  0.7818608E-02  0.1342915E+00
          2   -1    0    0  502    0  0.00000000000E+00  0.00000000000E+00  0.27087666189E+03  0.27087666189E+03  0.00000000000E+00 0.  1.
          1   -1    0    0  501    0 -0.00000000000E+00 -0.00000000000E+00 -0.29755762584E+03  0.29755762584E+03  0.00000000000E+00 0.  1.
          2    1    1    2  501    0  0.16887209250E+03  0.68621416847E+01  0.13562214600E+03  0.21669849815E+03  0.00000000000E+00 0.  1.
          1    1    1    2  502    0 -0.16620297583E+03  0.49276233177E+02 -0.11800980538E+03  0.20970906155E+03  0.00000000000E+00 0.  1.
         22    1    1    2    0    0 -0.16290776179E+02 -0.22784786154E+02 -0.83919662455E+02  0.88470591810E+02  0.00000000000E+00 0.  1.
         22    1    1    2    0    0  0.13621659511E+02 -0.33353588708E+02  0.39626357879E+02  0.53556136215E+02  0.00000000000E+00 0.  1.
</event>
<event>
 6    1  0.2144783E-005  0.1509118E+03  0.7818608E-02  0.1316301E+00
          2   -1    0    0  502    0  0.00000000000E+00  0.00000000000E+00  0.68353832067E+03  0.68353832067E+03  0.00000000000E+00 0. -1.
          1   -1    0    0  501    0 -0.00000000000E+00 -0.00000000000E+00 -0.39344880998E+03  0.39344880998E+03  0.00000000000E+00 0. -1.
          2    1    1    2  501    0 -0.13083201346E+03 -0.91262318247E+02  0.58617871210E+03  0.60749593332E+03  0.00000000000E+00 0. -1.
          1    1    1    2  502    0  0.10505785784E+03  0.82760367803E+02 -0.31397969559E+03  0.34127654654E+03  0.00000000000E+00 0. -1.
         22    1    1    2    0    0  0.15857426411E+02 -0.26893572033E+01 -0.53195079546E+02  0.55573438821E+02  0.00000000000E+00 0. -1.
         22    1    1    2    0    0  0.99167292115E+01  0.11191307647E+02  0.71085573728E+02  0.72641211976E+02  0.00000000000E+00 0. -1.
</event>
<event>
 6    1  0.2144783E-005  0.8234924E+02  0.7818608E-02  0.1388505E+00
          2   -1    0    0  502    0  0.00000000000E+00  0.00000000000E+00  0.16400015004E+03  0.16400015004E+03  0.00000000000E+00 0.  1.
          1   -1    0    0  501    0 -0.00000000000E+00 -0.00000000000E+00 -0.19469046383E+03  0.19469046383E+03  0.00000000000E+00 0.  1.
          2    1    1    2  501    0  0.49174585715E+02 -0.47038898225E+02  0.77214333521E+02  0.10292157756E+03  0.00000000000E+00 0.  1.
          1    1    1    2  502    0 -0.37941631618E+02  0.50442300146E+02 -0.11539059676E+03  0.13152559779E+03  0.00000000000E+00 0.  1.
         22    1    1    2    0    0  0.38874348462E+01  0.18894760161E+02 -0.53877177850E+02  0.57226518366E+02  0.00000000000E+00 0.  1.
         22    1    1    2    0    0 -0.15120388943E+02 -0.22298162081E+02  0.61363127299E+02  0.67016920146E+02  0.00000000000E+00 0.  1.
</event>
<event>
 6    1  0.2144783E-005  0.5398248E+03  0.7818608E-02  0.1067392E+00
          2   -1    0    0  502    0  0.00000000000E+00  0.00000000000E+00  0.10107994002E+04  0.10107994002E+04  0.00000000000E+00 0.  1.
          1   -1    0    0  501    0 -0.00000000000E+00 -0.00000000000E+00 -0.35658563758E+03  0.35658563758E+03  0.00000000000E+00 0.  1.
          2    1    1    2  501    0 -0.19789727694E+03 -0.47675561974E+03  0.30699971562E+03  0.60058977561E+03  0.00000000000E+00 0.  1.
          1    1    1    2  502    0  0.15259694045E+03  0.45392820096E+03  0.10821576281E+03  0.49096567007E+03  0.00000000000E+00 0.  1.
         22    1    1    2    0    0 -0.38257435322E+02  0.23602038073E+02  0.40681782718E+02  0.60627510288E+02  0.00000000000E+00 0. -1.
         22    1    1    2    0    0  0.83557771812E+02 -0.77461929548E+00  0.19831650149E+03  0.21520208184E+03  0.00000000000E+00 0.  1.
</event>
<event>
 6    1  0.2144783E-005  0.1007218E+03  0.7818608E-02  0.1313960E+00
          2   -1    0    0  502    0  0.00000000000E+00  0.00000000000E+00  0.65760167302E+02  0.65760167302E+02  0.00000000000E+00 0. -1.
          1   -1    0    0  501    0 -0.00000000000E+00 -0.00000000000E+00 -0.16991643974E+04  0.16991643974E+04  0.00000000000E+00 0. -1.
          2    1    1    2  501    0  0.86322604016E+02 -0.10726760580E+03 -0.58863651462E+02  0.14974264817E+03  0.00000000000E+00 0. -1.
          1    1    1    2  502    0 -0.80622474068E+02  0.53039220446E+01 -0.12420651669E+04  0.12446903204E+04  0.00000000000E+00 0. -1.
         22    1    1    2    0    0 -0.38888329274E+02  0.61336643317E+02 -0.63571903789E+02  0.96518769773E+02  0.00000000000E+00 0.  1.
         22    1    1    2    0    0  0.33188199326E+02  0.40627040434E+02 -0.26890350800E+03  0.27397282640E+03  0.00000000000E+00 0.  1.
</event>
<event>
 6    1  0.2144783E-005  0.8594172E+02  0.7818608E-02  0.1341268E+00
          2   -1    0    0  502    0  0.00000000000E+00  0.00000000000E+00  0.24794437120E+03  0.24794437120E+03  0.00000000000E+00 0. -1.
          1   -1    0    0  501    0 -0.00000000000E+00 -0.00000000000E+00 -0.10985654095E+03  0.10985654095E+03  0.00000000000E+00 0.  1.
          2    1    1    2  501    0  0.13913918766E+02  0.33150022313E+02  0.11961872942E+03  0.12490460977E+03  0.00000000000E+00 0. -1.
          1    1    1    2  502    0 -0.67159476529E+02  0.38919584957E+02 -0.11894221094E+02  0.78527714065E+02  0.00000000000E+00 0.  1.
         22    1    1    2    0    0  0.53752919211E+02 -0.88162810763E+02 -0.16725519793E+02  0.10460306180E+03  0.00000000000E+00 0. -1.
         22    1    1    2    0    0 -0.50736144712E+00  0.16093203493E+02  0.47088841724E+02  0.49765526514E+02  0.00000000000E+00 0. -1.
</event>
<event>
 6    1  0.2144783E-005  0.5962253E+02  0.7818608E-02  0.1501392E+00
          2   -1    0    0  502    0  0.00000000000E+00  0.00000000000E+00  0.45744429320E+02  0.45744429320E+02  0.00000000000E+00 0.  1.
          1   -1    0    0  501    0 -0.00000000000E+00 -0.00000000000E+00 -0.52798592121E+03  0.52798592121E+03  0.00000000000E+00 0.  1.
          2    1    1    2  501    0  0.15364398383E+02  0.37134797407E+02 -0.14898004858E+02  0.42860336733E+02  0.00000000000E+00 0.  1.
          1    1    1    2  502    0 -0.54126314584E+02 -0.52027303873E+02 -0.34774190619E+03  0.35575403244E+03  0.00000000000E+00 0.  1.
         22    1    1    2    0    0  0.49024453209E+02  0.65005140530E+01 -0.14129116390E+03  0.14969584728E+03  0.00000000000E+00 0. -1.
         22    1    1    2    0    0 -0.10262537008E+02  0.83919924133E+01  0.21689583067E+02  0.25420134069E+02  0.00000000000E+00 0. -1.
</event>
<event>
 6    1  0.2144783E-005  0.1967564E+02  0.7818608E-02  0.1769493E+00
          2   -1    0    0  502    0  0.00000000000E+00  0.00000000000E+00  0.12057329279E+03  0.12057329279E+03  0.00000000000E+00 0.  1.
          1   -1    0    0  501    0 -0.00000000000E+00 -0.00000000000E+00 -0.15139501490E+03  0.15139501490E+03  0.00000000000E+00 0. -1.
          2    1    1    2  501    0 -0.18338829458E+01  0.20241171251E+02  0.45681005582E+02  0.49998224081E+02  0.00000000000E+00 0.  1.
          1    1    1    2  502    0 -0.16551110246E+02 -0.19334794330E+02 -0.94309694485E+02  0.97683632181E+02  0.00000000000E+00 0. -1.
         22    1    1    2    0    0  0.11054080282E+02  0.77645903419E+01  0.69786135331E+02  0.71081546399E+02  0.00000000000E+00 0.  1.
         22    1    1    2    0    0  0.73309129093E+01 -0.86709672627E+01 -0.51979168541E+02  0.53204905033E+02  0.00000000000E+00 0. -1.
</event>
<event>
 6    1  0.2144783E-005  0.1747871E+03  0.7818608E-02  0.1292785E+00
          2   -1    0    0  502    0  0.00000000000E+00  0.00000000000E+00  0.49474527848E+02  0.49474527848E+02  0.00000000000E+00 0. -1.
          1   -1    0    0  501    0 -0.00000000000E+00 -0.00000000000E+00 -0.98930355008E+03  0.98930355008E+03  0.00000000000E+00 0. -1.
          2    1    1    2  501    0  0.82272235926E+02  0.94120977047E+02 -0.69533334648E+03  0.70648138111E+03  0.00000000000E+00 0. -1.
          1    1    1    2  502    0  0.19034985750E+02 -0.55702042488E+02 -0.58570290073E+02  0.83039310565E+02  0.00000000000E+00 0. -1.
         22    1    1    2    0    0  0.91600159452E+00 -0.14773664700E+02  0.15940029427E+02  0.21752810525E+02  0.00000000000E+00 0.  1.
         22    1    1    2    0    0 -0.10222322327E+03 -0.23645269859E+02 -0.20186541510E+03  0.22750457573E+03  0.00000000000E+00 0. -1.
</event>
<event>
 6    1  0.2144783E-005  0.1094720E+03  0.7818608E-02  0.1396690E+00
          2   -1    0    0  502    0  0.00000000000E+00  0.00000000000E+00  0.88389989966E+02  0.88389989966E+02  0.00000000000E+00 0. -1.
          1   -1    0    0  501    0 -0.00000000000E+00 -0.00000000000E+00 -0.38678617112E+03  0.38678617112E+03  0.00000000000E+00 0. -1.
          2    1    1    2  501    0  0.66690543395E+02 -0.20594342839E+01  0.31681124108E+02  0.73861786281E+02  0.00000000000E+00 0. -1.
          1    1    1    2  502    0 -0.26106329963E+02 -0.44763210362E+02 -0.20386082375E+03  0.21034381599E+03  0.00000000000E+00 0. -1.
         22    1    1    2    0    0  0.17828478282E+01  0.99003057987E+01  0.26445016839E+02  0.28293701011E+02  0.00000000000E+00 0. -1.
         22    1    1    2    0    0 -0.42367061260E+02  0.36922338847E+02 -0.15266149835E+03  0.16267685780E+03  0.00000000000E+00 0.  1.
</event>
<event>
 6    1  0.2144783E-005  0.1016567E+03  0.7818608E-02  0.1330652E+00
          2   -1    0    0  502    0  0.00000000000E+00  0.00000000000E+00  0.42130601230E+03  0.42130601230E+03  0.00000000000E+00 0. -1.
          1   -1    0    0  501    0 -0.00000000000E+00 -0.00000000000E+00 -0.50587535882E+02  0.50587535882E+02  0.00000000000E+00 0. -1.
          2    1    1    2  501    0  0.88738682113E+02  0.19233876433E-01  0.42997103921E+02  0.98606820346E+02  0.00000000000E+00 0. -1.
          1    1    1    2  502    0 -0.50212584680E+02 -0.44661124130E+01  0.95940746226E+02  0.10837839548E+03  0.00000000000E+00 0. -1.
         22    1    1    2    0    0 -0.74428962584E+02 -0.77158180220E+01  0.84689297972E+02  0.11301097960E+03  0.00000000000E+00 0. -1.
         22    1    1    2    0    0  0.35902865152E+02  0.12162696559E+02  0.14709132830E+03  0.15189735276E+03  0.00000000000E+00 0. -1.
</event>
<event>
 6    1  0.2144783E-005  0.4322285E+02  0.7818608E-02  0.1512933E+00
          2   -1    0    0  502    0  0.00000000000E+00  0.00000000000E+00  0.41418898783E+03  0.41418898783E+03  0.00000000000E+00 0.  1.
          1   -1    0    0  501    0 -0.00000000000E+00 -0.00000000000E+00 -0.30317671309E+03  0.30317671309E+03  0.00000000000E+00 0.  1.
          2    1    1    2  501    0  0.19877054030E+02 -0.70997035295E+02  0.36573631209E+03  0.37309345515E+03  0.00000000000E+00 0.  1.
          1    1    1    2  502    0 -0.22596201912E+02  0.47696426480E+02 -0.19504844691E+03  0.20206294585E+03  0.00000000000E+00 0.  1.
         22    1    1    2    0    0 -0.18941048439E+02  0.48245479068E+01  0.36773944895E+02  0.41645679267E+02  0.00000000000E+00 0. -1.
         22    1    1    2    0    0  0.21660196321E+02  0.18476060908E+02 -0.96449535332E+02  0.10056362064E+03  0.00000000000E+00 0. -1.
</event>
<event>
 6    1  0.2144783E-005  0.5173443E+02  0.7818608E-02  0.1477107E+00
          2   -1    0    0  502    0  0.00000000000E+00  0.00000000000E+00  0.43065925283E+03  0.43065925283E+03  0.00000000000E+00 0.  1.
          1   -1    0    0  501    0 -0.00000000000E+00 -0.00000000000E+00 -0.51631512529E+02  0.51631512529E+02  0.00000000000E+00 0. -1.
          2    1    1    2  501    0 -0.66374132005E+02  0.25746070171E+02  0.25146741195E+03  0.26135080792E+03  0.00000000000E+00 0.  1.
          1    1    1    2  502    0  0.23707103204E+02 -0.15792545268E+02 -0.10197506566E+02  0.30255914604E+02  0.00000000000E+00 0. -1.
         22    1    1    2    0    0  0.28129145521E+02  0.44153769225E+01  0.15880924597E+03  0.16134162819E+03  0.00000000000E+00 0.  1.
         22    1    1    2    0    0  0.14537883280E+02 -0.14368901826E+02 -0.21051411052E+02  0.29342414645E+02  0.00000000000E+00 0. -1.
</event>
<event>
 6    1  0.2144783E-005  0.2380636E+03  0.7818608E-02  0.1163766E+00
          2   -1    0    0  502    0  0.00000000000E+00  0.00000000000E+00  0.69621701013E+03  0.69621701013E+03  0.00000000000E+00 0. -1.
          1   -1    0    0  501    0 -0.00000000000E+00 -0.00000000000E+00 -0.38798513307E+03  0.38798513307E+03  0.00000000000E+00 0. -1.
          2    1    1    2  501    0 -0.20611976815E+03  0.10502821287E+03 -0.30524439667E+03  0.38300186164E+03  0.00000000000E+00 0. -1.
          1    1    1    2  502    0  0.14298082505E+03 -0.13152538740E+03  0.30328723088E+03  0.36017438593E+03  0.00000000000E+00 0. -1.
         22    1    1    2    0    0  0.53206678856E+02  0.66788273384E+02  0.27029442721E+03  0.28346199307E+03  0.00000000000E+00 0.  1.
         22    1    1    2    0    0  0.99322642504E+01 -0.40291098849E+02  0.39894615638E+02  0.57563902548E+02  0.00000000000E+00 0. -1.
</event>
<event>
 6    1  0.2144783E-005  0.4304778E+02  0.7818608E-02  0.1538105E+00
          2   -1    0    0  502    0  0.00000000000E+00  0.00000000000E+00  0.53385482963E+02  0.53385482963E+02  0.00000000000E+00 0.  1.
          1   -1    0    0  501    0 -0.00000000000E+00 -0.00000000000E+00 -0.23097263432E+03  0.23097263432E+03  0.00000000000E+00 0.  1.
          2    1    1    2  501    0  0.23127025020E+02 -0.14748112904E+02  0.11336650079E+02  0.29679719600E+02  0.00000000000E+00 0.  1.
          1    1    1    2  502    0 -0.72446208952E+01  0.20046261516E+02 -0.94732565503E+02  0.97100958283E+02  0.00000000000E+00 0.  1.
         22    1    1    2    0    0  0.98403507623E+00 -0.21529902121E+02  0.26772479755E+02  0.34369618599E+02  0.00000000000E+00 0.  1.
         22    1    1    2    0    0 -0.16866439201E+02  0.16231753510E+02 -0.12096371569E+03  0.12320782081E+03  0.00000000000E+00 0. -1.
</event>
<event>
 6    1  0.2144783E-005  0.2075353E+03  0.7818608E-02  0.1248722E+00
          2   -1    0    0  502    0  0.00000000000E+00  0.00000000000E+00  0.16894281311E+04  0.16894281311E+04  0.00000000000E+00 0. -1.
          1   -1    0    0  501    0 -0.00000000000E+00 -0.00000000000E+00 -0.41144604893E+02  0.41144604893E+02  0.00000000000E+00 0. -1.
          2    1    1    2  501    0  0.15924245472E+03 -0.82109030942E+02  0.23114542573E+03  0.29245215024E+03  0.00000000000E+00 0. -1.
          1    1    1    2  502    0 -0.17455696597E+02  0.21063643565E+02  0.47801300853E+03  0.47879516993E+03  0.00000000000E+00 0. -1.
         22    1    1    2    0    0  0.20335733387E+02 -0.39537983654E+01  0.81259129572E+02  0.83858337168E+02  0.00000000000E+00 0. -1.
         22    1    1    2    0    0 -0.16212249151E+03  0.64999185742E+02  0.85786596242E+03  0.87546707870E+03  0.00000000000E+00 0. -1.
</event>
<event>
 6    1  0.2144783E-005  0.4283718E+02  0.7818608E-02  0.1571365E+00
          2   -1    0    0  502    0  0.00000000000E+00  0.00000000000E+00  0.78186607727E+03  0.78186607727E+03  0.00000000000E+00 0. -1.
          1   -1    0    0  501    0 -0.00000000000E+00 -0.00000000000E+00 -0.27894101910E+02  0.27894101910E+02  0.00000000000E+00 0.  1.
          2    1    1    2  501    0 -0.45159724189E+02  0.17766097937E+02  0.46988926066E+03  0.47238856063E+03  0.00000000000E+00 0. -1.
          1    1    1    2  502    0  0.36590508281E+02  0.31567625987E+02  0.85522398455E+02  0.98231669761E+02  0.00000000000E+00 0.  1.
         22    1    1    2    0    0  0.88302571537E+00 -0.38268122852E+02  0.21471725268E+03  0.21810256202E+03  0.00000000000E+00 0. -1.
         22    1    1    2    0    0  0.76861901926E+01 -0.11065601071E+02 -0.16156936443E+02  0.21037386767E+02  0.00000000000E+00 0.  1.
</event>
<event>
 6    1  0.2144783E-005  0.4919219E+03  0.7818608E-02  0.1058970E+00
          2   -1    0    0  502    0  0.00000000000E+00  0.00000000000E+00  0.66275232454E+03  0.66275232454E+03  0.00000000000E+00 0. -1.
          1   -1    0    0  501    0 -0.00000000000E+00 -0.00000000000E+00 -0.74514112028E+03  0.74514112028E+03  0.00000000000E+00 0. -1.
          2    1    1    2  501    0  0.28988958967E+03  0.41339252446E+03 -0.48240623260E+03  0.69831592186E+03  0.00000000000E+00 0. -1.
          1    1    1    2  502    0 -0.27443860135E+03 -0.27225917993E+03  0.21322320532E+03  0.44148130453E+03  0.00000000000E+00 0. -1.
         22    1    1    2    0    0 -0.44612320961E+02 -0.46334892221E+01  0.16227754424E+02  0.47697677277E+02  0.00000000000E+00 0. -1.
         22    1    1    2    0    0  0.29161332640E+02 -0.13649985531E+03  0.17056647712E+03  0.22039854114E+03  0.00000000000E+00 0. -1.
</event>
<event>
 6    1  0.2144783E-005  0.8981594E+02  0.7818608E-02  0.1381471E+00
          2   -1    0    0  502    0  0.00000000000E+00  0.00000000000E+00  0.32906184689E+03  0.32906184689E+03  0.00000000000E+00 0. -1.
          1   -1    0    0  501    0 -0.00000000000E+00 -0.00000000000E+00 -0.86218245938E+02  0.86218245938E+02  0.00000000000E+00 0.  1.
          2    1    1    2  501    0  0.60376778168E+02  0.34740636439E+02  0.19494952035E+03  0.20702072999E+03  0.00000000000E+00 0. -1.
          1    1    1    2  502    0 -0.54147814609E+02 -0.37398463593E+02 -0.87288248650E+01  0.66383908363E+02  0.00000000000E+00 0.  1.
         22    1    1    2    0    0  0.85859147972E+01  0.20602245873E+02  0.94676033068E+02  0.97271381739E+02  0.00000000000E+00 0.  1.
         22    1    1    2    0    0 -0.14814878356E+02 -0.17944418719E+02 -0.38053127603E+02  0.44604072731E+02  0.00000000000E+00 0.  1.
</event>
<event>
 6    1  0.2144783E-005  0.1759324E+02  0.7818608E-02  0.1833236E+00
          2   -1    0    0  502    0  0.00000000000E+00  0.00000000000E+00  0.67346668238E+02  0.67346668238E+02  0.00000000000E+00 0. -1.
          1   -1    0    0  501    0 -0.00000000000E+00 -0.00000000000E+00 -0.31155304210E+03  0.31155304210E+03  0.00000000000E+00 0.  1.
          2    1    1    2  501    0  0.75664444118E+01  0.18648090544E+02 -0.10397551621E+02  0.22651963307E+02  0.00000000000E+00 0. -1.
          1    1    1    2  502    0 -0.48930104441E+01 -0.21178897072E+02 -0.23066427540E+03  0.23168619980E+03  0.00000000000E+00 0.  1.
         22    1    1    2    0    0  0.69517748057E+01  0.10785487591E+02 -0.62532259588E+02  0.63835236388E+02  0.00000000000E+00 0.  1.
         22    1    1    2    0    0 -0.96252087734E+01 -0.82546810625E+01  0.59387712746E+02  0.60726310843E+02  0.00000000000E+00 0. -1.
</event>
<event>
 6    1  0.2144783E-005  0.7134436E+02  0.7818608E-02  0.1436631E+00
          2   -1    0    0  502    0  0.00000000000E+00  0.00000000000E+00  0.32226802226E+02  0.32226802226E+02  0.00000000000E+00 0. -1.
          1   -1    0    0  501    0 -0.00000000000E+00 -0.00000000000E+00 -0.47350993160E+03  0.47350993160E+03  0.00000000000E+00 0. -1.
          2    1    1    2  501    0  0.38410720485E+02  0.12970691235E+02 -0.22056216101E+02  0.46152995006E+02  0.00000000000E+00 0. -1.
          1    1    1    2  502    0 -0.30027957898E+02  0.70696028297E+01 -0.22922306335E+03  0.23128958107E+03  0.00000000000E+00 0. -1.
         22    1    1    2    0    0 -0.11706728096E+02 -0.39356674262E+02 -0.20145295786E+03  0.20559496473E+03  0.00000000000E+00 0. -1.
         22    1    1    2    0    0  0.33239655085E+01  0.19316380197E+02  0.11449107947E+02  0.22699193012E+02  0.00000000000E+00 0. -1.
</event>
<event>
 6    1  0.2144783E-005  0.1745553E+03  0.7818608E-02  0.1202800E+00
          2   -1    0    0  502    0  0.00000000000E+00  0.00000000000E+00  0.18665610430E+03  0.18665610430E+03  0.00000000000E+00 0. -1.
          1   -1    0    0  501    0 -0.00000000000E+00 -0.00000000000E+00 -0.51291819941E+03  0.51291819941E+03  0.00000000000E+00 0. -1.
          2    1    1    2  501    0 -0.61849206596E+02 -0.14477549168E+03 -0.27449572654E+01  0.15745730259E+03  0.00000000000E+00 0. -1.
          1    1    1    2  502    0  0.13672345700E+03  0.10216197987E+03 -0.35210377127E+03  0.39128945752E+03  0.00000000000E+00 0. -1.
         22    1    1    2    0    0 -0.83585490365E+02  0.34708659542E+02  0.65736796902E+02  0.11185951776E+03  0.00000000000E+00 0.  1.
         22    1    1    2    0    0  0.87112399599E+01  0.79048522635E+01 -0.37150163481E+02  0.38968025837E+02  0.00000000000E+00 0.  1.
</event>
<event>
 6    1  0.2144783E-005  0.3340373E+02  0.7818608E-02  0.1633538E+00
          2   -1    0    0  502    0  0.00000000000E+00  0.00000000000E+00  0.64258616543E+02  0.64258616543E+02  0.00000000000E+00 0. -1.
          1   -1    0    0  501    0 -0.00000000000E+00 -0.00000000000E+00 -0.27442284363E+03  0.27442284363E+03  0.00000000000E+00 0. -1.
          2    1    1    2  501    0  0.46474063300E+02 -0.44704802146E+02 -0.13085161703E+03  0.14587838624E+03  0.00000000000E+00 0. -1.
          1    1    1    2  502    0 -0.15495125042E+02  0.37709020315E+02 -0.31468354602E+02  0.51500742272E+02  0.00000000000E+00 0. -1.
         22    1    1    2    0    0 -0.98501615820E+01 -0.26950945667E+01  0.44716282071E+02  0.45867582236E+02  0.00000000000E+00 0. -1.
         22    1    1    2    0    0 -0.21128776676E+02  0.96908763977E+01 -0.92560537524E+02  0.95434749415E+02  0.00000000000E+00 0. -1.
</event>
<event>
 6    1  0.2144783E-005  0.9077217E+02  0.7818608E-02  0.1421546E+00
          2   -1    0    0  502    0  0.00000000000E+00  0.00000000000E+00  0.12940930939E+03  0.12940930939E+03  0.00000000000E+00 0. -1.
          1   -1    0    0  501    0 -0.00000000000E+00 -0.00000000000E+00 -0.14612691381E+03  0.14612691381E+03  0.00000000000E+00 0.  1.
          2    1    1    2  501    0  0.93702166987E+02  0.13100241943E+02  0.21816853697E+02  0.97096279755E+02  0.00000000000E+00 0. -1.
          1    1    1    2  502    0 -0.26714762508E+02  0.67035742712E+01 -0.20014388581E+02  0.34046911668E+02  0.00000000000E+00 0.  1.
         22    1    1    2    0    0 -0.73467431263E+01 -0.94447962997E+01  0.50899856388E+02  0.52287419061E+02  0.00000000000E+00 0. -1.
         22    1    1    2    0    0 -0.59640661353E+02 -0.10359019914E+02 -0.69419925922E+02  0.92105612724E+02  0.00000000000E+00 0.  1.
</event>
<event>
 6    1  0.2144783E-005  0.5352328E+02  0.7818608E-02  0.1489195E+00
          2   -1    0    0  502    0  0.00000000000E+00  0.00000000000E+00  0.10666071787E+03  0.10666071787E+03  0.00000000000E+00 0. -1.
          1   -1    0    0  501    0 -0.00000000000E+00 -0.00000000000E+00 -0.35223897830E+03  0.35223897830E+03  0.00000000000E+00 0.  1.
          2    1    1    2  501    0 -0.79596738554E+02  0.58635014991E+02 -0.17430713860E+03  0.20039132800E+03  0.00000000000E+00 0. -1.
          1    1    1    2  502    0  0.72076735257E+02 -0.11028643262E+02 -0.10165250597E+03  0.12509963512E+03  0.00000000000E+00 0.  1.
         22    1    1    2    0    0  0.28683448590E+01 -0.34358864160E+02  0.77189710436E+02  0.84539992583E+02  0.00000000000E+00 0. -1.
         22    1    1    2    0    0  0.46516584373E+01 -0.13247507568E+02 -0.46808326298E+02  0.48868740456E+02  0.00000000000E+00 0. -1.
</event>
<event>
 6    1  0.2144783E-005  0.3872540E+02  0.7818608E-02  0.1538581E+00
          2   -1    0    0  502    0  0.00000000000E+00  0.00000000000E+00  0.68377283145E+02  0.68377283145E+02  0.00000000000E+00 0.  1.
          1   -1    0    0  501    0 -0.00000000000E+00 -0.00000000000E+00 -0.30001420582E+03  0.30001420582E+03  0.00000000000E+00 0.  1.
          2    1    1    2  501    0  0.19826192909E+02  0.29963324904E+02  0.76369426428E+01  0.36731480469E+02  0.00000000000E+00 0.  1.
          1    1    1    2  502    0 -0.22478426979E+02 -0.25410576203E+01 -0.19726789961E+03  0.19856072338E+03  0.00000000000E+00 0.  1.
         22    1    1    2    0    0  0.17793542972E+02 -0.23430802250E+02  0.39975839947E+02  0.49635475671E+02  0.00000000000E+00 0.  1.
         22    1    1    2    0    0 -0.15141308901E+02 -0.39914650330E+01 -0.81981805658E+02  0.83463809447E+02  0.00000000000E+00 0.  1.
</event>
<event>
 6    1  0.2144783E-005  0.3625904E+03  0.7818608E-02  0.1122909E+00
          2   -1    0    0  502    0  0.00000000000E+00  0.00000000000E+00  0.36558251950E+03  0.36558251950E+03  0.00000000000E+00 0.  1.
          1   -1    0    0  501    0 -0.00000000000E+00 -0.00000000000E+00 -0.69210879043E+03  0.69210879043E+03  0.00000000000E+00 0. -1.
          2    1    1    2  501    0  0.50398719145E+02 -0.40565049113E+03  0.49866669069E+02  0.41179975295E+03  0.00000000000E+00 0.  1.
          1    1    1    2  502    0 -0.57198967054E+02  0.30983154036E+03 -0.37259520553E+03  0.48794927238E+03  0.00000000000E+00 0. -1.
         22    1    1    2    0    0  0.32309105969E+01  0.31525604912E+02 -0.62967533776E+02  0.70492644000E+02  0.00000000000E+00 0. -1.
         22    1    1    2    0    0  0.35693373121E+01  0.64293345850E+02  0.59169799316E+02  0.87449640597E+02  0.00000000000E+00 0. -1.
</event>
<event>
 6    1  0.2144783E-005  0.2969770E+02  0.7818608E-02  0.1629888E+00
          2   -1    0    0  502    0  0.00000000000E+00  0.00000000000E+00  0.98562175302E+02  0.98562175302E+02  0.00000000000E+00 0. -1.
          1   -1    0    0  501    0 -0.00000000000E+00 -0.00000000000E+00 -0.13338994817E+03  0.13338994817E+03  0.00000000000E+00 0. -1.
          2    1    1    2  501    0 -0.28214352434E+02 -0.56688206594E+02 -0.30287776395E+02  0.70192249210E+02  0.00000000000E+00 0. -1.
          1    1    1    2  502    0  0.11965434868E+02  0.34902029935E+02  0.12292018442E+01  0.36916585193E+02  0.00000000000E+00 0. -1.
         22    1    1    2    0    0  0.30100098144E+00  0.13124321600E+02  0.57522260671E+02  0.59001261782E+02  0.00000000000E+00 0. -1.
         22    1    1    2    0    0  0.15947916584E+02  0.86618550594E+01 -0.63291458991E+02  0.65842027290E+02  0.00000000000E+00 0. -1.
</event>
<event>
 6    1  0.2144783E-005  0.1709483E+03  0.7818608E-02  0.1257105E+00
          2   -1    0    0  502    0  0.00000000000E+00  0.00000000000E+00  0.11758577900E+03  0.11758577900E+03  0.00000000000E+00 0. -1.
          1   -1    0    0  501    0 -0.00000000000E+00 -0.00000000000E+00 -0.10050499118E+04  0.10050499118E+04  0.00000000000E+00 0. -1.
          2    1    1    2  501    0  0.18435764074E+03  0.45872871189E+02 -0.26456445965E+03  0.32570909309E+03  0.00000000000E+00 0. -1.
          1    1    1    2  502    0 -0.14357140915E+03 -0.55055448605E+02 -0.64489052363E+03  0.66296880727E+03  0.00000000000E+00 0. -1.
         22    1    1    2    0    0 -0.30885718515E+02  0.55307746586E+01  0.74269091930E+02  0.80625151737E+02  0.00000000000E+00 0. -1.
         22    1    1    2    0    0 -0.99005130786E+01  0.36518027572E+01 -0.52278241422E+02  0.53332638682E+02  0.00000000000E+00 0. -1.
</event>
<event>
 6    1  0.2144783E-005  0.9051025E+02  0.7818608E-02  0.1349322E+00
          2   -1    0    0  502    0  0.00000000000E+00  0.00000000000E+00  0.88776617893E+02  0.88776617893E+02  0.00000000000E+00 0.  1.
          1   -1    0    0  501    0 -0.00000000000E+00 -0.00000000000E+00 -0.25970384064E+03  0.25970384064E+03  0.00000000000E+00 0. -1.
          2    1    1    2  501    0  0.10972160270E+03  0.41356795717E+02 -0.48574921832E+02  0.12692020202E+03  0.00000000000E+00 0.  1.
          1    1    1    2  502    0 -0.20938322060E+02  0.36161050951E+01 -0.31647987319E+02  0.38119347425E+02  0.00000000000E+00 0. -1.
         22    1    1    2    0    0 -0.52576646417E+02 -0.30848291306E+02 -0.12011818319E+03  0.13470077490E+03  0.00000000000E+00 0. -1.
         22    1    1    2    0    0 -0.36206634218E+02 -0.14124609506E+02  0.29413869602E+02  0.48740134182E+02  0.00000000000E+00 0.  1.
</event>
<event>
 6    1  0.2144783E-005  0.2465369E+02  0.7818608E-02  0.1716383E+00
          2   -1    0    0  502    0  0.00000000000E+00  0.00000000000E+00  0.11775921950E+03  0.11775921950E+03  0.00000000000E+00 0.  1.
          1   -1    0    0  501    0 -0.00000000000E+00 -0.00000000000E+00 -0.36850675058E+03  0.36850675058E+03  0.00000000000E+00 0. -1.
          2    1    1    2  501    0 -0.42820055439E+02  0.19820759600E+02  0.48767779049E+02  0.67858057239E+02  0.00000000000E+00 0.  1.
          1    1    1    2  502    0  0.28002569340E+02  0.89626394782E+01 -0.28993902559E+03  0.29142599637E+03  0.00000000000E+00 0. -1.
         22    1    1    2    0    0  0.18508344625E+02 -0.15274788402E+02  0.55473635021E+02  0.60441725355E+02  0.00000000000E+00 0. -1.
         22    1    1    2    0    0 -0.36908585258E+01 -0.13508610676E+02 -0.65049919563E+02  0.66540191119E+02  0.00000000000E+00 0.  1.
</event>
<event>
 6    1  0.2144783E-005  0.3389875E+02  0.7818608E-02  0.1571647E+00
          2   -1    0    0  502    0  0.00000000000E+00  0.00000000000E+00  0.16976468864E+03  0.16976468864E+03  0.00000000000E+00 0. -1.
          1   -1    0    0  501    0 -0.00000000000E+00 -0.00000000000E+00 -0.11776649055E+03  0.11776649055E+03  0.00000000000E+00 0. -1.
          2    1    1    2  501    0  0.97183279533E+00 -0.29404934810E+02  0.28496365849E+02  0.40958973580E+02  0.00000000000E+00 0. -1.
          1    1    1    2  502    0  0.43213923875E+01  0.40567826784E+02 -0.75374949472E+02  0.85707677661E+02  0.00000000000E+00 0. -1.
         22    1    1    2    0    0 -0.29595305095E+02 -0.49990656682E+01  0.12267693757E+03  0.12629530376E+03  0.00000000000E+00 0. -1.
         22    1    1    2    0    0  0.24302079912E+02 -0.61638263059E+01 -0.23800155844E+02  0.34569224188E+02  0.00000000000E+00 0.  1.
</event>
<event>
 6    1  0.2144783E-005  0.1124720E+03  0.7818608E-02  0.1323088E+00
          2   -1    0    0  502    0  0.00000000000E+00  0.00000000000E+00  0.53873489815E+03  0.53873489815E+03  0.00000000000E+00 0. -1.
          1   -1    0    0  501    0 -0.00000000000E+00 -0.00000000000E+00 -0.59284736791E+02  0.59284736791E+02  0.00000000000E+00 0.  1.
          2    1    1    2  501    0 -0.68243240120E+02 -0.68432754868E+02  0.31891735076E+03  0.33323934098E+03  0.00000000000E+00 0. -1.
          1    1    1    2  502    0  0.45665051708E+02  0.55558478929E+02  0.16181104302E+02  0.73714785931E+02  0.00000000000E+00 0.  1.
         22    1    1    2    0    0  0.13639305123E+02 -0.28940939392E+02  0.14481087624E+03  0.14830306300E+03  0.00000000000E+00 0. -1.
         22    1    1    2    0    0  0.89388832885E+01  0.41815215332E+02 -0.45916994866E+00  0.42762445027E+02  0.00000000000E+00 0.  1.
</event>
<event>
 6    1  0.2144783E-005  0.9993242E+02  0.7818608E-02  0.1314304E+00
          2   -1    0    0  502    0  0.00000000000E+00  0.00000000000E+00  0.41688799403E+03  0.41688799403E+03  0.00000000000E+00 0. -1.
          1   -1    0    0  501    0 -0.00000000000E+00 -0.00000000000E+00 -0.62509680439E+02  0.62509680439E+02  0.00000000000E+00 0. -1.
          2    1    1    2  501    0  0.90168047911E+02  0.13360708252E+02  0.13868998571E+03  0.16596294021E+03  0.00000000000E+00 0. -1.
          1    1    1    2  502    0 -0.35835169701E+01 -0.44175005284E+02 -0.61255436473E+01  0.44741423432E+02  0.00000000000E+00 0. -1.
         22    1    1    2    0    0 -0.34289246769E+02  0.40911594718E+02  0.20648022582E+03  0.21326883195E+03  0.00000000000E+00 0. -1.
         22    1    1    2    0    0 -0.52295284172E+02 -0.10097297686E+02  0.15333645706E+02  0.55424478868E+02  0.00000000000E+00 0.  1.
</event>
<event>
 6    1  0.2144783E-005  0.1796435E+03  0.7818608E-02  0.1309051E+00
          2   -1    0    0  502    0  0.00000000000E+00  0.00000000000E+00  0.14711693996E+03  0.14711693996E+03  0.00000000000E+00 0.  1.
          1   -1    0    0  501    0 -0.00000000000E+00 -0.00000000000E+00 -0.25917535508E+03  0.25917535508E+03  0.00000000000E+00 0.  1.
          2    1    1    2  501    0  0.71432042105E+02  0.12273908697E+03  0.10731273750E+02  0.14241692436E+03  0.00000000000E+00 0.  1.
          1    1    1    2  502    0  0.27000073000E+01 -0.86732929142E+02 -0.50638278915E+02  0.10046952935E+03  0.00000000000E+00 0.  1.
         22    1    1    2    0    0 -0.82659590579E+02 -0.41428668297E+02 -0.98553412353E+02  0.13513592253E+03  0.00000000000E+00 0.  1.
         22    1    1    2    0    0  0.85275411744E+01  0.54225104705E+01  0.26402002399E+02  0.28269918800E+02  0.00000000000E+00 0. -1.
</event>
<event>
 6    1  0.2144783E-005  0.4478133E+02  0.7818608E-02  0.1586708E+00
          2   -1    0    0  502    0  0.00000000000E+00  0.00000000000E+00  0.47811022517E+03  0.47811022517E+03  0.00000000000E+00 0. -1.
          1   -1    0    0  501    0 -0.00000000000E+00 -0.00000000000E+00 -0.16224382071E+03  0.16224382071E+03  0.00000000000E+00 0. -1.
          2    1    1    2  501    0 -0.35664460302E+02 -0.23233508479E+02  0.41186903662E+03  0.41406261963E+03  0.00000000000E+00 0. -1.
          1    1    1    2  502    0  0.22826145398E+02  0.16633410338E+02 -0.92160256689E+02  0.96390954794E+02  0.00000000000E+00 0. -1.
         22    1    1    2    0    0  0.61616750399E+01 -0.83253578784E+01  0.61590651376E+02  0.62455473419E+02  0.00000000000E+00 0. -1.
         22    1    1    2    0    0  0.66766398640E+01  0.14925456020E+02 -0.65433026855E+02  0.67444998041E+02  0.00000000000E+00 0. -1.
</event>
<event>
 6    1  0.2144783E-005  0.9337515E+02  0.7818608E-02  0.1382432E+00
          2   -1    0    0  502    0  0.00000000000E+00  0.00000000000E+00  0.71266338268E+02  0.71266338268E+02  0.00000000000E+00 0.  1.
          1   -1    0    0  501    0 -0.00000000000E+00 -0.00000000000E+00 -0.62083643104E+03  0.62083643104E+03  0.00000000000E+00 0.  1.
          2    1    1    2  501    0 -0.85531809930E+02 -0.13601545666E+03 -0.20011247672E+03  0.25663378246E+03  0.00000000000E+00 0.  1.
          1    1    1    2  502    0  0.30259847227E+02  0.12110404323E+03 -0.17881252752E+03  0.21807284938E+03  0.00000000000E+00 0.  1.
         22    1    1    2    0    0  0.62819325139E+02  0.36042555636E+01 -0.18631362521E+03  0.19665204095E+03  0.00000000000E+00 0. -1.
         22    1    1    2    0    0 -0.75473624368E+01  0.11307157865E+02  0.15668536680E+02  0.20744096520E+02  0.00000000000E+00 0.  1.
</event>
<event>
 6    1  0.2144783E-005  0.1215434E+03  0.7818608E-02  0.1338417E+00
          2   -1    0    0  502    0  0.00000000000E+00  0.00000000000E+00  0.34365476727E+02  0.34365476727E+02  0.00000000000E+00 0.  1.
          1   -1    0    0  501    0 -0.00000000000E+00 -0.00000000000E+00 -0.81343006856E+03  0.81343006856E+03  0.00000000000E+00 0.  1.
          2    1    1    2  501    0 -0.77742549653E+02 -0.86290911130E+02 -0.15694878876E+03  0.19525098634E+03  0.00000000000E+00 0.  1.
          1    1    1    2  502    0  0.39038948865E+02  0.14761845727E+02 -0.22569315067E+03  0.22951982459E+03  0.00000000000E+00 0.  1.
         22    1    1    2    0    0 -0.15437855229E+02  0.11690699491E+02 -0.93416306111E+00  0.19387431219E+02  0.00000000000E+00 0.  1.
         22    1    1    2    0    0  0.54141456016E+02  0.59838365912E+02 -0.39548848934E+03  0.40363730315E+03  0.00000000000E+00 0.  1.
</event>
<event>
 6    1  0.2144783E-005  0.6973147E+02  0.7818608E-02  0.1386504E+00
          2   -1    0    0  502    0  0.00000000000E+00  0.00000000000E+00  0.87888114658E+02  0.87888114658E+02  0.00000000000E+00 0. -1.
          1   -1    0    0  501    0 -0.00000000000E+00 -0.00000000000E+00 -0.39006923801E+03  0.39006923801E+03  0.00000000000E+00 0. -1.
          2    1    1    2  501    0  0.61607757200E+02 -0.22540639925E+02 -0.10017670703E+03  0.11974543343E+03  0.00000000000E+00 0. -1.
          1    1    1    2  502    0  0.64573245069E+02  0.14191338211E+02 -0.16447683923E+03  0.17726739323E+03  0.00000000000E+00 0. -1.
         22    1    1    2    0    0 -0.45516018353E+02  0.53368619523E+01  0.45897642220E+02  0.64859722352E+02  0.00000000000E+00 0. -1.
         22    1    1    2    0    0 -0.80664983917E+02  0.30124397620E+01 -0.83425219311E+02  0.11608480366E+03  0.00000000000E+00 0.  1.
</event>
<event>
 6    1  0.2144783E-005  0.8136580E+02  0.7818608E-02  0.1344862E+00
          2   -1    0    0  502    0  0.00000000000E+00  0.00000000000E+00  0.74468806160E+02  0.74468806160E+02  0.00000000000E+00 0. -1.
          1   -1    0    0  501    0 -0.00000000000E+00 -0.00000000000E+00 -0.52164117345E+03  0.52164117345E+03  0.00000000000E+00 0. -1.
          2    1    1    2  501    0  0.79889247842E+02  0.81158485476E+02 -0.21169028111E+02  0.11583229013E+03  0.00000000000E+00 0. -1.
          1    1    1    2  502    0 -0.35641670286E+02  0.53783400475E+01 -0.20778469529E+03  0.21088796741E+03  0.00000000000E+00 0. -1.
         22    1    1    2    0    0 -0.14412456863E+02 -0.55916903451E+02 -0.12248065490E+02  0.59029095475E+02  0.00000000000E+00 0.  1.
         22    1    1    2    0    0 -0.29835120693E+02 -0.30619922072E+02 -0.20597057840E+03  0.21036062659E+03  0.00000000000E+00 0. -1.
</event>
<event>
 6    1  0.2144783E-005  0.2558557E+03  0.7818608E-02  0.1158857E+00
          2   -1    0    0  502    0  0.00000000000E+00  0.00000000000E+00  0.25858689735E+03  0.25858689735E+03  0.00000000000E+00 0. -1.
          1   -1    0    0  501    0 -0.00000000000E+00 -0.00000000000E+00 -0.65364917005E+03  0.65364917005E+03  0.00000000000E+00 0. -1.
          2    1    1    2  501    0 -0.18459622736E+03  0.21499830136E+03 -0.69609136632E-01  0.28337261969E+03  0.00000000000E+00 0. -1.
          1    1    1    2  502    0  0.10175479721E+03 -0.21226540909E+03 -0.41531644304E+03  0.47738704476E+03  0.00000000000E+00 0. -1.
         22    1    1    2    0    0  0.76730364120E+02  0.74730272114E+01  0.67718373459E+02  0.10261175867E+03  0.00000000000E+00 0. -1.
         22    1    1    2    0    0  0.61110660311E+01 -0.10205919485E+02 -0.47394593988E+02  0.48864644272E+02  0.00000000000E+00 0.  1.
</event>
<event>
 6    1  0.2144783E-005  0.1294621E+03  0.7818608E-02  0.1323208E+00
          2   -1    0    0  502    0  0.00000000000E+00  0.00000000000E+00  0.55912629307E+02  0.55912629307E+02  0.00000000000E+00 0.  1.
          1   -1    0    0  501    0 -0.00000000000E+00 -0.00000000000E+00 -0.74536391548E+03  0.74536391548E+03  0.00000000000E+00 0. -1.
          2    1    1    2  501    0 -0.13689641806E+02 -0.10175686331E+03 -0.54575237203E+02  0.11627691963E+03  0.00000000000E+00 0.  1.
          1    1    1    2  502    0 -0.20601525813E+02  0.83760275526E+02 -0.44356772669E+03  0.45187668094E+03  0.00000000000E+00 0. -1.
         22    1    1    2    0    0  0.26649608751E+02  0.37485581269E+02 -0.20367900862E+03  0.20880734902E+03  0.00000000000E+00 0.  1.
         22    1    1    2    0    0  0.76415588682E+01 -0.19488993486E+02  0.12370686342E+02  0.24315595193E+02  0.00000000000E+00 0. -1.
</event>
<event>
 6    1  0.2144783E-005  0.3885777E+03  0.7818608E-02  0.1183987E+00
          2   -1    0    0  502    0  0.00000000000E+00  0.00000000000E+00  0.16950610917E+03  0.16950610917E+03  0.00000000000E+00 0. -1.
          1   -1    0    0  501    0 -0.00000000000E+00 -0.00000000000E+00 -0.99701326766E+03  0.99701326766E+03  0.00000000000E+00 0. -1.
          2    1    1    2  501    0  0.20891261942E+03  0.25000291763E+03 -0.23746773167E+03  0.40315861018E+03  0.00000000000E+00 0. -1.
          1    1    1    2  502    0 -0.18166624963E+03 -0.14554164548E+03 -0.54270143328E+03  0.59051658953E+03  0.00000000000E+00 0. -1.
         22    1    1    2    0    0 -0.25711051491E+02 -0.11676877487E+03 -0.75957358887E+02  0.14165283380E+03  0.00000000000E+00 0. -1.
         22    1    1    2    0    0 -0.15353182986E+01  0.12307502717E+02  0.28619365351E+02  0.31191343326E+02  0.00000000000E+00 0.  1.
</event>
<event>
 6    1  0.2144783E-005  0.1453672E+03  0.7818608E-02  0.1298702E+00
          2   -1    0    0  502    0  0.00000000000E+00  0.00000000000E+00  0.26706250882E+02  0.26706250882E+02  0.00000000000E+00 0.  1.
          1   -1    0    0  501    0 -0.00000000000E+00 -0.00000000000E+00 -0.84680198150E+03  0.84680198150E+03  0.00000000000E+00 0. -1.
          2    1    1    2  501    0  0.27426381064E+02  0.14809232506E+02 -0.60743279704E+02  0.68273463182E+02  0.00000000000E+00 0.  1.
          1    1    1    2  502    0 -0.82835687459E+02 -0.59214375055E+02 -0.49951974671E+03  0.50979218382E+03  0.00000000000E+00 0. -1.
         22    1    1    2    0    0  0.38224667293E+02  0.29036712308E+02 -0.26701490807E+03  0.27129544224E+03  0.00000000000E+00 0.  1.
         22    1    1    2    0    0  0.17184639102E+02  0.15368430240E+02  0.71822038681E+01  0.24147143133E+02  0.00000000000E+00 0.  1.
</event>
<event>
 6    1  0.2144783E-005  0.4114140E+02  0.7818608E-02  0.1503741E+00
          2   -1    0    0  502    0  0.00000000000E+00  0.00000000000E+00  0.21856586652E+03  0.21856586652E+03  0.00000000000E+00 0. -1.
          1   -1    0    0  501    0 -0.00000000000E+00 -0.00000000000E+00 -0.10594436668E+03  0.10594436668E+03  0.00000000000E+00 0. -1.
          2    1    1    2  501    0  0.25690631719E+02  0.40210704365E+02 -0.55669899917E+02  0.73321532038E+02  0.00000000000E+00 0. -1.
          1    1    1    2  502    0 -0.29205297005E+02 -0.48594774179E+02  0.44015895594E+02  0.71776044162E+02  0.00000000000E+00 0. -1.
         22    1    1    2    0    0 -0.33671626561E+02  0.69182803501E+01 -0.13325834507E+02  0.36867586083E+02  0.00000000000E+00 0. -1.
         22    1    1    2    0    0  0.37186291846E+02  0.14657894641E+01  0.13760133867E+03  0.14254507092E+03  0.00000000000E+00 0. -1.
</event>
<event>
 6    1  0.2144783E-005  0.3535191E+02  0.7818608E-02  0.1580372E+00
          2   -1    0    0  502    0  0.00000000000E+00  0.00000000000E+00  0.10845226256E+03  0.10845226256E+03  0.00000000000E+00 0.  1.
          1   -1    0    0  501    0 -0.00000000000E+00 -0.00000000000E+00 -0.22991042302E+03  0.22991042302E+03  0.00000000000E+00 0.  1.
          2    1    1    2  501    0 -0.88663948132E+01  0.45489852304E+02  0.24658130323E+01  0.46411419430E+02  0.00000000000E+00 0.  1.
          1    1    1    2  502    0 -0.26288863244E+02 -0.21191016938E+02 -0.15355360666E+03  0.15722237006E+03  0.00000000000E+00 0.  1.
         22    1    1    2    0    0  0.16136461402E+02 -0.22917222210E+02 -0.47567772033E+02  0.55211207165E+02  0.00000000000E+00 0. -1.
         22    1    1    2    0    0  0.19018796655E+02 -0.13816131561E+01  0.77197405204E+02  0.79517688921E+02  0.00000000000E+00 0.  1.
</event>
<event>
 6    1  0.2144783E-005  0.6916820E+02  0.7818608E-02  0.1444602E+00
          2   -1    0    0  502    0  0.00000000000E+00  0.00000000000E+00  0.14093072881E+03  0.14093072881E+03  0.00000000000E+00 0. -1.
          1   -1    0    0  501    0 -0.00000000000E+00 -0.00000000000E+00 -0.24672855782E+03  0.24672855782E+03  0.00000000000E+00 0.  1.
          2    1    1    2  501    0 -0.66449735137E+02 -0.95996624777E+01  0.68449922156E+02  0.95880721017E+02  0.00000000000E+00 0. -1.
          1    1    1    2  502    0  0.31011722559E+02 -0.16829904105E+02 -0.15174703826E+03  0.15579517396E+03  0.00000000000E+00 0.  1.
         22    1    1    2    0    0  0.53860613475E+01  0.18319942451E+02  0.51917449237E+02  0.55317732089E+02  0.00000000000E+00 0. -1.
         22    1    1    2    0    0  0.30051951230E+02  0.81096241322E+01 -0.74418162140E+02  0.80665659562E+02  0.00000000000E+00 0.  1.
</event>
<event>
 6    1  0.2144783E-005  0.1976951E+03  0.7818608E-02  0.1159063E+00
          2   -1    0    0  502    0  0.00000000000E+00  0.00000000000E+00  0.25777462101E+02  0.25777462101E+02  0.00000000000E+00 0.  1.
          1   -1    0    0  501    0 -0.00000000000E+00 -0.00000000000E+00 -0.32541168205E+04  0.32541168205E+04  0.00000000000E+00 0.  1.
          2    1    1    2  501    0 -0.15719299301E+03  0.10433467807E+02 -0.91814035798E+03  0.93155794842E+03  0.00000000000E+00 0.  1.
          1    1    1    2  502    0  0.32363208018E+02  0.14872154947E+03 -0.13788109013E+04  0.13871859926E+04  0.00000000000E+00 0.  1.
         22    1    1    2    0    0  0.64013168082E+02 -0.43586935434E+01 -0.37454310709E+03  0.37999897759E+03  0.00000000000E+00 0.  1.
         22    1    1    2    0    0  0.60816616915E+02 -0.15479632374E+03 -0.55684499201E+03  0.58115136399E+03  0.00000000000E+00 0.  1.
</event>
<event>
 6    1  0.2144783E-005  0.6550208E+02  0.7818608E-02  0.1482413E+00
          2   -1    0    0  502    0  0.00000000000E+00  0.00000000000E+00  0.34312497453E+03  0.34312497453E+03  0.00000000000E+00 0.  1.
          1   -1    0    0  501    0 -0.00000000000E+00 -0.00000000000E+00 -0.11007718990E+03  0.11007718990E+03  0.00000000000E+00 0. -1.
          2    1    1    2  501    0 -0.44018031602E+02 -0.38200541766E+01  0.22541217674E+03  0.22970160936E+03  0.00000000000E+00 0.  1.
          1    1    1    2  502    0  0.32330477092E+02 -0.70255687583E+02 -0.13960952452E+01  0.77350310075E+02  0.00000000000E+00 0. -1.
         22    1    1    2    0    0  0.44210010684E+01  0.63277918968E+02 -0.53066700652E+02  0.82702569473E+02  0.00000000000E+00 0. -1.
         22    1    1    2    0    0  0.72665534418E+01  0.10797822792E+02  0.62098403793E+02  0.63447675525E+02  0.00000000000E+00 0.  1.
</event>
<event>
 6    1  0.2144783E-005  0.6282274E+02  0.7818608E-02  0.1437536E+00
          2   -1    0    0  502    0  0.00000000000E+00  0.00000000000E+00  0.78461965249E+03  0.78461965249E+03  0.00000000000E+00 0. -1.
          1   -1    0    0  501    0 -0.00000000000E+00 -0.00000000000E+00 -0.20543289055E+03  0.20543289055E+03  0.00000000000E+00 0. -1.
          2    1    1    2  501    0  0.48351559215E+02  0.78926375373E+02  0.60411177974E+03  0.61116142584E+03  0.00000000000E+00 0. -1.
          1    1    1    2  502    0 -0.40644352857E+02 -0.98982686665E+02 -0.16274413043E+03  0.19476957582E+03  0.00000000000E+00 0. -1.
         22    1    1    2    0    0  0.13347327686E+02 -0.90097595976E+01 -0.18040850347E+02  0.24182621976E+02  0.00000000000E+00 0.  1.
         22    1    1    2    0    0 -0.21054534044E+02  0.29066070890E+02  0.15585996298E+03  0.15993891940E+03  0.00000000000E+00 0.  1.
</event>
<event>
 6    1  0.2144783E-005  0.8030410E+02  0.7818608E-02  0.1329402E+00
          2   -1    0    0  502    0  0.00000000000E+00  0.00000000000E+00  0.50978887642E+02  0.50978887642E+02  0.00000000000E+00 0. -1.
          1   -1    0    0  501    0 -0.00000000000E+00 -0.00000000000E+00 -0.12030112284E+04  0.12030112284E+04  0.00000000000E+00 0. -1.
          2    1    1    2  501    0  0.40949490579E+01  0.64628872257E+02 -0.59291876130E+03  0.59644473109E+03  0.00000000000E+00 0. -1.
          1    1    1    2  502    0  0.12706897500E+02 -0.12702981176E+03 -0.47651797238E+03  0.49332283175E+03  0.00000000000E+00 0. -1.
         22    1    1    2    0    0  0.70135477587E+01 -0.15192329140E+02 -0.81343856933E+02  0.83047093734E+02  0.00000000000E+00 0.  1.
         22    1    1    2    0    0 -0.23815394316E+02  0.77593268646E+02 -0.12517501608E+01  0.81175459494E+02  0.00000000000E+00 0. -1.
</event>
<event>
 6    1  0.2144783E-005  0.8081161E+02  0.7818608E-02  0.1364678E+00
          2   -1    0    0  502    0  0.00000000000E+00  0.00000000000E+00  0.78079129490E+02  0.78079129490E+02  0.00000000000E+00 0.  1.
          1   -1    0    0  501    0 -0.00000000000E+00 -0.00000000000E+00 -0.51061393218E+03  0.51061393218E+03  0.00000000000E+00 0. -1.
          2    1    1    2  501    0 -0.47543725660E+02 -0.15025796195E+02 -0.37289789903E+02  0.62263222146E+02  0.00000000000E+00 0.  1.
          1    1    1    2  502    0  0.76134517612E+02  0.12767115391E+02 -0.38715567643E+03  0.39477712927E+03  0.00000000000E+00 0. -1.
         22    1    1    2    0    0 -0.41312121775E+02  0.82776780239E+01  0.53714067232E+02  0.68267213050E+02  0.00000000000E+00 0.  1.
         22    1    1    2    0    0  0.12721329822E+02 -0.60189972197E+01 -0.61803403595E+02  0.63385497205E+02  0.00000000000E+00 0. -1.
</event>
<event>
 6    1  0.2144783E-005  0.6001414E+02  0.7818608E-02  0.1422068E+00
          2   -1    0    0  502    0  0.00000000000E+00  0.00000000000E+00  0.34338679181E+03  0.34338679181E+03  0.00000000000E+00 0. -1.
          1   -1    0    0  501    0 -0.00000000000E+00 -0.00000000000E+00 -0.18299172819E+03  0.18299172819E+03  0.00000000000E+00 0.  1.
          2    1    1    2  501    0  0.48971587269E+02  0.86341055219E+02  0.24715294699E+03  0.26634108466E+03  0.00000000000E+00 0. -1.
          1    1    1    2  502    0 -0.19417764422E+02 -0.41407801167E+02 -0.11522056894E+03  0.12396545922E+03  0.00000000000E+00 0.  1.
         22    1    1    2    0    0 -0.21660075817E+02 -0.34897712221E+02  0.76249792999E+02  0.86608545393E+02  0.00000000000E+00 0. -1.
         22    1    1    2    0    0 -0.78937470290E+01 -0.10035541831E+02 -0.47787107434E+02  0.49463430723E+02  0.00000000000E+00 0.  1.
</event>
<event>
 6    1  0.2144783E-005  0.2395519E+02  0.7818608E-02  0.1716093E+00
          2   -1    0    0  502    0  0.00000000000E+00  0.00000000000E+00  0.71428110988E+02  0.71428110988E+02  0.00000000000E+00 0.  1.
          1   -1    0    0  501    0 -0.00000000000E+00 -0.00000000000E+00 -0.12618704526E+03  0.12618704526E+03  0.00000000000E+00 0.  1.
          2    1    1    2  501    0  0.32762121436E+02 -0.82039042991E+01 -0.70773258334E+01  0.34507233845E+02  0.00000000000E+00 0.  1.
          1    1    1    2  502    0 -0.19156877454E+02  0.14036899907E+02 -0.31962947025E+02  0.39820227213E+02  0.00000000000E+00 0.  1.
         22    1    1    2    0    0 -0.18439405343E+02  0.54117717939E+01 -0.67446850812E+02  0.70131138789E+02  0.00000000000E+00 0.  1.
         22    1    1    2    0    0  0.48341613618E+01 -0.11244767402E+02  0.51728189398E+02  0.53156556401E+02  0.00000000000E+00 0.  1.
</event>
<event>
 6    1  0.2144783E-005  0.1936471E+03  0.7818608E-02  0.1196600E+00
          2   -1    0    0  502    0  0.00000000000E+00  0.00000000000E+00  0.14306592229E+03  0.14306592229E+03  0.00000000000E+00 0. -1.
          1   -1    0    0  501    0 -0.00000000000E+00 -0.00000000000E+00 -0.11958661714E+04  0.11958661714E+04  0.00000000000E+00 0. -1.
          2    1    1    2  501    0 -0.74030471044E+02  0.52608746779E+02 -0.10498409913E+04  0.10537619741E+04  0.00000000000E+00 0. -1.
          1    1    1    2  502    0  0.57259071556E+02 -0.69270639794E+02  0.88311583105E+02  0.12599983541E+03  0.00000000000E+00 0. -1.
         22    1    1    2    0    0  0.67908327266E+02  0.33789969900E+02 -0.45612040910E+02  0.88508537746E+02  0.00000000000E+00 0.  1.
         22    1    1    2    0    0 -0.51136927778E+02 -0.17128076885E+02 -0.45658799962E+02  0.70661746471E+02  0.00000000000E+00 0.  1.
</event>
<event>
 6    1  0.2144783E-005  0.8801257E+02  0.7818608E-02  0.1377435E+00
          2   -1    0    0  502    0  0.00000000000E+00  0.00000000000E+00  0.15306372985E+03  0.15306372985E+03  0.00000000000E+00 0.  1.
          1   -1    0    0  501    0 -0.00000000000E+00 -0.00000000000E+00 -0.13059987910E+03  0.13059987910E+03  0.00000000000E+00 0.  1.
          2    1    1    2  501    0  0.37157669822E+02 -0.74654131190E+02  0.73612254526E+02  0.11123261998E+03  0.00000000000E+00 0.  1.
          1    1    1    2  502    0 -0.11072793998E+02  0.19226885977E+02 -0.94823690483E+01  0.24128722181E+02  0.00000000000E+00 0.  1.
         22    1    1    2    0    0 -0.25364544121E+02 -0.73704943733E+01  0.38360975289E+02  0.46575194159E+02  0.00000000000E+00 0. -1.
         22    1    1    2    0    0 -0.72033170283E+00  0.62797739586E+02 -0.80027010014E+02  0.10172707263E+03  0.00000000000E+00 0.  1.
</event>
<event>
 6    1  0.2144783E-005  0.1220767E+03  0.7818608E-02  0.1347471E+00
          2   -1    0    0  502    0  0.00000000000E+00  0.00000000000E+00  0.15530178683E+03  0.15530178683E+03  0.00000000000E+00 0. -1.
          1   -1    0    0  501    0 -0.00000000000E+00 -0.00000000000E+00 -0.22777130771E+03  0.22777130771E+03  0.00000000000E+00 0. -1.
          2    1    1    2  501    0  0.67565080853E+02  0.84751857871E+02  0.49959663587E+02  0.11934775050E+03  0.00000000000E+00 0. -1.
          1    1    1    2  502    0 -0.56397748433E+02 -0.43522620494E+02 -0.10846370972E+03  0.12976633172E+03  0.00000000000E+00 0. -1.
         22    1    1    2    0    0 -0.13362275231E+02  0.94203332327E+01  0.49846698586E+02  0.52459378927E+02  0.00000000000E+00 0.  1.
         22    1    1    2    0    0  0.21949428103E+01 -0.50649570610E+02 -0.63812173330E+02  0.81499633386E+02  0.00000000000E+00 0. -1.
</event>
<event>
 6    1  0.2144783E-005  0.7343947E+02  0.7818608E-02  0.1394583E+00
          2   -1    0    0  502    0  0.00000000000E+00  0.00000000000E+00  0.92377327614E+02  0.92377327614E+02  0.00000000000E+00 0. -1.
          1   -1    0    0  501    0 -0.00000000000E+00 -0.00000000000E+00 -0.70240937771E+03  0.70240937771E+03  0.00000000000E+00 0. -1.
          2    1    1    2  501    0  0.26072986052E+02  0.10231387207E+02  0.59214268999E+01  0.28627699565E+02  0.00000000000E+00 0. -1.
          1    1    1    2  502    0 -0.16352178696E+02 -0.47916206715E+02 -0.63619120168E+03  0.63820263374E+03  0.00000000000E+00 0. -1.
         22    1    1    2    0    0 -0.20167201470E+02  0.27939110698E+02  0.69010259468E+02  0.77134465925E+02  0.00000000000E+00 0. -1.
         22    1    1    2    0    0  0.10446394113E+02  0.97457088092E+01 -0.48772534781E+02  0.50821906095E+02  0.00000000000E+00 0.  1.
</event>
<event>
 6    1  0.2144783E-005  0.4978942E+02  0.7818608E-02  0.1495903E+00
          2   -1    0    0  502    0  0.00000000000E+00  0.00000000000E+00  0.22561607687E+03  0.22561607687E+03  0.00000000000E+00 0. -1.
          1   -1    0    0  501    0 -0.00000000000E+00 -0.00000000000E+00 -0.75574251055E+02  0.75574251055E+02  0.00000000000E+00 0. -1.
          2    1    1    2  501    0 -0.10227019268E+02 -0.31246881942E+02  0.10389234069E+03  0.10897053734E+03  0.00000000000E+00 0. -1.
          1    1    1    2  502    0  0.23163830816E+02  0.12971244295E+02 -0.35300100413E+02  0.44169144499E+02  0.00000000000E+00 0. -1.
         22    1    1    2    0    0  0.11360594758E+02  0.21801773388E+02 -0.27198801170E+02  0.36662722501E+02  0.00000000000E+00 0. -1.
         22    1    1    2    0    0 -0.24297406306E+02 -0.35261357401E+01  0.10864838671E+03  0.11138792359E+03  0.00000000000E+00 0. -1.
</event>
<event>
 6    1  0.2144783E-005  0.3967539E+02  0.7818608E-02  0.1576889E+00
          2   -1    0    0  502    0  0.00000000000E+00  0.00000000000E+00  0.14929975653E+03  0.14929975653E+03  0.00000000000E+00 0.  1.
          1   -1    0    0  501    0 -0.00000000000E+00 -0.00000000000E+00 -0.12105981055E+03  0.12105981055E+03  0.00000000000E+00 0. -1.
          2    1    1    2  501    0  0.37826420093E+01 -0.26370215314E+02  0.86703108393E+02  0.90703504019E+02  0.00000000000E+00 0.  1.
          1    1    1    2  502    0 -0.90541102041E+01  0.27900352952E+02 -0.47270746837E+02  0.55632096069E+02  0.00000000000E+00 0. -1.
         22    1    1    2    0    0  0.15129567820E+02  0.73215071738E+01 -0.65758434433E+02  0.67872527496E+02  0.00000000000E+00 0. -1.
         22    1    1    2    0    0 -0.98580996256E+01 -0.88516448119E+01  0.54566018851E+02  0.56151439495E+02  0.00000000000E+00 0. -1.
</event>
<event>
 6    1  0.2144783E-005  0.8119406E+02  0.7818608E-02  0.1358328E+00
          2   -1    0    0  502    0  0.00000000000E+00  0.00000000000E+00  0.22001937065E+03  0.22001937065E+03  0.00000000000E+00 0. -1.
          1   -1    0    0  501    0 -0.00000000000E+00 -0.00000000000E+00 -0.19146297916E+03  0.19146297916E+03  0.00000000000E+00 0. -1.
          2    1    1    2  501    0  0.11953695284E+03 -0.57364826588E+02 -0.72071812513E+02  0.15091107509E+03  0.00000000000E+00 0. -1.
          1    1    1    2  502    0 -0.75205763859E+02  0.47540752431E+02  0.90039491494E+02  0.12658254259E+03  0.00000000000E+00 0. -1.
         22    1    1    2    0    0  0.35139371728E+02  0.22987058607E+02  0.29410719214E+02  0.51265687487E+02  0.00000000000E+00 0.  1.
         22    1    1    2    0    0 -0.79470560712E+02 -0.13162984449E+02 -0.18822006705E+02  0.82723044648E+02  0.00000000000E+00 0.  1.
</event>
<event>
 6    1  0.2144783E-005  0.1498306E+03  0.7818608E-02  0.1273703E+00
          2   -1    0    0  502    0  0.00000000000E+00  0.00000000000E+00  0.92644474440E+02  0.92644474440E+02  0.00000000000E+00 0.  1.
          1   -1    0    0  501    0 -0.00000000000E+00 -0.00000000000E+00 -0.11291064823E+04  0.11291064823E+04  0.00000000000E+00 0. -1.
          2    1    1    2  501    0  0.12991516345E+03 -0.14775083166E+02 -0.47455804667E+02  0.13909818896E+03  0.00000000000E+00 0.  1.
          1    1    1    2  502    0 -0.11993670604E+03  0.56419277860E+02 -0.92646268618E+03  0.93589585813E+03  0.00000000000E+00 0. -1.
         22    1    1    2    0    0  0.63072876051E+01 -0.33129764710E+02  0.34348734038E+02  0.48137290292E+02  0.00000000000E+00 0. -1.
         22    1    1    2    0    0 -0.16285745013E+02 -0.85144299848E+01 -0.96892251018E+02  0.98619619326E+02  0.00000000000E+00 0. -1.
</event>
<event>
 6    1  0.2144783E-005  0.3216505E+02  0.7818608E-02  0.1601158E+00
          2   -1    0    0  502    0  0.00000000000E+00  0.00000000000E+00  0.65729955674E+02  0.65729955674E+02  0.00000000000E+00 0.  1.
          1   -1    0    0  501    0 -0.00000000000E+00 -0.00000000000E+00 -0.86812209165E+03  0.86812209165E+03  0.00000000000E+00 0.  1.
          2    1    1    2  501    0  0.65638038219E+01  0.40288579177E+02 -0.20754494473E+01  0.40872492255E+02  0.00000000000E+00 0.  1.
          1    1    1    2  502    0  0.16309219696E+02 -0.45233868813E+02 -0.75224007568E+03  0.75377531466E+03  0.00000000000E+00 0.  1.
         22    1    1    2    0    0 -0.17886758430E+02 -0.85991435055E+01 -0.91405202517E+02  0.93534979785E+02  0.00000000000E+00 0. -1.
         22    1    1    2    0    0 -0.49862650877E+01  0.13544433142E+02  0.43328591675E+02  0.45669260616E+02  0.00000000000E+00 0.  1.
</event>
<event>
 6    1  0.2144783E-005  0.7968933E+02  0.7818608E-02  0.1358211E+00
          2   -1    0    0  502    0  0.00000000000E+00  0.00000000000E+00  0.91599246297E+02  0.91599246297E+02  0.00000000000E+00 0. -1.
          1   -1    0    0  501    0 -0.00000000000E+00 -0.00000000000E+00 -0.23718188440E+03  0.23718188440E+03  0.00000000000E+00 0. -1.
          2    1    1    2  501    0  0.15905770581E+02  0.20291363184E+02 -0.17163116089E+03  0.17355687352E+03  0.00000000000E+00 0. -1.
          1    1    1    2  502    0 -0.45746985151E+01 -0.25681570489E+02  0.10324945735E+02  0.28054864706E+02  0.00000000000E+00 0. -1.
         22    1    1    2    0    0  0.35589019175E+02 -0.33639707286E+02  0.38223352155E+02  0.62122724039E+02  0.00000000000E+00 0. -1.
         22    1    1    2    0    0 -0.46920091240E+02  0.39029914590E+02 -0.22499775110E+02  0.65046668438E+02  0.00000000000E+00 0. -1.
</event>
<event>
 6    1  0.2144783E-005  0.5295390E+02  0.7818608E-02  0.1494271E+00
          2   -1    0    0  502    0  0.00000000000E+00  0.00000000000E+00  0.27289597940E+03  0.27289597940E+03  0.00000000000E+00 0. -1.
          1   -1    0    0  501    0 -0.00000000000E+00 -0.00000000000E+00 -0.10660423699E+03  0.10660423699E+03  0.00000000000E+00 0. -1.
          2    1    1    2  501    0  0.61633021307E+02  0.18473287408E+01  0.15974152570E+03  0.17122907747E+03  0.00000000000E+00 0. -1.
          1    1    1    2  502    0 -0.27068585219E+02  0.57287416157E+02 -0.57863601188E+01  0.63624196019E+02  0.00000000000E+00 0. -1.
         22    1    1    2    0    0 -0.28601754895E+02 -0.40246782914E+02 -0.55320629133E+02  0.74150090530E+02  0.00000000000E+00 0. -1.
         22    1    1    2    0    0 -0.59626811929E+01 -0.18887961983E+02  0.67657205960E+02  0.70496852364E+02  0.00000000000E+00 0. -1.
</event>
<event>
 6    1  0.2144783E-005  0.3315818E+02  0.7818608E-02  0.1601972E+00
          2   -1    0    0  502    0  0.00000000000E+00  0.00000000000E+00  0.12847492907E+03  0.12847492907E+03  0.00000000000E+00 0. -1.
          1   -1    0    0  501    0 -0.00000000000E+00 -0.00000000000E+00 -0.14267248432E+04  0.14267248432E+04  0.00000000000E+00 0. -1.
          2    1    1    2  501    0  0.16052021758E+02 -0.34952447676E+02 -0.29695367147E+01  0.38576665866E+02  0.00000000000E+00 0. -1.
          1    1    1    2  502    0  0.25270448756E+02  0.30944870671E+02 -0.13681275668E+04  0.13687107874E+04  0.00000000000E+00 0. -1.
         22    1    1    2    0    0 -0.14632059000E+02  0.94758095104E+01 -0.33697399519E+02  0.37939462975E+02  0.00000000000E+00 0. -1.
         22    1    1    2    0    0 -0.26690411513E+02 -0.54682325048E+01  0.10654458890E+03  0.10997285600E+03  0.00000000000E+00 0. -1.
</event>
<event>
 6    1  0.2934247E-005  0.1793343E+03  0.7818608E-02  0.1285856E+00
          2   -1    0    0  502    0  0.00000000000E+00  0.00000000000E+00  0.80347558922E+03  0.80347558922E+03  0.00000000000E+00 0. -1.
          1   -1    0    0  501    0 -0.00000000000E+00 -0.00000000000E+00 -0.65156132261E+03  0.65156132261E+03  0.00000000000E+00 0.  1.
          2    1    1    2  501    0 -0.43482955400E+02  0.16547427124E+03  0.71178375493E+03  0.73205779528E+03  0.00000000000E+00 0. -1.
          1    1    1    2  502    0  0.64411922545E+02 -0.14730952240E+03 -0.57512646518E+03  0.59717622366E+03  0.00000000000E+00 0.  1.
         22    1    1    2    0    0 -0.15591482112E+02 -0.66775443243E+00  0.68109330534E+02  0.69874323727E+02  0.00000000000E+00 0. -1.
         22    1    1    2    0    0 -0.53374850335E+01 -0.17496994404E+02 -0.52852353680E+02  0.55928569168E+02  0.00000000000E+00 0.  1.
</event>
<event>
 6    1  0.2144783E-005  0.8318680E+02  0.7818608E-02  0.1445137E+00
          2   -1    0    0  502    0  0.00000000000E+00  0.00000000000E+00  0.89206812939E+02  0.89206812939E+02  0.00000000000E+00 0. -1.
          1   -1    0    0  501    0 -0.00000000000E+00 -0.00000000000E+00 -0.51310892510E+03  0.51310892510E+03  0.00000000000E+00 0.  1.
          2    1    1    2  501    0 -0.62054317819E+02 -0.44519774144E+02 -0.88277993982E+00  0.76377535639E+02  0.00000000000E+00 0. -1.
          1    1    1    2  502    0  0.53656185489E+02  0.24994444542E+02 -0.38631519223E+03  0.39082366388E+03  0.00000000000E+00 0.  1.
         22    1    1    2    0    0  0.17499173322E+02  0.13544701517E+02 -0.83853310522E+02  0.86724031800E+02  0.00000000000E+00 0.  1.
         22    1    1    2    0    0 -0.91010409920E+01  0.59806280848E+01  0.47149170529E+02  0.48390506724E+02  0.00000000000E+00 0. -1.
</event>
<event>
 6    1  0.2144783E-005  0.3969843E+02  0.7818608E-02  0.1531905E+00
          2   -1    0    0  502    0  0.00000000000E+00  0.00000000000E+00  0.18774853469E+03  0.18774853469E+03  0.00000000000E+00 0. -1.
          1   -1    0    0  501    0 -0.00000000000E+00 -0.00000000000E+00 -0.22431086869E+03  0.22431086869E+03  0.00000000000E+00 0. -1.
          2    1    1    2  501    0 -0.18525918028E+02  0.31152366121E+02  0.10491155777E+03  0.11099601122E+03  0.00000000000E+00 0. -1.
          1    1    1    2  502    0 -0.24926586089E+02 -0.23085801464E+02 -0.16057983863E+03  0.16413462004E+03  0.00000000000E+00 0. -1.
         22    1    1    2    0    0  0.47835105322E+02  0.28928114975E+01  0.69917398764E+02  0.84764428326E+02  0.00000000000E+00 0. -1.
         22    1    1    2    0    0 -0.43826012056E+01 -0.10959376155E+02 -0.50811451903E+02  0.52164343795E+02  0.00000000000E+00 0.  1.
</event>
<event>
 6    1  0.2144783E-005  0.3896646E+02  0.7818608E-02  0.1552362E+00
          2   -1    0    0  502    0  0.00000000000E+00  0.00000000000E+00  0.21484665592E+03  0.21484665592E+03  0.00000000000E+00 0. -1.
          1   -1    0    0  501    0 -0.00000000000E+00 -0.00000000000E+00 -0.70839432261E+02  0.70839432261E+02  0.00000000000E+00 0. -1.
          2    1    1    2  501    0  0.39981055112E+01 -0.70426893736E+02  0.13776526386E+02  0.71872977455E+02  0.00000000000E+00 0. -1.
          1    1    1    2  502    0 -0.12295351380E+02  0.35520555574E+02  0.24544803864E+02  0.44892459618E+02  0.00000000000E+00 0. -1.
         22    1    1    2    0    0 -0.12174257207E+02  0.13694106776E+02 -0.27204484204E+02  0.32799772251E+02  0.00000000000E+00 0. -1.
         22    1    1    2    0    0  0.20471503076E+02  0.21212231386E+02  0.13289037762E+03  0.13612087886E+03  0.00000000000E+00 0. -1.
</event>
<event>
 6    1  0.2144783E-005  0.8628607E+02  0.7818608E-02  0.1392431E+00
          2   -1    0    0  502    0  0.00000000000E+00  0.00000000000E+00  0.15775040456E+03  0.15775040456E+03  0.00000000000E+00 0.  1.
          1   -1    0    0  501    0 -0.00000000000E+00 -0.00000000000E+00 -0.26117754425E+03  0.26117754425E+03  0.00000000000E+00 0.  1.
          2    1    1    2  501    0 -0.83382643325E+02  0.42425582384E+02  0.99162270743E+02  0.13632956828E+03  0.00000000000E+00 0.  1.
          1    1    1    2  502    0  0.40052088995E+02 -0.32525150163E+02 -0.11548322024E+03  0.12648489784E+03  0.00000000000E+00 0.  1.
         22    1    1    2    0    0  0.18911854597E+02  0.11217230486E+02  0.28550094660E+02  0.36035987695E+02  0.00000000000E+00 0. -1.
         22    1    1    2    0    0  0.24418699732E+02 -0.21117662707E+02 -0.11565628486E+03  0.12007749499E+03  0.00000000000E+00 0.  1.
</event>
<event>
 6    1  0.2144783E-005  0.6024782E+02  0.7818608E-02  0.1455860E+00
          2   -1    0    0  502    0  0.00000000000E+00  0.00000000000E+00  0.20927707967E+03  0.20927707967E+03  0.00000000000E+00 0. -1.
          1   -1    0    0  501    0 -0.00000000000E+00 -0.00000000000E+00 -0.29783075874E+03  0.29783075874E+03  0.00000000000E+00 0.  1.
          2    1    1    2  501    0 -0.10725163291E+02 -0.69155171740E+02  0.44022558122E+02  0.82676795594E+02  0.00000000000E+00 0. -1.
          1    1    1    2  502    0 -0.12692969895E+02  0.45938534184E+02 -0.24908004375E+03  0.25359875513E+03  0.00000000000E+00 0.  1.
         22    1    1    2    0    0  0.31319453149E+01  0.95153910579E+01 -0.25153754171E+02  0.27075137993E+02  0.00000000000E+00 0. -1.
         22    1    1    2    0    0  0.20286187871E+02  0.13701246498E+02  0.14165756073E+03  0.14375714969E+03  0.00000000000E+00 0. -1.
</event>
<event>
 6    1  0.2144783E-005  0.6929665E+02  0.7818608E-02  0.1436163E+00
          2   -1    0    0  502    0  0.00000000000E+00  0.00000000000E+00  0.46162419090E+02  0.46162419090E+02  0.00000000000E+00 0.  1.
          1   -1    0    0  501    0 -0.00000000000E+00 -0.00000000000E+00 -0.90497612855E+03  0.90497612855E+03  0.00000000000E+00 0.  1.
          2    1    1    2  501    0 -0.90213331495E+02 -0.45899427122E+02 -0.11363253389E+03  0.15217606694E+03  0.00000000000E+00 0.  1.
          1    1    1    2  502    0  0.38108396920E+02  0.57117055383E+02 -0.59183308476E+03  0.59580282657E+03  0.00000000000E+00 0.  1.
         22    1    1    2    0    0  0.29077472876E+01 -0.15153260516E+02  0.18658790934E+02  0.24212120470E+02  0.00000000000E+00 0.  1.
         22    1    1    2    0    0  0.49197187287E+02  0.39356322545E+01 -0.17200688173E+03  0.17894753366E+03  0.00000000000E+00 0.  1.
</event>
<event>
 6    1  0.2144783E-005  0.1171154E+03  0.7818608E-02  0.1323760E+00
          2   -1    0    0  502    0  0.00000000000E+00  0.00000000000E+00  0.10659712691E+03  0.10659712691E+03  0.00000000000E+00 0. -1.
          1   -1    0    0  501    0 -0.00000000000E+00 -0.00000000000E+00 -0.26844562618E+03  0.26844562618E+03  0.00000000000E+00 0. -1.
          2    1    1    2  501    0 -0.27255482545E+01 -0.76761926900E+02 -0.18054244660E+03  0.19620243898E+03  0.00000000000E+00 0. -1.
          1    1    1    2  502    0 -0.16462291029E+02  0.26986877069E+02  0.31657687284E+02  0.44738213242E+02  0.00000000000E+00 0. -1.
         22    1    1    2    0    0  0.14007876976E+02  0.77292555654E+02 -0.45815488489E+02  0.90936344562E+02  0.00000000000E+00 0. -1.
         22    1    1    2    0    0  0.51799623081E+01 -0.27517505823E+02  0.32851748532E+02  0.43165756310E+02  0.00000000000E+00 0.  1.
</event>
<event>
 6    1  0.2144783E-005  0.3900900E+02  0.7818608E-02  0.1560638E+00
          2   -1    0    0  502    0  0.00000000000E+00  0.00000000000E+00  0.24990593453E+03  0.24990593453E+03  0.00000000000E+00 0.  1.
          1   -1    0    0  501    0 -0.00000000000E+00 -0.00000000000E+00 -0.11460701438E+03  0.11460701438E+03  0.00000000000E+00 0. -1.
          2    1    1    2  501    0 -0.26690600756E+02 -0.10522774448E+02  0.16342039194E+03  0.16591968374E+03  0.00000000000E+00 0.  1.
          1    1    1    2  502    0  0.20444965993E+02 -0.87279331868E+01 -0.63222104003E+02  0.67016474741E+02  0.00000000000E+00 0. -1.
         22    1    1    2    0    0  0.17043749786E+02  0.45278318291E+00 -0.45248715330E+02  0.48354324092E+02  0.00000000000E+00 0.  1.
         22    1    1    2    0    0 -0.10798115023E+02  0.18797924452E+02  0.80349347544E+02  0.83222466332E+02  0.00000000000E+00 0.  1.
</event>
<event>
 6    1  0.2144783E-005  0.1122095E+03  0.7818608E-02  0.1258945E+00
          2   -1    0    0  502    0  0.00000000000E+00  0.00000000000E+00  0.18468774890E+03  0.18468774890E+03  0.00000000000E+00 0.  1.
          1   -1    0    0  501    0 -0.00000000000E+00 -0.00000000000E+00 -0.11341148266E+03  0.11341148266E+03  0.00000000000E+00 0.  1.
          2    1    1    2  501    0  0.74091978546E+02 -0.44251101627E+01  0.74464241788E+02  0.10513860466E+03  0.00000000000E+00 0.  1.
          1    1    1    2  502    0 -0.57468558575E+02  0.54795554677E+01 -0.27515757870E+02  0.63951369680E+02  0.00000000000E+00 0.  1.
         22    1    1    2    0    0  0.25264836430E+02 -0.25949799921E+02  0.58982882064E+02  0.69214770478E+02  0.00000000000E+00 0.  1.
         22    1    1    2    0    0 -0.41888256400E+02  0.24895354616E+02 -0.34655099745E+02  0.59794486736E+02  0.00000000000E+00 0.  1.
</event>
<event>
 6    1  0.2144783E-005  0.1226929E+03  0.7818608E-02  0.1290917E+00
          2   -1    0    0  502    0  0.00000000000E+00  0.00000000000E+00  0.25282877238E+03  0.25282877238E+03  0.00000000000E+00 0. -1.
          1   -1    0    0  501    0 -0.00000000000E+00 -0.00000000000E+00 -0.11805829351E+03  0.11805829351E+03  0.00000000000E+00 0. -1.
          2    1    1    2  501    0  0.87560802520E+02 -0.45258665795E+02 -0.22807048869E+02  0.10117016579E+03  0.00000000000E+00 0. -1.
          1    1    1    2  502    0 -0.85547267484E+02  0.37911105132E+02  0.68098038907E+02  0.11572782625E+03  0.00000000000E+00 0. -1.
         22    1    1    2    0    0 -0.42415455658E+02  0.25551588282E+02 -0.48651259143E+01  0.49755642821E+02  0.00000000000E+00 0. -1.
         22    1    1    2    0    0  0.40401920622E+02 -0.18204027619E+02  0.94344614746E+02  0.10423343102E+03  0.00000000000E+00 0.  1.
</event>
<event>
 6    1  0.2144783E-005  0.1558441E+03  0.7818608E-02  0.1276044E+00
          2   -1    0    0  502    0  0.00000000000E+00  0.00000000000E+00  0.14054424294E+03  0.14054424294E+03  0.00000000000E+00 0. -1.
          1   -1    0    0  501    0 -0.00000000000E+00 -0.00000000000E+00 -0.16486717782E+03  0.16486717782E+03  0.00000000000E+00 0.  1.
          2    1    1    2  501    0  0.33562376193E+02  0.27286501398E+02  0.49058985451E+02  0.65404665795E+02  0.00000000000E+00 0. -1.
          1    1    1    2  502    0  0.57026142300E+02 -0.13994502781E+02 -0.63926389816E+02  0.86800981150E+02  0.00000000000E+00 0.  1.
         22    1    1    2    0    0 -0.86852632127E+02 -0.41700516194E+02 -0.46003919264E+02  0.10676456971E+03  0.00000000000E+00 0. -1.
         22    1    1    2    0    0 -0.37358863661E+01  0.28408517577E+02  0.36548388754E+02  0.46441204101E+02  0.00000000000E+00 0. -1.
</event>
<event>
 6    1  0.2144783E-005  0.6630726E+02  0.7818608E-02  0.1373247E+00
          2   -1    0    0  502    0  0.00000000000E+00  0.00000000000E+00  0.45937594997E+03  0.45937594997E+03  0.00000000000E+00 0. -1.
          1   -1    0    0  501    0 -0.00000000000E+00 -0.00000000000E+00 -0.69314116959E+02  0.69314116959E+02  0.00000000000E+00 0.  1.
          2    1    1    2  501    0 -0.84885077241E+02 -0.20148366072E+02  0.60241065586E+01  0.87451259874E+02  0.00000000000E+00 0. -1.
          1    1    1    2  502    0  0.39806252859E+02 -0.29090738917E+02  0.22866503576E+02  0.54347822801E+02  0.00000000000E+00 0.  1.
         22    1    1    2    0    0  0.34730257100E+02  0.56727521316E+02  0.36690788170E+03  0.37288818174E+03  0.00000000000E+00 0. -1.
         22    1    1    2    0    0  0.10348567282E+02 -0.74884163273E+01 -0.57366588169E+01  0.14002802515E+02  0.00000000000E+00 0.  1.
</event>
<event>
 6    1  0.2144783E-005  0.7319996E+02  0.7818608E-02  0.1416832E+00
          2   -1    0    0  502    0  0.00000000000E+00  0.00000000000E+00  0.20014506190E+03  0.20014506190E+03  0.00000000000E+00 0.  1.
          1   -1    0    0  501    0 -0.00000000000E+00 -0.00000000000E+00 -0.16139766921E+03  0.16139766921E+03  0.00000000000E+00 0.  1.
          2    1    1    2  501    0 -0.86733353607E+02  0.20723866335E+02  0.10716911807E+03  0.13941797995E+03  0.00000000000E+00 0.  1.
          1    1    1    2  502    0  0.46096018507E+02 -0.14287337424E+02 -0.72811254111E+02  0.87352445061E+02  0.00000000000E+00 0.  1.
         22    1    1    2    0    0  0.20781359734E+02 -0.13042416698E+02  0.65624225715E+02  0.70060748971E+02  0.00000000000E+00 0.  1.
         22    1    1    2    0    0  0.19855975366E+02  0.66058877869E+01 -0.61234696990E+02  0.64711557134E+02  0.00000000000E+00 0.  1.
</event>
<event>
 6    1  0.2144783E-005  0.6547322E+02  0.7818608E-02  0.1483332E+00
          2   -1    0    0  502    0  0.00000000000E+00  0.00000000000E+00  0.37994961465E+02  0.37994961465E+02  0.00000000000E+00 0. -1.
          1   -1    0    0  501    0 -0.00000000000E+00 -0.00000000000E+00 -0.36619324212E+03  0.36619324212E+03  0.00000000000E+00 0.  1.
          2    1    1    2  501    0  0.69676793308E+02  0.79841421829E+01 -0.11261767651E+03  0.13267005357E+03  0.00000000000E+00 0. -1.
          1    1    1    2  502    0 -0.27361366381E+02 -0.67423011923E+01 -0.71366390664E+02  0.76728513031E+02  0.00000000000E+00 0.  1.
         22    1    1    2    0    0 -0.29601845403E+02 -0.32104304513E+01 -0.16645438208E+03  0.16909653287E+03  0.00000000000E+00 0. -1.
         22    1    1    2    0    0 -0.12713581524E+02  0.19685894607E+01  0.22240168599E+02  0.25693104113E+02  0.00000000000E+00 0. -1.
</event>
<event>
 6    1  0.2144783E-005  0.1628688E+03  0.7818608E-02  0.1300003E+00
          2   -1    0    0  502    0  0.00000000000E+00  0.00000000000E+00  0.14014273126E+04  0.14014273126E+04  0.00000000000E+00 0. -1.
          1   -1    0    0  501    0 -0.00000000000E+00 -0.00000000000E+00 -0.13388791464E+03  0.13388791464E+03  0.00000000000E+00 0. -1.
          2    1    1    2  501    0  0.65153355535E+02 -0.10600935857E+03  0.11398140667E+04  0.11465858235E+04  0.00000000000E+00 0. -1.
          1    1    1    2  502    0 -0.75710466393E+02  0.12832433056E+03 -0.62759472045E+02  0.16167238437E+03  0.00000000000E+00 0. -1.
         22    1    1    2    0    0  0.16998808775E+01 -0.35644020663E+02  0.20339104787E+03  0.20649770982E+03  0.00000000000E+00 0.  1.
         22    1    1    2    0    0  0.88572299797E+01  0.13329048670E+02 -0.12906244607E+02  0.20559309600E+02  0.00000000000E+00 0. -1.
</event>
<event>
 6    1  0.2144783E-005  0.2271937E+02  0.7818608E-02  0.1703005E+00
          2   -1    0    0  502    0  0.00000000000E+00  0.00000000000E+00  0.12225339663E+03  0.12225339663E+03  0.00000000000E+00 0.  1.
          1   -1    0    0  501    0 -0.00000000000E+00 -0.00000000000E+00 -0.19177876633E+03  0.19177876633E+03  0.00000000000E+00 0.  1.
          2    1    1    2  501    0 -0.34618265372E+02 -0.12760052438E+02  0.28500510148E+02  0.46621050119E+02  0.00000000000E+00 0.  1.
          1    1    1    2  502    0  0.30173133348E+02  0.11782559535E+02 -0.13191644892E+03  0.13583518020E+03  0.00000000000E+00 0.  1.
         22    1    1    2    0    0 -0.39458449949E+01  0.12919774853E+02 -0.47244822544E+02  0.49138208476E+02  0.00000000000E+00 0.  1.
         22    1    1    2    0    0  0.83909770192E+01 -0.11942281951E+02  0.81135391612E+02  0.82437724165E+02  0.00000000000E+00 0.  1.
</event>
<event>
 6    1  0.2144783E-005  0.5017796E+02  0.7818608E-02  0.1521752E+00
          2   -1    0    0  502    0  0.00000000000E+00  0.00000000000E+00  0.14410283507E+03  0.14410283507E+03  0.00000000000E+00 0. -1.
          1   -1    0    0  501    0 -0.00000000000E+00 -0.00000000000E+00 -0.38084356631E+03  0.38084356631E+03  0.00000000000E+00 0.  1.
          2    1    1    2  501    0 -0.38388962362E+02  0.63454027814E+02  0.48194939931E+02  0.88447036762E+02  0.00000000000E+00 0. -1.
          1    1    1    2  502    0  0.54535181984E+02 -0.41266024504E+02 -0.30154154109E+03  0.30919940468E+03  0.00000000000E+00 0.  1.
         22    1    1    2    0    0  0.12024444287E+02  0.15060882400E+01  0.65211886744E+02  0.66328317745E+02  0.00000000000E+00 0. -1.
         22    1    1    2    0    0 -0.28170663909E+02 -0.23694091550E+02 -0.48606016832E+02  0.60971642193E+02  0.00000000000E+00 0. -1.
</event>
<event>
 6    1  0.2144783E-005  0.8438791E+02  0.7818608E-02  0.1362422E+00
          2   -1    0    0  502    0  0.00000000000E+00  0.00000000000E+00  0.41621580106E+03  0.41621580106E+03  0.00000000000E+00 0.  1.
          1   -1    0    0  501    0 -0.00000000000E+00 -0.00000000000E+00 -0.72067728535E+02  0.72067728535E+02  0.00000000000E+00 0.  1.
          2    1    1    2  501    0  0.42960180167E+02 -0.37062692339E+02  0.26894152395E+03  0.27486135332E+03  0.00000000000E+00 0.  1.
          1    1    1    2  502    0 -0.36178239898E+02  0.50349079920E+02 -0.10890321842E+02  0.62948343908E+02  0.00000000000E+00 0.  1.
         22    1    1    2    0    0  0.29711537514E+02 -0.12656488741E+01  0.10393995269E+03  0.10811055034E+03  0.00000000000E+00 0.  1.
         22    1    1    2    0    0 -0.36493477784E+02 -0.12020738707E+02 -0.17843082272E+02  0.42363282035E+02  0.00000000000E+00 0.  1.
</event>
<event>
 6    1  0.2144783E-005  0.5051690E+02  0.7818608E-02  0.1549859E+00
          2   -1    0    0  502    0  0.00000000000E+00  0.00000000000E+00  0.25544476200E+03  0.25544476200E+03  0.00000000000E+00 0.  1.
          1   -1    0    0  501    0 -0.00000000000E+00 -0.00000000000E+00 -0.21409934100E+03  0.21409934100E+03  0.00000000000E+00 0.  1.
          2    1    1    2  501    0  0.24437751911E+01 -0.22461473401E+02  0.14504486340E+03  0.14679408102E+03  0.00000000000E+00 0.  1.
          1    1    1    2  502    0 -0.75020252642E+02 -0.34903511451E+02 -0.14193554615E+03  0.16429239994E+03  0.00000000000E+00 0.  1.
         22    1    1    2    0    0  0.71941579391E+02  0.79698120246E+02  0.63494808825E+02  0.12473560824E+03  0.00000000000E+00 0.  1.
         22    1    1    2    0    0  0.63489805947E+00 -0.22333135394E+02 -0.25258705071E+02  0.33722013789E+02  0.00000000000E+00 0.  1.
</event>
<event>
 6    1  0.2144783E-005  0.6485170E+02  0.7818608E-02  0.1451649E+00
          2   -1    0    0  502    0  0.00000000000E+00  0.00000000000E+00  0.78486112063E+02  0.78486112063E+02  0.00000000000E+00 0.  1.
          1   -1    0    0  501    0 -0.00000000000E+00 -0.00000000000E+00 -0.35249520867E+03  0.35249520867E+03  0.00000000000E+00 0. -1.
          2    1    1    2  501    0  0.26206389615E+02 -0.46792456339E+02  0.11937615598E+02  0.54943748444E+02  0.00000000000E+00 0.  1.
          1    1    1    2  502    0 -0.33217616017E+02  0.20769941074E+02 -0.23135733482E+03  0.23465084028E+03  0.00000000000E+00 0. -1.
         22    1    1    2    0    0  0.20336185495E+02  0.47209945788E+01  0.39133667897E+02  0.44354167712E+02  0.00000000000E+00 0.  1.
         22    1    1    2    0    0 -0.13324959093E+02  0.21301520687E+02 -0.93723045278E+02  0.97032564300E+02  0.00000000000E+00 0.  1.
</event>
<event>
 6    1  0.2144783E-005  0.4529985E+02  0.7818608E-02  0.1522136E+00
          2   -1    0    0  502    0  0.00000000000E+00  0.00000000000E+00  0.33751713889E+03  0.33751713889E+03  0.00000000000E+00 0. -1.
          1   -1    0    0  501    0 -0.00000000000E+00 -0.00000000000E+00 -0.10405991396E+03  0.10405991396E+03  0.00000000000E+00 0.  1.
          2    1    1    2  501    0  0.67699406552E+02  0.57374105812E+02  0.24062562697E+03  0.25646771731E+03  0.00000000000E+00 0. -1.
          1    1    1    2  502    0 -0.45624985158E+02 -0.20464161817E+02  0.10795516218E+02  0.51156273906E+02  0.00000000000E+00 0.  1.
         22    1    1    2    0    0 -0.10750443053E+02 -0.27297128195E+02 -0.72087210575E+02  0.77828472695E+02  0.00000000000E+00 0.  1.
         22    1    1    2    0    0 -0.11323978341E+02 -0.96128157996E+01  0.54123292314E+02  0.56124588942E+02  0.00000000000E+00 0. -1.
</event>
<event>
 6    1  0.2144783E-005  0.1378888E+03  0.7818608E-02  0.1345669E+00
          2   -1    0    0  502    0  0.00000000000E+00  0.00000000000E+00  0.71559167590E+02  0.71559167590E+02  0.00000000000E+00 0.  1.
          1   -1    0    0  501    0 -0.00000000000E+00 -0.00000000000E+00 -0.74264453517E+03  0.74264453517E+03  0.00000000000E+00 0.  1.
          2    1    1    2  501    0 -0.10832906381E+03 -0.60499676879E+02 -0.16845503823E+02  0.12521648440E+03  0.00000000000E+00 0.  1.
          1    1    1    2  502    0  0.40965043787E+02  0.46356051675E+02 -0.28371710950E+03  0.29038322362E+03  0.00000000000E+00 0.  1.
         22    1    1    2    0    0  0.76188569353E+02  0.64596774073E+01 -0.37737560534E+03  0.38504385859E+03  0.00000000000E+00 0.  1.
         22    1    1    2    0    0 -0.88245493330E+01  0.76839477967E+01  0.68528510707E+01  0.13560136152E+02  0.00000000000E+00 0. -1.
</event>
<event>
 6    1  0.2144783E-005  0.4442322E+03  0.7818608E-02  0.1065953E+00
          2   -1    0    0  502    0  0.00000000000E+00  0.00000000000E+00  0.39853106807E+04  0.39853106807E+04  0.00000000000E+00 0.  1.
          1   -1    0    0  501    0 -0.00000000000E+00 -0.00000000000E+00 -0.12898867306E+03  0.12898867306E+03  0.00000000000E+00 0.  1.
          2    1    1    2  501    0  0.41175079777E+03  0.21074398580E+03  0.32460157899E+04  0.32788062241E+04  0.00000000000E+00 0.  1.
          1    1    1    2  502    0 -0.11080797117E+03 -0.68638408649E+01  0.36187070562E+03  0.37851806611E+03  0.00000000000E+00 0.  1.
         22    1    1    2    0    0 -0.35590350916E+02  0.97818935432E+01  0.51844691569E+02  0.63641421759E+02  0.00000000000E+00 0.  1.
         22    1    1    2    0    0 -0.26535247569E+03 -0.21366203848E+03  0.19659082056E+03  0.39333364180E+03  0.00000000000E+00 0. -1.
</event>
<event>
 6    1  0.2144783E-005  0.1095247E+03  0.7818608E-02  0.1376648E+00
          2   -1    0    0  502    0  0.00000000000E+00  0.00000000000E+00  0.28874226826E+03  0.28874226826E+03  0.00000000000E+00 0.  1.
          1   -1    0    0  501    0 -0.00000000000E+00 -0.00000000000E+00 -0.10164011962E+03  0.10164011962E+03  0.00000000000E+00 0.  1.
          2    1    1    2  501    0  0.68651051230E+02  0.42808460117E+02  0.20514443948E+03  0.22052159111E+03  0.00000000000E+00 0.  1.
          1    1    1    2  502    0 -0.17452767134E+02  0.12777024433E+02  0.60053606760E+01  0.22448068755E+02  0.00000000000E+00 0.  1.
         22    1    1    2    0    0 -0.41989111092E+02 -0.65976244488E+02 -0.66557434255E+02  0.10269295176E+03  0.00000000000E+00 0.  1.
         22    1    1    2    0    0 -0.92091730046E+01  0.10390759938E+02  0.42509782736E+02  0.44719776249E+02  0.00000000000E+00 0.  1.
</event>
<event>
 6    1  0.2144783E-005  0.2232553E+02  0.7818608E-02  0.1743672E+00
          2   -1    0    0  502    0  0.00000000000E+00  0.00000000000E+00  0.87788864474E+02  0.87788864474E+02  0.00000000000E+00 0.  1.
          1   -1    0    0  501    0 -0.00000000000E+00 -0.00000000000E+00 -0.19190627356E+03  0.19190627356E+03  0.00000000000E+00 0.  1.
          2    1    1    2  501    0 -0.34837774169E+02  0.12814387413E+01  0.18086409509E+02  0.39273792830E+02  0.00000000000E+00 0.  1.
          1    1    1    2  502    0  0.20304153313E+02 -0.27674428141E+01 -0.11713209584E+03  0.11891108130E+03  0.00000000000E+00 0.  1.
         22    1    1    2    0    0  0.12385926040E+01 -0.12517004960E+02 -0.61030802156E+02  0.62313468340E+02  0.00000000000E+00 0.  1.
         22    1    1    2    0    0  0.13295028252E+02  0.14003009032E+02  0.55959079395E+02  0.59196795563E+02  0.00000000000E+00 0.  1.
</event>
<event>
 6    1  0.2144783E-005  0.5180155E+02  0.7818608E-02  0.1493340E+00
          2   -1    0    0  502    0  0.00000000000E+00  0.00000000000E+00  0.24166846363E+02  0.24166846363E+02  0.00000000000E+00 0. -1.
          1   -1    0    0  501    0 -0.00000000000E+00 -0.00000000000E+00 -0.38238684935E+03  0.38238684935E+03  0.00000000000E+00 0.  1.
          2    1    1    2  501    0 -0.56703725965E+01  0.27318202854E+02 -0.34883243525E+02  0.44668534914E+02  0.00000000000E+00 0. -1.
          1    1    1    2  502    0  0.13939920407E+02 -0.16920670207E+02 -0.11869200195E+03  0.12069971743E+03  0.00000000000E+00 0.  1.
         22    1    1    2    0    0 -0.17217916173E+02 -0.31137304321E+02 -0.21385300924E+03  0.21679275338E+03  0.00000000000E+00 0.  1.
         22    1    1    2    0    0  0.89483683625E+01  0.20739771673E+02  0.92082517185E+01  0.24392689994E+02  0.00000000000E+00 0. -1.
</event>
<event>
 6    1  0.2144783E-005  0.8759619E+02  0.7818608E-02  0.1326024E+00
          2   -1    0    0  502    0  0.00000000000E+00  0.00000000000E+00  0.14539197929E+03  0.14539197929E+03  0.00000000000E+00 0. -1.
          1   -1    0    0  501    0 -0.00000000000E+00 -0.00000000000E+00 -0.22606979750E+03  0.22606979750E+03  0.00000000000E+00 0. -1.
          2    1    1    2  501    0 -0.22543575515E+02  0.47698119311E+02 -0.16975794157E+03  0.17776693199E+03  0.00000000000E+00 0. -1.
          1    1    1    2  502    0  0.21282098108E+02 -0.89727325657E+01  0.50512348146E+02  0.55542190674E+02  0.00000000000E+00 0. -1.
         22    1    1    2    0    0  0.56333255605E+02 -0.55590621787E+01 -0.10125879298E+02  0.57505410971E+02  0.00000000000E+00 0. -1.
         22    1    1    2    0    0 -0.55071778198E+02 -0.33166324566E+02  0.48693654514E+02  0.80647243158E+02  0.00000000000E+00 0. -1.
</event>
<event>
 6    1  0.2144783E-005  0.9654875E+02  0.7818608E-02  0.1351438E+00
          2   -1    0    0  502    0  0.00000000000E+00  0.00000000000E+00  0.85952001656E+03  0.85952001656E+03  0.00000000000E+00 0. -1.
          1   -1    0    0  501    0 -0.00000000000E+00 -0.00000000000E+00 -0.59091801919E+02  0.59091801919E+02  0.00000000000E+00 0. -1.
          2    1    1    2  501    0  0.58134846013E+02 -0.46867708964E+02  0.63057539847E+03  0.63498155534E+03  0.00000000000E+00 0. -1.
          1    1    1    2  502    0 -0.65062854676E+02  0.10011864462E+01 -0.40908297041E+01  0.65199020856E+02  0.00000000000E+00 0. -1.
         22    1    1    2    0    0 -0.17380085433E+02  0.26815972748E+02 -0.87609031618E+01  0.33134833459E+02  0.00000000000E+00 0. -1.
         22    1    1    2    0    0  0.24308094097E+02  0.19050549770E+02  0.18270454903E+03  0.18529640882E+03  0.00000000000E+00 0.  1.
</event>
<event>
 6    1  0.2144783E-005  0.2182312E+03  0.7818608E-02  0.1225825E+00
          2   -1    0    0  502    0  0.00000000000E+00  0.00000000000E+00  0.73319889002E+02  0.73319889002E+02  0.00000000000E+00 0.  1.
          1   -1    0    0  501    0 -0.00000000000E+00 -0.00000000000E+00 -0.12243407567E+04  0.12243407567E+04  0.00000000000E+00 0.  1.
          2    1    1    2  501    0  0.41034255635E+02 -0.19235926429E+03 -0.17600791572E+03  0.26394068101E+03  0.00000000000E+00 0.  1.
          1    1    1    2  502    0 -0.68291685740E+02  0.16989198882E+03 -0.76606381468E+03  0.78764256511E+03  0.00000000000E+00 0.  1.
         22    1    1    2    0    0  0.38281718586E+01  0.38565240017E+02 -0.21376156953E+03  0.21724626865E+03  0.00000000000E+00 0.  1.
         22    1    1    2    0    0  0.23429258246E+02 -0.16097964541E+02  0.48124322658E+01  0.28831130895E+02  0.00000000000E+00 0.  1.
</event>
<event>
 6    1  0.2144783E-005  0.1516119E+03  0.7818608E-02  0.1215150E+00
          2   -1    0    0  502    0  0.00000000000E+00  0.00000000000E+00  0.10837543911E+04  0.10837543911E+04  0.00000000000E+00 0. -1.
          1   -1    0    0  501    0 -0.00000000000E+00 -0.00000000000E+00 -0.40496157239E+02  0.40496157239E+02  0.00000000000E+00 0. -1.
          2    1    1    2  501    0 -0.11020644482E+03 -0.12909887606E+03  0.30522131483E+03  0.34924494457E+03  0.00000000000E+00 0. -1.
          1    1    1    2  502    0  0.28671252915E+02  0.66539817623E+02  0.28949145971E+03  0.29842066503E+03  0.00000000000E+00 0. -1.
         22    1    1    2    0    0  0.10186858772E+03  0.29512059690E+02  0.40314731766E+03  0.41686440310E+03  0.00000000000E+00 0. -1.
         22    1    1    2    0    0 -0.20333395818E+02  0.33046998752E+02  0.45398141688E+02  0.59720535671E+02  0.00000000000E+00 0. -1.
</event>
<event>
 6    1  0.2144783E-005  0.2217680E+03  0.7818608E-02  0.1263623E+00
          2   -1    0    0  502    0  0.00000000000E+00  0.00000000000E+00  0.65129950048E+02  0.65129950048E+02  0.00000000000E+00 0. -1.
          1   -1    0    0  501    0 -0.00000000000E+00 -0.00000000000E+00 -0.10590235331E+04  0.10590235331E+04  0.00000000000E+00 0. -1.
          2    1    1    2  501    0  0.45100505940E+02  0.19312974997E+03 -0.23594373844E+03  0.30822492383E+03  0.00000000000E+00 0. -1.
          1    1    1    2  502    0 -0.10600087761E+02 -0.15860312575E+03 -0.47572198383E+03  0.50157623474E+03  0.00000000000E+00 0. -1.
         22    1    1    2    0    0  0.91601449616E+01  0.87162299263E+01  0.97569299532E+01  0.15971180356E+02  0.00000000000E+00 0.  1.
         22    1    1    2    0    0 -0.43660563140E+02 -0.43242854140E+02 -0.29198479073E+03  0.29838114422E+03  0.00000000000E+00 0. -1.
</event>
<event>
 6    1  0.2144783E-005  0.2364659E+03  0.7818608E-02  0.1190945E+00
          2   -1    0    0  502    0  0.00000000000E+00  0.00000000000E+00  0.27382788555E+03  0.27382788555E+03  0.00000000000E+00 0. -1.
          1   -1    0    0  501    0 -0.00000000000E+00 -0.00000000000E+00 -0.35436961727E+03  0.35436961727E+03  0.00000000000E+00 0. -1.
          2    1    1    2  501    0  0.92279800212E+02  0.21132109262E+03 -0.20425059428E+03  0.30804296937E+03  0.00000000000E+00 0. -1.
          1    1    1    2  502    0  0.71396914734E+01 -0.99277568059E+02  0.45208865019E+02  0.10931995330E+03  0.00000000000E+00 0. -1.
         22    1    1    2    0    0 -0.44033136503E+02 -0.16894027187E+02  0.88503217591E+02  0.10028531692E+03  0.00000000000E+00 0. -1.
         22    1    1    2    0    0 -0.55386355183E+02 -0.95149497372E+02 -0.10003220046E+02  0.11054926324E+03  0.00000000000E+00 0.  1.
</event>
<event>
 6    1  0.2144783E-005  0.6553167E+02  0.7818608E-02  0.1440290E+00
          2   -1    0    0  502    0  0.00000000000E+00  0.00000000000E+00  0.19413123646E+02  0.19413123646E+02  0.00000000000E+00 0. -1.
          1   -1    0    0  501    0 -0.00000000000E+00 -0.00000000000E+00 -0.53200514721E+03  0.53200514721E+03  0.00000000000E+00 0. -1.
          2    1    1    2  501    0 -0.18996485095E+02  0.33427827118E+02 -0.10113587606E+03  0.10819774258E+03  0.00000000000E+00 0. -1.
          1    1    1    2  502    0  0.23261670855E+02 -0.49293963302E+01 -0.17207400559E+03  0.17370914680E+03  0.00000000000E+00 0. -1.
         22    1    1    2    0    0  0.75985139580E+01 -0.49295790654E+02 -0.24042616061E+03  0.24554541555E+03  0.00000000000E+00 0.  1.
         22    1    1    2    0    0 -0.11863699719E+02  0.20797359866E+02  0.10440186990E+01  0.23965965940E+02  0.00000000000E+00 0. -1.
</event>
<event>
 6    1  0.2144783E-005  0.4672994E+02  0.7818608E-02  0.1479459E+00
          2   -1    0    0  502    0  0.00000000000E+00  0.00000000000E+00  0.20428813099E+03  0.20428813099E+03  0.00000000000E+00 0.  1.
          1   -1    0    0  501    0 -0.00000000000E+00 -0.00000000000E+00 -0.32118207680E+03  0.32118207680E+03  0.00000000000E+00 0.  1.
          2    1    1    2  501    0  0.12585376690E+03 -0.98105424232E+01  0.10800364216E+03  0.16613309154E+03  0.00000000000E+00 0.  1.
          1    1    1    2  502    0 -0.11684065486E+03  0.17551344846E+02 -0.19451760340E+03  0.22758929317E+03  0.00000000000E+00 0.  1.
         22    1    1    2    0    0 -0.16320876114E+02  0.33505500452E+01 -0.79313020990E+02  0.81044139093E+02  0.00000000000E+00 0.  1.
         22    1    1    2    0    0  0.73077640706E+01 -0.11091352468E+02  0.48933036427E+02  0.50703683982E+02  0.00000000000E+00 0.  1.
</event>
<event>
 6    1  0.2144783E-005  0.7811880E+02  0.7818608E-02  0.1457765E+00
          2   -1    0    0  502    0  0.00000000000E+00  0.00000000000E+00  0.72407627383E+02  0.72407627383E+02  0.00000000000E+00 0. -1.
          1   -1    0    0  501    0 -0.00000000000E+00 -0.00000000000E+00 -0.50737342065E+03  0.50737342065E+03  0.00000000000E+00 0.  1.
          2    1    1    2  501    0  0.44913956145E+02  0.27449243410E+02  0.31175635549E+02  0.61177158093E+02  0.00000000000E+00 0. -1.
          1    1    1    2  502    0 -0.32573231803E+02 -0.15405042837E+01 -0.32312035197E+03  0.32476168253E+03  0.00000000000E+00 0.  1.
         22    1    1    2    0    0  0.66013250994E+01  0.87008528417E+01  0.21790308270E+02  0.24374163940E+02  0.00000000000E+00 0.  1.
         22    1    1    2    0    0 -0.18942049442E+02 -0.34609591968E+02 -0.16481138511E+03  0.16946804346E+03  0.00000000000E+00 0.  1.
</event>
<event>
 6    1  0.2144783E-005  0.1763906E+02  0.7818608E-02  0.1827699E+00
          2   -1    0    0  502    0  0.00000000000E+00  0.00000000000E+00  0.11223033646E+03  0.11223033646E+03  0.00000000000E+00 0. -1.
          1   -1    0    0  501    0 -0.00000000000E+00 -0.00000000000E+00 -0.51855446563E+03  0.51855446563E+03  0.00000000000E+00 0.  1.
          2    1    1    2  501    0 -0.43001323685E+01  0.20992846534E+02  0.64072233320E+01  0.22366118456E+02  0.00000000000E+00 0. -1.
          1    1    1    2  502    0  0.23712189117E+02 -0.81721459625E+01 -0.46800945475E+03  0.46868102332E+03  0.00000000000E+00 0.  1.
         22    1    1    2    0    0 -0.12771905758E+02  0.34619169842E+01 -0.40371614149E+02  0.42484981757E+02  0.00000000000E+00 0. -1.
         22    1    1    2    0    0 -0.66401509896E+01 -0.16282617556E+02  0.95649716399E+02  0.97252678559E+02  0.00000000000E+00 0. -1.
</event>
<event>
 6    1  0.2144783E-005  0.7440354E+02  0.7818608E-02  0.1421657E+00
          2   -1    0    0  502    0  0.00000000000E+00  0.00000000000E+00  0.67359240673E+02  0.67359240673E+02  0.00000000000E+00 0.  1.
          1   -1    0    0  501    0 -0.00000000000E+00 -0.00000000000E+00 -0.15947671961E+03  0.15947671961E+03  0.00000000000E+00 0.  1.
          2    1    1    2  501    0  0.30920732611E+01 -0.45023701411E+02 -0.96567788538E+01  0.46151359499E+02  0.00000000000E+00 0.  1.
          1    1    1    2  502    0 -0.28285076832E+02  0.10552113292E+02 -0.18328079573E+02  0.35317292750E+02  0.00000000000E+00 0.  1.
         22    1    1    2    0    0  0.21690733115E+02  0.30462769345E-01  0.34546676354E+02  0.40791686385E+02  0.00000000000E+00 0.  1.
         22    1    1    2    0    0  0.35022704563E+01  0.34441125349E+02 -0.98679296861E+02  0.10457562165E+03  0.00000000000E+00 0.  1.
</event>
<event>
 6    1  0.2144783E-005  0.6000073E+02  0.7818608E-02  0.1480440E+00
          2   -1    0    0  502    0  0.00000000000E+00  0.00000000000E+00  0.30508406876E+02  0.30508406876E+02  0.00000000000E+00 0.  1.
          1   -1    0    0  501    0 -0.00000000000E+00 -0.00000000000E+00 -0.11786847819E+04  0.11786847819E+04  0.00000000000E+00 0.  1.
          2    1    1    2  501    0 -0.83129011818E+01 -0.18449560202E+02 -0.23785524294E+01  0.20375183665E+02  0.00000000000E+00 0.  1.
          1    1    1    2  502    0 -0.51213824800E+02 -0.27582267444E+02 -0.92029050409E+03  0.92212702446E+03  0.00000000000E+00 0.  1.
         22    1    1    2    0    0  0.10618452559E+02 -0.13798524172E+02  0.91271992759E+01  0.19658498689E+02  0.00000000000E+00 0.  1.
         22    1    1    2    0    0  0.48908273423E+02  0.59830351818E+02 -0.23463451776E+03  0.24703248194E+03  0.00000000000E+00 0.  1.
</event>
<event>
 6    1  0.2144783E-005  0.5108120E+02  0.7818608E-02  0.1441472E+00
          2   -1    0    0  502    0  0.00000000000E+00  0.00000000000E+00  0.67548193239E+02  0.67548193239E+02  0.00000000000E+00 0. -1.
          1   -1    0    0  501    0 -0.00000000000E+00 -0.00000000000E+00 -0.52235395805E+03  0.52235395805E+03  0.00000000000E+00 0. -1.
          2    1    1    2  501    0 -0.79735925999E+02 -0.46188048344E+02 -0.33501364516E+02  0.98048432569E+02  0.00000000000E+00 0. -1.
          1    1    1    2  502    0  0.76160820852E+02  0.43930537236E+02 -0.32742561356E+03  0.33902491818E+03  0.00000000000E+00 0. -1.
         22    1    1    2    0    0 -0.44952886513E+01  0.30612376571E+02  0.18902628272E+02  0.36257889831E+02  0.00000000000E+00 0. -1.
         22    1    1    2    0    0  0.80703937984E+01 -0.28354865463E+02 -0.11278141500E+03  0.11657091070E+03  0.00000000000E+00 0.  1.
</event>
<event>
 6    1  0.2144783E-005  0.1492822E+03  0.7818608E-02  0.1293687E+00
          2   -1    0    0  502    0  0.00000000000E+00  0.00000000000E+00  0.73820221907E+02  0.73820221907E+02  0.00000000000E+00 0. -1.
          1   -1    0    0  501    0 -0.00000000000E+00 -0.00000000000E+00 -0.44773483463E+03  0.44773483463E+03  0.00000000000E+00 0. -1.
          2    1    1    2  501    0 -0.12351098188E+03  0.46366723887E+02 -0.10270969550E+03  0.16719484824E+03  0.00000000000E+00 0. -1.
          1    1    1    2  502    0  0.81149806547E+02 -0.17325353073E+02 -0.15256789677E+03  0.17367332002E+03  0.00000000000E+00 0. -1.
         22    1    1    2    0    0 -0.15970059948E+02  0.17051972391E+02  0.14999021062E+02  0.27762982728E+02  0.00000000000E+00 0. -1.
         22    1    1    2    0    0  0.58331235277E+02 -0.46093343206E+02 -0.13363604151E+03  0.15292390555E+03  0.00000000000E+00 0. -1.
</event>
<event>
 6    1  0.2144783E-005  0.1365430E+03  0.7818608E-02  0.1355119E+00
          2   -1    0    0  502    0  0.00000000000E+00  0.00000000000E+00  0.20254684253E+03  0.20254684253E+03  0.00000000000E+00 0. -1.
          1   -1    0    0  501    0 -0.00000000000E+00 -0.00000000000E+00 -0.16518179595E+03  0.16518179595E+03  0.00000000000E+00 0.  1.
          2    1    1    2  501    0 -0.50186567897E+02 -0.11222194333E+03  0.10930017616E+03  0.16449615397E+03  0.00000000000E+00 0. -1.
          1    1    1    2  502    0  0.11551659383E+02  0.38869986723E+02 -0.74413726376E+00  0.40557002387E+02  0.00000000000E+00 0.  1.
         22    1    1    2    0    0  0.45824654416E+02  0.66036778266E+02 -0.10219575262E+03  0.13001817908E+03  0.00000000000E+00 0.  1.
         22    1    1    2    0    0 -0.71897459015E+01  0.73151783437E+01  0.31004760314E+02  0.32657303050E+02  0.00000000000E+00 0. -1.
</event>
<event>
 6    1  0.2144783E-005  0.2071846E+02  0.7818608E-02  0.1753587E+00
          2   -1    0    0  502    0  0.00000000000E+00  0.00000000000E+00  0.90309844171E+02  0.90309844171E+02  0.00000000000E+00 0.  1.
          1   -1    0    0  501    0 -0.00000000000E+00 -0.00000000000E+00 -0.14964478822E+03  0.14964478822E+03  0.00000000000E+00 0. -1.
          2    1    1    2  501    0 -0.31192767190E+02  0.22872386176E+02  0.18202919926E+02  0.42749047570E+02  0.00000000000E+00 0.  1.
          1    1    1    2  502    0  0.21245359041E+02 -0.10227057902E+02 -0.66640179741E+02  0.70688553176E+02  0.00000000000E+00 0. -1.
         22    1    1    2    0    0 -0.62433363940E+01 -0.11320700602E+02 -0.66935257772E+02  0.68172327557E+02  0.00000000000E+00 0. -1.
         22    1    1    2    0    0  0.16190744543E+02 -0.13246276724E+01  0.56037573538E+02  0.58344704090E+02  0.00000000000E+00 0.  1.
</event>
<event>
 6    1  0.2144783E-005  0.6420869E+02  0.7818608E-02  0.1475962E+00
          2   -1    0    0  502    0  0.00000000000E+00  0.00000000000E+00  0.15067656405E+03  0.15067656405E+03  0.00000000000E+00 0. -1.
          1   -1    0    0  501    0 -0.00000000000E+00 -0.00000000000E+00 -0.16695788743E+03  0.16695788743E+03  0.00000000000E+00 0. -1.
          2    1    1    2  501    0 -0.13940339030E+02 -0.41363284742E+02  0.75256918331E+02  0.86999184672E+02  0.00000000000E+00 0. -1.
          1    1    1    2  502    0  0.69220930500E+01  0.50710775147E+02 -0.89366027396E+02  0.10298439173E+03  0.00000000000E+00 0. -1.
         22    1    1    2    0    0 -0.47203998505E+01 -0.18905360334E+02  0.60300308686E+02  0.63370514056E+02  0.00000000000E+00 0. -1.
         22    1    1    2    0    0  0.11738645831E+02  0.95578699295E+01 -0.62472522992E+02  0.64280361018E+02  0.00000000000E+00 0.  1.
</event>
<event>
 6    1  0.2144783E-005  0.1752872E+03  0.7818608E-02  0.1174154E+00
          2   -1    0    0  502    0  0.00000000000E+00  0.00000000000E+00  0.30553040905E+03  0.30553040905E+03  0.00000000000E+00 0.  1.
          1   -1    0    0  501    0 -0.00000000000E+00 -0.00000000000E+00 -0.39541050466E+03  0.39541050466E+03  0.00000000000E+00 0.  1.
          2    1    1    2  501    0  0.77065578047E+02 -0.12330543508E+03  0.23357032226E+03  0.27513347502E+03  0.00000000000E+00 0.  1.
          1    1    1    2  502    0 -0.96099474476E+02  0.91075706613E+02 -0.23924438647E+03  0.27343695761E+03  0.00000000000E+00 0.  1.
         22    1    1    2    0    0 -0.18469360020E+01  0.40712320917E+02 -0.11047830780E+03  0.11775551257E+03  0.00000000000E+00 0.  1.
         22    1    1    2    0    0  0.20880832430E+02 -0.84825924502E+01  0.26272276401E+02  0.34614968510E+02  0.00000000000E+00 0.  1.
</event>
<event>
 6    1  0.2144783E-005  0.3972480E+02  0.7818608E-02  0.1569978E+00
          2   -1    0    0  502    0  0.00000000000E+00  0.00000000000E+00  0.72759996495E+02  0.72759996495E+02  0.00000000000E+00 0. -1.
          1   -1    0    0  501    0 -0.00000000000E+00 -0.00000000000E+00 -0.17093834946E+03  0.17093834946E+03  0.00000000000E+00 0.  1.
          2    1    1    2  501    0 -0.22349129105E+02 -0.33860700109E+02 -0.15966066512E+02  0.43599837883E+02  0.00000000000E+00 0. -1.
          1    1    1    2  502    0  0.52202549383E+01  0.25393635592E+02 -0.70136132483E+02  0.74774092237E+02  0.00000000000E+00 0.  1.
         22    1    1    2    0    0  0.17957154700E+02 -0.32596101544E+01  0.54626048516E+02  0.57594180607E+02  0.00000000000E+00 0. -1.
         22    1    1    2    0    0 -0.82828053376E+00  0.11726674672E+02 -0.66702202484E+02  0.67730235226E+02  0.00000000000E+00 0.  1.
</event>
<event>
 6    1  0.2144783E-005  0.1036850E+03  0.7818608E-02  0.1324359E+00
          2   -1    0    0  502    0  0.00000000000E+00  0.00000000000E+00  0.10107523799E+03  0.10107523799E+03  0.00000000000E+00 0. -1.
          1   -1    0    0  501    0 -0.00000000000E+00 -0.00000000000E+00 -0.19665348015E+03  0.19665348015E+03  0.00000000000E+00 0.  1.
          2    1    1    2  501    0 -0.59157958999E+02  0.38571103205E+02  0.32757170236E+02  0.77848739985E+02  0.00000000000E+00 0. -1.
          1    1    1    2  502    0 -0.11661335179E+02 -0.28864051820E+02 -0.32914925047E+02  0.45304663297E+02  0.00000000000E+00 0.  1.
         22    1    1    2    0    0  0.10272427926E+02  0.38580965004E+02  0.12415880891E+02  0.41811095829E+02  0.00000000000E+00 0.  1.
         22    1    1    2    0    0  0.60546866252E+02 -0.48288016389E+02 -0.10783636824E+03  0.13276421903E+03  0.00000000000E+00 0.  1.
</event>
<event>
 6    1  0.2144783E-005  0.8999542E+02  0.7818608E-02  0.1375543E+00
          2   -1    0    0  502    0  0.00000000000E+00  0.00000000000E+00  0.12949318982E+03  0.12949318982E+03  0.00000000000E+00 0.  1.
          1   -1    0    0  501    0 -0.00000000000E+00 -0.00000000000E+00 -0.52605622551E+03  0.52605622551E+03  0.00000000000E+00 0.  1.
          2    1    1    2  501    0  0.27285703820E+02 -0.98795939835E+02 -0.62224665228E+02  0.11990436324E+03  0.00000000000E+00 0.  1.
          1    1    1    2  502    0 -0.35302515102E+02  0.62282144732E+02 -0.38631257635E+03  0.39289023884E+03  0.00000000000E+00 0.  1.
         22    1    1    2    0    0 -0.37034731831E+01  0.13884299377E+02 -0.42520996879E+02  0.44883456399E+02  0.00000000000E+00 0. -1.
         22    1    1    2    0    0  0.11720284466E+02  0.22629495725E+02  0.94495202776E+02  0.97871356854E+02  0.00000000000E+00 0.  1.
</event>
<event>
 6    1  0.2144783E-005  0.4589578E+02  0.7818608E-02  0.1545552E+00
          2   -1    0    0  502    0  0.00000000000E+00  0.00000000000E+00  0.14982692916E+03  0.14982692916E+03  0.00000000000E+00 0. -1.
          1   -1    0    0  501    0 -0.00000000000E+00 -0.00000000000E+00 -0.20634031570E+03  0.20634031570E+03  0.00000000000E+00 0.  1.
          2    1    1    2  501    0 -0.59711856016E+01  0.39776660467E+02  0.71241009360E+02  0.81811485686E+02  0.00000000000E+00 0. -1.
          1    1    1    2  502    0 -0.54255485658E+01 -0.25771497190E+02 -0.14378021357E+03  0.14617235190E+03  0.00000000000E+00 0.  1.
         22    1    1    2    0    0 -0.43861289405E+01 -0.17404096729E+02 -0.53696264908E+02  0.56616513272E+02  0.00000000000E+00 0. -1.
         22    1    1    2    0    0  0.15782863108E+02  0.33989334518E+01  0.69722082581E+02  0.71566893994E+02  0.00000000000E+00 0. -1.
</event>
<event>
 6    1  0.2144783E-005  0.1973350E+03  0.7818608E-02  0.1208159E+00
          2   -1    0    0  502    0  0.00000000000E+00  0.00000000000E+00  0.11289871931E+03  0.11289871931E+03  0.00000000000E+00 0. -1.
          1   -1    0    0  501    0 -0.00000000000E+00 -0.00000000000E+00 -0.35837255964E+03  0.35837255964E+03  0.00000000000E+00 0.  1.
          2    1    1    2  501    0 -0.91690858527E+02  0.11001290865E+03 -0.61487255415E+02  0.15585485615E+03  0.00000000000E+00 0. -1.
          1    1    1    2  502    0  0.43154576688E+02 -0.82155446591E+02 -0.94952905116E+01  0.93284486575E+02  0.00000000000E+00 0.  1.
         22    1    1    2    0    0  0.79002450061E+02  0.18914290417E+02 -0.11171432631E+03  0.13812757943E+03  0.00000000000E+00 0.  1.
         22    1    1    2    0    0 -0.30466168222E+02 -0.46771752474E+02 -0.62776968098E+02  0.84004356787E+02  0.00000000000E+00 0. -1.
</event>
<event>
 6    1  0.2144783E-005  0.4097219E+02  0.7818608E-02  0.1553898E+00
          2   -1    0    0  502    0  0.00000000000E+00  0.00000000000E+00  0.15433264200E+03  0.15433264200E+03  0.00000000000E+00 0.  1.
          1   -1    0    0  501    0 -0.00000000000E+00 -0.00000000000E+00 -0.18098378373E+03  0.18098378373E+03  0.00000000000E+00 0.  1.
          2    1    1    2  501    0  0.50575848152E+02 -0.42776164627E+02 -0.66729757968E+02  0.94024344055E+02  0.00000000000E+00 0.  1.
          1    1    1    2  502    0 -0.63411786693E+02  0.43464055693E+02 -0.48665402985E+02  0.90986264219E+02  0.00000000000E+00 0.  1.
         22    1    1    2    0    0 -0.11784249463E+02  0.38712217628E+01 -0.28149257037E+02  0.30760942201E+02  0.00000000000E+00 0.  1.
         22    1    1    2    0    0  0.24620188005E+02 -0.45591128286E+01  0.11689327626E+03  0.11954487526E+03  0.00000000000E+00 0.  1.
</event>
<event>
 6    1  0.2144783E-005  0.1026733E+03  0.7818608E-02  0.1382823E+00
          2   -1    0    0  502    0  0.00000000000E+00  0.00000000000E+00  0.10364386651E+04  0.10364386651E+04  0.00000000000E+00 0.  1.
          1   -1    0    0  501    0 -0.00000000000E+00 -0.00000000000E+00 -0.45433470253E+02  0.45433470253E+02  0.00000000000E+00 0. -1.
          2    1    1    2  501    0  0.41640458732E+02 -0.11497429362E+03  0.46510378321E+03  0.48091012170E+03  0.00000000000E+00 0.  1.
          1    1    1    2  502    0 -0.26427345915E+02  0.34699162835E+02 -0.93917031006E+01  0.44616595575E+02  0.00000000000E+00 0. -1.
         22    1    1    2    0    0 -0.75392083706E+01 -0.13242538018E+02  0.26087341367E+01  0.15459947277E+02  0.00000000000E+00 0. -1.
         22    1    1    2    0    0 -0.76739044466E+01  0.93517668801E+02  0.53268438056E+03  0.54088547076E+03  0.00000000000E+00 0. -1.
</event>
<event>
 6    1  0.2144783E-005  0.3735128E+02  0.7818608E-02  0.1601262E+00
          2   -1    0    0  502    0  0.00000000000E+00  0.00000000000E+00  0.80366934537E+02  0.80366934537E+02  0.00000000000E+00 0. -1.
          1   -1    0    0  501    0 -0.00000000000E+00 -0.00000000000E+00 -0.14914259418E+03  0.14914259418E+03  0.00000000000E+00 0.  1.
          2    1    1    2  501    0  0.19710014800E+02  0.16434827048E+02  0.16493757651E+02  0.30506265995E+02  0.00000000000E+00 0. -1.
          1    1    1    2  502    0 -0.16728340880E+02 -0.12038710777E+02 -0.73378986700E+02  0.76218394334E+02  0.00000000000E+00 0.  1.
         22    1    1    2    0    0  0.14843314262E+02 -0.18775449193E+01  0.53193293867E+02  0.55257358475E+02  0.00000000000E+00 0. -1.
         22    1    1    2    0    0 -0.17824988182E+02 -0.25185713512E+01 -0.65083724462E+02  0.67527509914E+02  0.00000000000E+00 0.  1.
</event>
<event>
 6    1  0.2144783E-005  0.3703878E+02  0.7818608E-02  0.1549287E+00
          2   -1    0    0  502    0  0.00000000000E+00  0.00000000000E+00  0.70569947318E+02  0.70569947318E+02  0.00000000000E+00 0.  1.
          1   -1    0    0  501    0 -0.00000000000E+00 -0.00000000000E+00 -0.23188774138E+03  0.23188774138E+03  0.00000000000E+00 0.  1.
          2    1    1    2  501    0  0.21248236643E+02 -0.62887382382E+02 -0.54574593505E+02  0.85934257892E+02  0.00000000000E+00 0.  1.
          1    1    1    2  502    0  0.12342348109E+02  0.38683055579E+02  0.95680870963E+01  0.41716431253E+02  0.00000000000E+00 0.  1.
         22    1    1    2    0    0 -0.43309610445E+01  0.23115563252E+02 -0.13696898217E+03  0.13897333760E+03  0.00000000000E+00 0.  1.
         22    1    1    2    0    0 -0.29259623708E+02  0.10887635502E+01  0.20657694520E+02  0.35833661946E+02  0.00000000000E+00 0.  1.
</event>
<event>
 6    1  0.2144783E-005  0.6085085E+02  0.7818608E-02  0.1450113E+00
          2   -1    0    0  502    0  0.00000000000E+00  0.00000000000E+00  0.64666042274E+02  0.64666042274E+02  0.00000000000E+00 0.  1.
          1   -1    0    0  501    0 -0.00000000000E+00 -0.00000000000E+00 -0.22667121837E+03  0.22667121837E+03  0.00000000000E+00 0.  1.
          2    1    1    2  501    0  0.37645374348E+02  0.34407951246E+02 -0.77334014584E+02  0.92637093707E+02  0.00000000000E+00 0.  1.
          1    1    1    2  502    0 -0.10232348987E+02 -0.35280440967E+02 -0.56802094710E+02  0.67645313541E+02  0.00000000000E+00 0.  1.
         22    1    1    2    0    0 -0.21691848072E+02 -0.24335756467E+02 -0.72492340704E+02  0.79485248797E+02  0.00000000000E+00 0. -1.
         22    1    1    2    0    0 -0.57211772887E+01  0.25208246188E+02  0.44623273899E+02  0.51569604603E+02  0.00000000000E+00 0.  1.
</event>
<event>
 6    1  0.2144783E-005  0.7065975E+02  0.7818608E-02  0.1398874E+00
          2   -1    0    0  502    0  0.00000000000E+00  0.00000000000E+00  0.10330434016E+03  0.10330434016E+03  0.00000000000E+00 0. -1.
          1   -1    0    0  501    0 -0.00000000000E+00 -0.00000000000E+00 -0.18421387788E+03  0.18421387788E+03  0.00000000000E+00 0. -1.
          2    1    1    2  501    0  0.44934577507E+01 -0.27708517063E+02  0.53017670910E+02  0.59990220112E+02  0.00000000000E+00 0. -1.
          1    1    1    2  502    0 -0.23439611568E+01  0.46509214141E+02 -0.73994924738E+02  0.87429114378E+02  0.00000000000E+00 0. -1.
         22    1    1    2    0    0  0.18049976636E+02  0.11158514847E+02 -0.90386361614E+02  0.92844000754E+02  0.00000000000E+00 0. -1.
         22    1    1    2    0    0 -0.20199473230E+02 -0.29959211925E+02  0.30454077725E+02  0.47254882796E+02  0.00000000000E+00 0. -1.
</event>
<event>
 6    1  0.2144783E-005  0.1629271E+03  0.7818608E-02  0.1315354E+00
          2   -1    0    0  502    0  0.00000000000E+00  0.00000000000E+00  0.11623553380E+03  0.11623553380E+03  0.00000000000E+00 0.  1.
          1   -1    0    0  501    0 -0.00000000000E+00 -0.00000000000E+00 -0.13123624201E+03  0.13123624201E+03  0.00000000000E+00 0.  1.
          2    1    1    2  501    0 -0.53699527401E+01  0.26747875077E+02  0.26748142180E+02  0.38206652871E+02  0.00000000000E+00 0.  1.
          1    1    1    2  502    0  0.23296927600E+02  0.25813328241E+02  0.37830983931E+02  0.51383441843E+02  0.00000000000E+00 0.  1.
         22    1    1    2    0    0 -0.24604831138E+02 -0.62635766350E+02 -0.10785738549E+03  0.12712927494E+03  0.00000000000E+00 0.  1.
         22    1    1    2    0    0  0.66778562776E+01  0.10074563032E+02  0.28277551167E+02  0.30752406162E+02  0.00000000000E+00 0.  1.
</event>
<event>
 6    1  0.2144783E-005  0.1793678E+03  0.7818608E-02  0.1268285E+00
          2   -1    0    0  502    0  0.00000000000E+00  0.00000000000E+00  0.44984982709E+03  0.44984982709E+03  0.00000000000E+00 0. -1.
          1   -1    0    0  501    0 -0.00000000000E+00 -0.00000000000E+00 -0.11555013910E+03  0.11555013910E+03  0.00000000000E+00 0.  1.
          2    1    1    2  501    0  0.64207795371E+02 -0.14370382047E+03  0.22621843563E+03  0.27558702731E+03  0.00000000000E+00 0. -1.
          1    1    1    2  502    0 -0.59987782642E+02  0.90714018230E+02 -0.63440499942E+01  0.10893949761E+03  0.00000000000E+00 0.  1.
         22    1    1    2    0    0 -0.17184321470E+01 -0.21757177736E+02  0.10291539248E+03  0.10520411494E+03  0.00000000000E+00 0.  1.
         22    1    1    2    0    0 -0.25015805827E+01  0.74746979971E+02  0.11509909878E+02  0.75669326319E+02  0.00000000000E+00 0.  1.
</event>
<event>
 6    1  0.2144783E-005  0.8149610E+02  0.7818608E-02  0.1368477E+00
          2   -1    0    0  502    0  0.00000000000E+00  0.00000000000E+00  0.16852939082E+03  0.16852939082E+03  0.00000000000E+00 0.  1.
          1   -1    0    0  501    0 -0.00000000000E+00 -0.00000000000E+00 -0.40662305156E+03  0.40662305156E+03  0.00000000000E+00 0.  1.
          2    1    1    2  501    0 -0.16933727620E+03 -0.12237856952E+03 -0.59063279379E+02  0.21711770623E+03  0.00000000000E+00 0.  1.
          1    1    1    2  502    0  0.13915694379E+03  0.97330546236E+02 -0.50907955168E+02  0.17728369958E+03  0.00000000000E+00 0.  1.
         22    1    1    2    0    0  0.34203634394E+02  0.88229579521E+01 -0.14949843898E+03  0.15361483148E+03  0.00000000000E+00 0.  1.
         22    1    1    2    0    0 -0.40233019857E+01  0.16225065332E+02  0.21376012791E+02  0.27136205091E+02  0.00000000000E+00 0. -1.
</event>
<event>
 6    1  0.2144783E-005  0.6194607E+02  0.7818608E-02  0.1511153E+00
          2   -1    0    0  502    0  0.00000000000E+00  0.00000000000E+00  0.51907912669E+02  0.51907912669E+02  0.00000000000E+00 0.  1.
          1   -1    0    0  501    0 -0.00000000000E+00 -0.00000000000E+00 -0.31446245038E+03  0.31446245038E+03  0.00000000000E+00 0.  1.
          2    1    1    2  501    0 -0.39069375722E+02  0.52677937421E+02 -0.11771962976E+03  0.13475641892E+03  0.00000000000E+00 0.  1.
          1    1    1    2  502    0  0.24439677898E+02 -0.15887056212E+02 -0.87343900803E+02  0.92079603705E+02  0.00000000000E+00 0.  1.
         22    1    1    2    0    0  0.50365213106E+01 -0.90400260070E+01  0.38128675159E+02  0.39508030659E+02  0.00000000000E+00 0.  1.
         22    1    1    2    0    0  0.95931765126E+01 -0.27750855202E+02 -0.95619682307E+02  0.10002630976E+03  0.00000000000E+00 0.  1.
</event>
<event>
 6    1  0.2144783E-005  0.6240423E+02  0.7818608E-02  0.1495663E+00
          2   -1    0    0  502    0  0.00000000000E+00  0.00000000000E+00  0.68287028184E+02  0.68287028184E+02  0.00000000000E+00 0.  1.
          1   -1    0    0  501    0 -0.00000000000E+00 -0.00000000000E+00 -0.29364254021E+03  0.29364254021E+03  0.00000000000E+00 0.  1.
          2    1    1    2  501    0  0.45201237402E+02  0.27919464450E+02 -0.72002627431E+02  0.89481991008E+02  0.00000000000E+00 0.  1.
          1    1    1    2  502    0 -0.24290501410E+02 -0.36737544501E+02 -0.14242473751E+03  0.14907877612E+03  0.00000000000E+00 0.  1.
         22    1    1    2    0    0 -0.20683818927E+02 -0.36908806486E+01 -0.64769966329E+02  0.68092521643E+02  0.00000000000E+00 0. -1.
         22    1    1    2    0    0 -0.22691706485E+00  0.12508960700E+02  0.53841819245E+02  0.55276279621E+02  0.00000000000E+00 0.  1.
</event>
<event>
 6    1  0.2144783E-005  0.5559070E+02  0.7818608E-02  0.1519411E+00
          2   -1    0    0  502    0  0.00000000000E+00  0.00000000000E+00  0.83279667041E+02  0.83279667041E+02  0.00000000000E+00 0. -1.
          1   -1    0    0  501    0 -0.00000000000E+00 -0.00000000000E+00 -0.23326309912E+03  0.23326309912E+03  0.00000000000E+00 0. -1.
          2    1    1    2  501    0  0.13660988831E+02  0.50517075556E+02  0.41350908709E+02  0.66697040337E+02  0.00000000000E+00 0. -1.
          1    1    1    2  502    0 -0.18240259902E+02 -0.12170151990E+02 -0.61283657442E+02  0.65088450206E+02  0.00000000000E+00 0. -1.
         22    1    1    2    0    0  0.10613663706E+02 -0.71774009958E+01  0.24141308718E+02  0.27330710363E+02  0.00000000000E+00 0. -1.
         22    1    1    2    0    0 -0.60343926357E+01 -0.31169522570E+02 -0.15419199207E+03  0.15742656526E+03  0.00000000000E+00 0. -1.
</event>
<event>
 6    1  0.2144783E-005  0.4891203E+02  0.7818608E-02  0.1489748E+00
          2   -1    0    0  502    0  0.00000000000E+00  0.00000000000E+00  0.27930272958E+03  0.27930272958E+03  0.00000000000E+00 0. -1.
          1   -1    0    0  501    0 -0.00000000000E+00 -0.00000000000E+00 -0.12700873113E+03  0.12700873113E+03  0.00000000000E+00 0.  1.
          2    1    1    2  501    0  0.31369496330E+02 -0.80913716320E+01  0.20408834299E+03  0.20664357561E+03  0.00000000000E+00 0. -1.
          1    1    1    2  502    0 -0.26898120941E+02  0.23367267666E+02 -0.65697192120E+02  0.74737267550E+02  0.00000000000E+00 0.  1.
         22    1    1    2    0    0 -0.19743735977E+02 -0.20143713913E+02 -0.50890238910E+02  0.58184196625E+02  0.00000000000E+00 0. -1.
         22    1    1    2    0    0  0.15272360589E+02  0.48678178789E+01  0.64793086491E+02  0.66746420922E+02  0.00000000000E+00 0. -1.
</event>
<event>
 6    1  0.2144783E-005  0.7257596E+02  0.7818608E-02  0.1402198E+00
          2   -1    0    0  502    0  0.00000000000E+00  0.00000000000E+00  0.18128034815E+03  0.18128034815E+03  0.00000000000E+00 0.  1.
          1   -1    0    0  501    0 -0.00000000000E+00 -0.00000000000E+00 -0.37665446555E+03  0.37665446555E+03  0.00000000000E+00 0.  1.
          2    1    1    2  501    0 -0.22159791639E+02 -0.12749231520E+02  0.12051148712E+03  0.12319341621E+03  0.00000000000E+00 0.  1.
          1    1    1    2  502    0  0.52337055094E+02  0.30227309786E+02 -0.29583481365E+03  0.30194551588E+03  0.00000000000E+00 0.  1.
         22    1    1    2    0    0 -0.19719879171E+02 -0.24739536961E+02  0.51325620272E+02  0.60292931757E+02  0.00000000000E+00 0.  1.
         22    1    1    2    0    0 -0.10457384283E+02  0.72614586949E+01 -0.71376411153E+02  0.72502949854E+02  0.00000000000E+00 0.  1.
</event>
<event>
 6    1  0.2144783E-005  0.1941892E+03  0.7818608E-02  0.1242958E+00
          2   -1    0    0  502    0  0.00000000000E+00  0.00000000000E+00  0.72521488054E+03  0.72521488054E+03  0.00000000000E+00 0. -1.
          1   -1    0    0  501    0 -0.00000000000E+00 -0.00000000000E+00 -0.14771632315E+03  0.14771632315E+03  0.00000000000E+00 0. -1.
          2    1    1    2  501    0 -0.19241668018E+03  0.85192145443E+01  0.52756180443E+03  0.56162105847E+03  0.00000000000E+00 0. -1.
          1    1    1    2  502    0  0.14752105517E+03  0.29229859110E+02 -0.31950693678E+02  0.15374554696E+03  0.00000000000E+00 0. -1.
         22    1    1    2    0    0  0.42107712141E+01 -0.28082704845E+02  0.10569627117E+03  0.10944437237E+03  0.00000000000E+00 0.  1.
         22    1    1    2    0    0  0.40684853795E+02 -0.96663688089E+01 -0.23808824527E+02  0.48120225890E+02  0.00000000000E+00 0.  1.
</event>
<event>
 6    1  0.2144783E-005  0.4108194E+02  0.7818608E-02  0.1510573E+00
          2   -1    0    0  502    0  0.00000000000E+00  0.00000000000E+00  0.15980391032E+03  0.15980391032E+03  0.00000000000E+00 0.  1.
          1   -1    0    0  501    0 -0.00000000000E+00 -0.00000000000E+00 -0.93924605531E+03  0.93924605531E+03  0.00000000000E+00 0.  1.
          2    1    1    2  501    0 -0.49459789077E+02 -0.43302428635E+02  0.96699011681E+02  0.11692762685E+03  0.00000000000E+00 0.  1.
          1    1    1    2  502    0  0.46396721665E+02  0.45104312284E+02 -0.85537041183E+03  0.85781442993E+03  0.00000000000E+00 0.  1.
         22    1    1    2    0    0  0.18405668192E+02 -0.15812407077E+02 -0.68274930201E+02  0.72458725721E+02  0.00000000000E+00 0. -1.
         22    1    1    2    0    0 -0.15342600781E+02  0.14010523428E+02  0.47504185356E+02  0.51849183135E+02  0.00000000000E+00 0.  1.
</event>
<event>
 6    1  0.2144783E-005  0.8378021E+02  0.7818608E-02  0.1437689E+00
          2   -1    0    0  502    0  0.00000000000E+00  0.00000000000E+00  0.27842090142E+03  0.27842090142E+03  0.00000000000E+00 0.  1.
          1   -1    0    0  501    0 -0.00000000000E+00 -0.00000000000E+00 -0.34205003725E+03  0.34205003725E+03  0.00000000000E+00 0. -1.
          2    1    1    2  501    0 -0.71318223748E+02 -0.26312364455E+00  0.20639191215E+03  0.21836661759E+03  0.00000000000E+00 0.  1.
          1    1    1    2  502    0  0.84690430117E+02  0.14743469519E+02 -0.26638139978E+03  0.27990871547E+03  0.00000000000E+00 0. -1.
         22    1    1    2    0    0 -0.32810319848E+01 -0.11452283096E+02 -0.61876778737E+02  0.63013139153E+02  0.00000000000E+00 0. -1.
         22    1    1    2    0    0 -0.10091174384E+02 -0.30280627779E+01  0.58237130528E+02  0.59182466464E+02  0.00000000000E+00 0. -1.
</event>
<event>
 6    1  0.2144783E-005  0.5361305E+02  0.7818608E-02  0.1436623E+00
          2   -1    0    0  502    0  0.00000000000E+00  0.00000000000E+00  0.18732338866E+03  0.18732338866E+03  0.00000000000E+00 0. -1.
          1   -1    0    0  501    0 -0.00000000000E+00 -0.00000000000E+00 -0.10871727233E+03  0.10871727233E+03  0.00000000000E+00 0. -1.
          2    1    1    2  501    0  0.20690883781E+02 -0.71140674079E+02  0.78515467446E+02  0.10795270635E+03  0.00000000000E+00 0. -1.
          1    1    1    2  502    0 -0.21760340219E+02 -0.22351115262E+01 -0.33905797332E+02  0.40349860256E+02  0.00000000000E+00 0. -1.
         22    1    1    2    0    0  0.11420841377E+02  0.44759416787E+02  0.80118538752E+02  0.92481464417E+02  0.00000000000E+00 0. -1.
         22    1    1    2    0    0 -0.10351384939E+02  0.28616368819E+02 -0.46122092540E+02  0.55256629962E+02  0.00000000000E+00 0. -1.
</event>
<event>
 6    1  0.2144783E-005  0.2099574E+03  0.7818608E-02  0.1277159E+00
          2   -1    0    0  502    0  0.00000000000E+00  0.00000000000E+00  0.15624989576E+03  0.15624989576E+03  0.00000000000E+00 0. -1.
          1   -1    0    0  501    0 -0.00000000000E+00 -0.00000000000E+00 -0.25849703963E+03  0.25849703963E+03  0.00000000000E+00 0. -1.
          2    1    1    2  501    0  0.66913798999E+02 -0.82229410069E+01  0.84349482252E+02  0.10798105580E+03  0.00000000000E+00 0. -1.
          1    1    1    2  502    0 -0.27919205912E+02  0.23927795932E+02  0.35167952921E+02  0.50880314361E+02  0.00000000000E+00 0. -1.
         22    1    1    2    0    0  0.96684124597E+01 -0.61723662356E+01  0.12187167932E+02  0.16736288915E+02  0.00000000000E+00 0. -1.
         22    1    1    2    0    0 -0.48663005547E+02 -0.95324886893E+01 -0.23395174697E+03  0.23914927631E+03  0.00000000000E+00 0. -1.
</event>
<event>
 6    1  0.2144783E-005  0.1355841E+03  0.7818608E-02  0.1220298E+00
          2   -1    0    0  502    0  0.00000000000E+00  0.00000000000E+00  0.33054426119E+03  0.33054426119E+03  0.00000000000E+00 0.  1.
          1   -1    0    0  501    0 -0.00000000000E+00 -0.00000000000E+00 -0.17041466587E+03  0.17041466587E+03  0.00000000000E+00 0. -1.
          2    1    1    2  501    0 -0.88475384430E+02  0.34312903816E+02  0.16310954672E+03  0.18870610285E+03  0.00000000000E+00 0.  1.
          1    1    1    2  502    0  0.10565493542E+03 -0.23566803013E+02 -0.10312750878E+03  0.14951134623E+03  0.00000000000E+00 0. -1.
         22    1    1    2    0    0 -0.34148239205E+02  0.73291645813E+01  0.12370570275E+03  0.12854150997E+03  0.00000000000E+00 0. -1.
         22    1    1    2    0    0  0.16968688212E+02 -0.18075265383E+02 -0.23558145373E+02  0.34199968008E+02  0.00000000000E+00 0. -1.
</event>
<event>
 6    1  0.2144783E-005  0.3704366E+02  0.7818608E-02  0.1593311E+00
          2   -1    0    0  502    0  0.00000000000E+00  0.00000000000E+00  0.36381468913E+03  0.36381468913E+03  0.00000000000E+00 0. -1.
          1   -1    0    0  501    0 -0.00000000000E+00 -0.00000000000E+00 -0.85729352389E+02  0.85729352389E+02  0.00000000000E+00 0. -1.
          2    1    1    2  501    0 -0.62974171694E+01  0.44307846438E+02  0.26434411377E+03  0.26810567544E+03  0.00000000000E+00 0. -1.
          1    1    1    2  502    0 -0.46646462329E+01 -0.21476365390E+02 -0.39187505058E+02  0.44929430750E+02  0.00000000000E+00 0. -1.
         22    1    1    2    0    0 -0.33422493112E+01 -0.13863838280E+02 -0.39788558898E+02  0.42267080115E+02  0.00000000000E+00 0. -1.
         22    1    1    2    0    0  0.14304312714E+02 -0.89676427680E+01  0.92717286932E+02  0.94241855219E+02  0.00000000000E+00 0. -1.
</event>
<event>
 6    1  0.2144783E-005  0.8566347E+02  0.7818608E-02  0.1357020E+00
          2   -1    0    0  502    0  0.00000000000E+00  0.00000000000E+00  0.10713716596E+03  0.10713716596E+03  0.00000000000E+00 0. -1.
          1   -1    0    0  501    0 -0.00000000000E+00 -0.00000000000E+00 -0.13905293769E+03  0.13905293769E+03  0.00000000000E+00 0. -1.
          2    1    1    2  501    0 -0.54461872731E+02 -0.91625714867E+01 -0.13982792807E+00  0.55227419363E+02  0.00000000000E+00 0. -1.
          1    1    1    2  502    0  0.49477326719E+02  0.26504649491E+02 -0.29470584220E+02  0.63395722554E+02  0.00000000000E+00 0. -1.
         22    1    1    2    0    0  0.44025261124E+02 -0.76566807760E+01 -0.48745606264E+02  0.66128530209E+02  0.00000000000E+00 0.  1.
         22    1    1    2    0    0 -0.39040715112E+02 -0.96853972282E+01  0.46440246687E+02  0.61438431525E+02  0.00000000000E+00 0.  1.
</event>
<event>
 6    1  0.2144783E-005  0.6159989E+02  0.7818608E-02  0.1491162E+00
          2   -1    0    0  502    0  0.00000000000E+00  0.00000000000E+00  0.10045107550E+03  0.10045107550E+03  0.00000000000E+00 0.  1.
          1   -1    0    0  501    0 -0.00000000000E+00 -0.00000000000E+00 -0.12013994230E+03  0.12013994230E+03  0.00000000000E+00 0.  1.
          2    1    1    2  501    0  0.22391572540E+02  0.43235055402E+02  0.24917934112E+02  0.54695118400E+02  0.00000000000E+00 0.  1.
          1    1    1    2  502    0 -0.10877468743E+02 -0.24056562717E+02 -0.26889246326E+02  0.37683804266E+02  0.00000000000E+00 0.  1.
         22    1    1    2    0    0 -0.21713553930E+02 -0.28541472686E+02 -0.67556837544E+02  0.76485425973E+02  0.00000000000E+00 0.  1.
         22    1    1    2    0    0  0.10199450133E+02  0.93629800005E+01  0.49839282953E+02  0.51726669163E+02  0.00000000000E+00 0.  1.
</event>
<event>
 6    1  0.2144783E-005  0.1069353E+03  0.7818608E-02  0.1351785E+00
          2   -1    0    0  502    0  0.00000000000E+00  0.00000000000E+00  0.38273659040E+02  0.38273659040E+02  0.00000000000E+00 0.  1.
          1   -1    0    0  501    0 -0.00000000000E+00 -0.00000000000E+00 -0.71960791348E+03  0.71960791348E+03  0.00000000000E+00 0. -1.
          2    1    1    2  501    0 -0.47225919451E+02 -0.71234412739E+02 -0.94297105817E+02  0.12726575813E+03  0.00000000000E+00 0.  1.
          1    1    1    2  502    0  0.59860588309E+02  0.43463292592E+02 -0.38239873473E+03  0.38948830555E+03  0.00000000000E+00 0. -1.
         22    1    1    2    0    0  0.82539517581E+01  0.36389058897E+02 -0.21358831333E+03  0.21682310513E+03  0.00000000000E+00 0.  1.
         22    1    1    2    0    0 -0.20888620615E+02 -0.86179387502E+01  0.89498994447E+01  0.24304403708E+02  0.00000000000E+00 0.  1.
</event>
<event>
 6    1  0.2144783E-005  0.4653094E+02  0.7818608E-02  0.1512455E+00
          2   -1    0    0  502    0  0.00000000000E+00  0.00000000000E+00  0.89247125406E+02  0.89247125406E+02  0.00000000000E+00 0.  1.
          1   -1    0    0  501    0 -0.00000000000E+00 -0.00000000000E+00 -0.75088339147E+03  0.75088339147E+03  0.00000000000E+00 0. -1.
          2    1    1    2  501    0  0.61368342943E+02  0.20902105027E+02 -0.41866868358E+01  0.64965374291E+02  0.00000000000E+00 0.  1.
          1    1    1    2  502    0 -0.45576017713E+02 -0.67404039407E+02 -0.63732330392E+03  0.64249628142E+03  0.00000000000E+00 0. -1.
         22    1    1    2    0    0 -0.90217109904E+01  0.14942738571E+02  0.51353760410E+02  0.54239150190E+02  0.00000000000E+00 0.  1.
         22    1    1    2    0    0 -0.67706142396E+01  0.31559195809E+02 -0.71480035715E+02  0.78429710972E+02  0.00000000000E+00 0.  1.
</event>
<event>
 6    1  0.2144783E-005  0.2165542E+03  0.7818608E-02  0.1230016E+00
          2   -1    0    0  502    0  0.00000000000E+00  0.00000000000E+00  0.97559133493E+02  0.97559133493E+02  0.00000000000E+00 0. -1.
          1   -1    0    0  501    0 -0.00000000000E+00 -0.00000000000E+00 -0.90675420673E+03  0.90675420673E+03  0.00000000000E+00 0. -1.
          2    1    1    2  501    0  0.23438976703E+01  0.22129181080E+02  0.48993725461E+02  0.53810590464E+02  0.00000000000E+00 0. -1.
          1    1    1    2  502    0 -0.94212577404E+02  0.70469284302E+01 -0.75136245910E+03  0.75727882176E+03  0.00000000000E+00 0. -1.
         22    1    1    2    0    0  0.15787318490E+02 -0.21498617561E+02  0.27718366164E+02  0.38467360254E+02  0.00000000000E+00 0. -1.
         22    1    1    2    0    0  0.76081361244E+02 -0.76774919483E+01 -0.13454470576E+03  0.15475656774E+03  0.00000000000E+00 0. -1.
</event>
<event>
 6    1  0.2144783E-005  0.9184019E+02  0.7818608E-02  0.1338610E+00
          2   -1    0    0  502    0  0.00000000000E+00  0.00000000000E+00  0.98634929514E+02  0.98634929514E+02  0.00000000000E+00 0. -1.
          1   -1    0    0  501    0 -0.00000000000E+00 -0.00000000000E+00 -0.33212570259E+03  0.33212570259E+03  0.00000000000E+00 0. -1.
          2    1    1    2  501    0 -0.65631589203E+01 -0.90195756446E+02 -0.19743770784E+03  0.21716352827E+03  0.00000000000E+00 0. -1.
          1    1    1    2  502    0  0.37317425393E+02  0.43234133130E+02 -0.44430952033E+02  0.72359449999E+02  0.00000000000E+00 0. -1.
         22    1    1    2    0    0 -0.40589047360E+02  0.18810352337E+02  0.64024185793E+02  0.78105034966E+02  0.00000000000E+00 0. -1.
         22    1    1    2    0    0  0.98347808868E+01  0.28151270979E+02 -0.55646299001E+02  0.63132618870E+02  0.00000000000E+00 0.  1.
</event>
<event>
 6    1  0.2144783E-005  0.5860643E+02  0.7818608E-02  0.1495282E+00
          2   -1    0    0  502    0  0.00000000000E+00  0.00000000000E+00  0.58092619487E+02  0.58092619487E+02  0.00000000000E+00 0.  1.
          1   -1    0    0  501    0 -0.00000000000E+00 -0.00000000000E+00 -0.43570786520E+03  0.43570786520E+03  0.00000000000E+00 0.  1.
          2    1    1    2  501    0  0.62835263764E+02  0.16123382158E+02 -0.73325564193E+01  0.65283996570E+02  0.00000000000E+00 0.  1.
          1    1    1    2  502    0 -0.31372751907E+02 -0.32337875408E+01 -0.24043068377E+03  0.24249045474E+03  0.00000000000E+00 0.  1.
         22    1    1    2    0    0 -0.17616978132E+02 -0.19123235650E+02 -0.15471962471E+03  0.15688919125E+03  0.00000000000E+00 0.  1.
         22    1    1    2    0    0 -0.13845533725E+02  0.62336410332E+01  0.24867619189E+02  0.29136842121E+02  0.00000000000E+00 0.  1.
</event>
<event>
 6    1  0.2144783E-005  0.7436443E+02  0.7818608E-02  0.1408200E+00
          2   -1    0    0  502    0  0.00000000000E+00  0.00000000000E+00  0.22230751281E+03  0.22230751281E+03  0.00000000000E+00 0.  1.
          1   -1    0    0  501    0 -0.00000000000E+00 -0.00000000000E+00 -0.35181707084E+03  0.35181707084E+03  0.00000000000E+00 0. -1.
          2    1    1    2  501    0 -0.18308643198E+02 -0.20451388436E+02  0.55316697274E+02  0.61752754611E+02  0.00000000000E+00 0.  1.
          1    1    1    2  502    0  0.31549285453E+01 -0.74176925458E+02 -0.30574003634E+03  0.31462539578E+03  0.00000000000E+00 0. -1.
         22    1    1    2    0    0  0.18542903973E+02  0.19296456356E+02  0.11935897136E+03  0.12232234693E+03  0.00000000000E+00 0.  1.
         22    1    1    2    0    0 -0.33891893195E+01  0.75331857539E+02  0.15548096798E+01  0.75424086323E+02  0.00000000000E+00 0.  1.
</event>
<event>
 6    1  0.2144783E-005  0.6588980E+02  0.7818608E-02  0.1499587E+00
          2   -1    0    0  502    0  0.00000000000E+00  0.00000000000E+00  0.11634868779E+03  0.11634868779E+03  0.00000000000E+00 0.  1.
          1   -1    0    0  501    0 -0.00000000000E+00 -0.00000000000E+00 -0.18491904320E+03  0.18491904320E+03  0.00000000000E+00 0. -1.
          2    1    1    2  501    0 -0.57158043628E+02 -0.23925099403E+02  0.51328063408E+02  0.80461310119E+02  0.00000000000E+00 0.  1.
          1    1    1    2  502    0  0.36511489966E+02  0.18732923821E+02 -0.74053794607E+02  0.84663899214E+02  0.00000000000E+00 0. -1.
         22    1    1    2    0    0  0.60556306511E+01 -0.80445090973E+01  0.43500811316E+02  0.44650928034E+02  0.00000000000E+00 0.  1.
         22    1    1    2    0    0  0.14590923011E+02  0.13236684680E+02 -0.89345435521E+02  0.91491593625E+02  0.00000000000E+00 0. -1.
</event>
<event>
 6    1  0.2144783E-005  0.4089857E+02  0.7818608E-02  0.1528091E+00
          2   -1    0    0  502    0  0.00000000000E+00  0.00000000000E+00  0.11037804190E+03  0.11037804190E+03  0.00000000000E+00 0.  1.
          1   -1    0    0  501    0 -0.00000000000E+00 -0.00000000000E+00 -0.12737663388E+03  0.12737663388E+03  0.00000000000E+00 0. -1.
          2    1    1    2  501    0 -0.66258119540E+01  0.19027860630E+02  0.28906115520E+02  0.35235271798E+02  0.00000000000E+00 0.  1.
          1    1    1    2  502    0 -0.13191883553E+02 -0.24364838893E+02 -0.67323298684E+02  0.72801769976E+02  0.00000000000E+00 0. -1.
         22    1    1    2    0    0  0.19673320001E+02  0.20849067202E+02  0.71636125879E+02  0.77158652489E+02  0.00000000000E+00 0.  1.
         22    1    1    2    0    0  0.14437550663E+00 -0.15512088938E+02 -0.50217534697E+02  0.52558981521E+02  0.00000000000E+00 0.  1.
</event>
<event>
 6    1  0.2144783E-005  0.1266033E+03  0.7818608E-02  0.1345391E+00
          2   -1    0    0  502    0  0.00000000000E+00  0.00000000000E+00  0.27007111541E+03  0.27007111541E+03  0.00000000000E+00 0.  1.
          1   -1    0    0  501    0 -0.00000000000E+00 -0.00000000000E+00 -0.13970102623E+03  0.13970102623E+03  0.00000000000E+00 0.  1.
          2    1    1    2  501    0  0.62151784636E+02 -0.63082144457E+02  0.19379637543E+03  0.21307096568E+03  0.00000000000E+00 0.  1.
          1    1    1    2  502    0 -0.37068279863E+02  0.20536119508E+02  0.35797635957E+01  0.42527688437E+02  0.00000000000E+00 0.  1.
         22    1    1    2    0    0 -0.21821980690E+02  0.57381527687E+02 -0.10028962451E+03  0.11758761561E+03  0.00000000000E+00 0.  1.
         22    1    1    2    0    0 -0.32615240834E+01 -0.14835502738E+02  0.33283574667E+02  0.36585871910E+02  0.00000000000E+00 0.  1.
</event>
<event>
 6    1  0.2144783E-005  0.1803679E+02  0.7818608E-02  0.1801053E+00
          2   -1    0    0  502    0  0.00000000000E+00  0.00000000000E+00  0.66817322277E+02  0.66817322277E+02  0.00000000000E+00 0. -1.
          1   -1    0    0  501    0 -0.00000000000E+00 -0.00000000000E+00 -0.13375566035E+03  0.13375566035E+03  0.00000000000E+00 0. -1.
          2    1    1    2  501    0  0.16297073985E+02  0.11879991241E+02 -0.99104950007E+01  0.22471019637E+02  0.00000000000E+00 0. -1.
          1    1    1    2  502    0 -0.23126741333E+02 -0.11395109553E+02 -0.50415630276E+02  0.56625351766E+02  0.00000000000E+00 0. -1.
         22    1    1    2    0    0 -0.50441047491E+00  0.11914376695E+02  0.55986108505E+02  0.57242040036E+02  0.00000000000E+00 0. -1.
         22    1    1    2    0    0  0.73340778231E+01 -0.12399258383E+02 -0.62598321299E+02  0.64234571186E+02  0.00000000000E+00 0. -1.
</event>
<event>
 6    1  0.2144783E-005  0.7675506E+02  0.7818608E-02  0.1426661E+00
          2   -1    0    0  502    0  0.00000000000E+00  0.00000000000E+00  0.25064233438E+03  0.25064233438E+03  0.00000000000E+00 0.  1.
          1   -1    0    0  501    0 -0.00000000000E+00 -0.00000000000E+00 -0.43956144187E+02  0.43956144187E+02  0.00000000000E+00 0. -1.
          2    1    1    2  501    0 -0.19756811029E+02 -0.88261141828E+01  0.10583271923E+03  0.10802220296E+03  0.00000000000E+00 0.  1.
          1    1    1    2  502    0  0.99938172373E+00  0.29916330705E+02  0.96187715332E+01  0.31440521187E+02  0.00000000000E+00 0. -1.
         22    1    1    2    0    0  0.36133615544E+02 -0.26839050136E+02 -0.14916636723E+02  0.47418127711E+02  0.00000000000E+00 0. -1.
         22    1    1    2    0    0 -0.17376186238E+02  0.57488336142E+01  0.10615133615E+03  0.10771762671E+03  0.00000000000E+00 0.  1.
</event>
<event>
 6    1  0.2144783E-005  0.3691623E+02  0.7818608E-02  0.1591287E+00
          2   -1    0    0  502    0  0.00000000000E+00  0.00000000000E+00  0.46997153174E+03  0.46997153174E+03  0.00000000000E+00 0.  1.
          1   -1    0    0  501    0 -0.00000000000E+00 -0.00000000000E+00 -0.11967294564E+03  0.11967294564E+03  0.00000000000E+00 0.  1.
          2    1    1    2  501    0  0.10449608036E+02 -0.25521584518E+02  0.37586085539E+03  0.37687123557E+03  0.00000000000E+00 0.  1.
          1    1    1    2  502    0  0.14199697448E+02 -0.29541828062E+02 -0.58732201133E+02  0.67259367101E+02  0.00000000000E+00 0.  1.
         22    1    1    2    0    0 -0.28204579465E+02  0.37945450248E+02 -0.45084813267E+02  0.65329900387E+02  0.00000000000E+00 0.  1.
         22    1    1    2    0    0  0.35552739814E+01  0.17117962332E+02  0.78254745103E+02  0.80183974325E+02  0.00000000000E+00 0. -1.
</event>
<event>
 6    1  0.2144783E-005  0.1845811E+02  0.7818608E-02  0.1786931E+00
          2   -1    0    0  502    0  0.00000000000E+00  0.00000000000E+00  0.16148120212E+03  0.16148120212E+03  0.00000000000E+00 0.  1.
          1   -1    0    0  501    0 -0.00000000000E+00 -0.00000000000E+00 -0.21829515991E+03  0.21829515991E+03  0.00000000000E+00 0.  1.
          2    1    1    2  501    0  0.71219816493E+01  0.36380724061E+02  0.75718394189E+02  0.84306316041E+02  0.00000000000E+00 0.  1.
          1    1    1    2  502    0 -0.19924237948E+02 -0.18566123577E+02 -0.16290928556E+03  0.16516994740E+03  0.00000000000E+00 0.  1.
         22    1    1    2    0    0 -0.52196714379E+00 -0.14872516321E+02  0.78696296918E+02  0.80091019098E+02  0.00000000000E+00 0.  1.
         22    1    1    2    0    0  0.13324223443E+02 -0.29420841622E+01 -0.48319363345E+02  0.50209079494E+02  0.00000000000E+00 0.  1.
</event>
<event>
 6    1  0.2144783E-005  0.9284843E+02  0.7818608E-02  0.1338393E+00
          2   -1    0    0  502    0  0.00000000000E+00  0.00000000000E+00  0.16590398710E+03  0.16590398710E+03  0.00000000000E+00 0.  1.
          1   -1    0    0  501    0 -0.00000000000E+00 -0.00000000000E+00 -0.19527197426E+03  0.19527197426E+03  0.00000000000E+00 0. -1.
          2    1    1    2  501    0  0.31584538785E+02 -0.57745031494E+02  0.19186409425E+02  0.68557932139E+02  0.00000000000E+00 0.  1.
          1    1    1    2  502    0 -0.20823847476E+02  0.84668461849E+02 -0.12037321260E+03  0.14863408548E+03  0.00000000000E+00 0. -1.
         22    1    1    2    0    0  0.36740550414E+01  0.14066831959E+02 -0.29967843010E+02  0.33308348150E+02  0.00000000000E+00 0.  1.
         22    1    1    2    0    0 -0.14434746350E+02 -0.40990262313E+02  0.10178665902E+03  0.11067559560E+03  0.00000000000E+00 0.  1.
</event>
<event>
 6    1  0.2144783E-005  0.2047349E+03  0.7818608E-02  0.1184755E+00
          2   -1    0    0  502    0  0.00000000000E+00  0.00000000000E+00  0.62903237764E+03  0.62903237764E+03  0.00000000000E+00 0.  1.
          1   -1    0    0  501    0 -0.00000000000E+00 -0.00000000000E+00 -0.16074780234E+03  0.16074780234E+03  0.00000000000E+00 0.  1.
          2    1    1    2  501    0 -0.10481768850E+03 -0.13085435104E+03  0.20560790924E+03  0.26530024755E+03  0.00000000000E+00 0.  1.
          1    1    1    2  502    0  0.74772949361E+02  0.18927661800E+03 -0.23445945384E+02  0.20485688769E+03  0.00000000000E+00 0.  1.
         22    1    1    2    0    0 -0.52201281035E+01  0.17106540963E+02 -0.35166780617E+01  0.18227740006E+02  0.00000000000E+00 0. -1.
         22    1    1    2    0    0  0.35264867242E+02 -0.75528807922E+02  0.28963928951E+03  0.30139530474E+03  0.00000000000E+00 0.  1.
</event>
<event>
 6    1  0.2144783E-005  0.8269112E+02  0.7818608E-02  0.1430252E+00
          2   -1    0    0  502    0  0.00000000000E+00  0.00000000000E+00  0.30163514275E+03  0.30163514275E+03  0.00000000000E+00 0. -1.
          1   -1    0    0  501    0 -0.00000000000E+00 -0.00000000000E+00 -0.28715218367E+03  0.28715218367E+03  0.00000000000E+00 0. -1.
          2    1    1    2  501    0  0.87110603166E+02  0.36405550724E+02  0.20505721631E+03  0.22574783115E+03  0.00000000000E+00 0. -1.
          1    1    1    2  502    0 -0.66505469198E+02 -0.21429628998E+02 -0.21703093439E+03  0.22800138797E+03  0.00000000000E+00 0. -1.
         22    1    1    2    0    0 -0.12045668102E+02 -0.68552182308E+01  0.79499648555E+02  0.80698737644E+02  0.00000000000E+00 0.  1.
         22    1    1    2    0    0 -0.85594658667E+01 -0.81207034951E+01 -0.53042971393E+02  0.54339369663E+02  0.00000000000E+00 0.  1.
</event>
<event>
 6    1  0.2144783E-005  0.3641231E+02  0.7818608E-02  0.1563967E+00
          2   -1    0    0  502    0  0.00000000000E+00  0.00000000000E+00  0.17366783523E+03  0.17366783523E+03  0.00000000000E+00 0.  1.
          1   -1    0    0  501    0 -0.00000000000E+00 -0.00000000000E+00 -0.86714016019E+02  0.86714016019E+02  0.00000000000E+00 0.  1.
          2    1    1    2  501    0 -0.14802137708E+01 -0.42476564074E+02  0.55802771172E+02  0.70145554377E+02  0.00000000000E+00 0.  1.
          1    1    1    2  502    0 -0.14805097690E+02  0.19617185542E+02 -0.40688824755E+02  0.47535306312E+02  0.00000000000E+00 0.  1.
         22    1    1    2    0    0  0.21606065191E+02  0.13650757008E+02  0.10490203398E+03  0.10797037535E+03  0.00000000000E+00 0.  1.
         22    1    1    2    0    0 -0.53207537302E+01  0.92086215250E+01 -0.33062161186E+02  0.34730615211E+02  0.00000000000E+00 0.  1.
</event>
<event>
 6    1  0.2144783E-005  0.2467562E+02  0.7818608E-02  0.1675697E+00
          2   -1    0    0  502    0  0.00000000000E+00  0.00000000000E+00  0.99543922353E+02  0.99543922353E+02  0.00000000000E+00 0. -1.
          1   -1    0    0  501    0 -0.00000000000E+00 -0.00000000000E+00 -0.12287202360E+03  0.12287202360E+03  0.00000000000E+00 0. -1.
          2    1    1    2  501    0 -0.73163540136E+01 -0.18971809620E+02  0.32907665272E+02  0.38682981141E+02  0.00000000000E+00 0. -1.
          1    1    1    2  502    0  0.55496660490E+01  0.27473204415E+02 -0.53991737461E+02  0.60833243117E+02  0.00000000000E+00 0. -1.
         22    1    1    2    0    0 -0.18395266081E+02 -0.14446711527E+01  0.57005328212E+02  0.59917279090E+02  0.00000000000E+00 0. -1.
         22    1    1    2    0    0  0.20161954046E+02 -0.70567236422E+01 -0.59249357276E+02  0.62982442610E+02  0.00000000000E+00 0.  1.
</event>
<event>
 6    1  0.2144783E-005  0.1320974E+03  0.7818608E-02  0.1227262E+00
          2   -1    0    0  502    0  0.00000000000E+00  0.00000000000E+00  0.48113283259E+02  0.48113283259E+02  0.00000000000E+00 0. -1.
          1   -1    0    0  501    0 -0.00000000000E+00 -0.00000000000E+00 -0.74901364449E+03  0.74901364449E+03  0.00000000000E+00 0.  1.
          2    1    1    2  501    0  0.71079366197E+02 -0.49795515105E+02 -0.47505806305E+02  0.98937714024E+02  0.00000000000E+00 0. -1.
          1    1    1    2  502    0 -0.55301654799E+02  0.75625516000E+02 -0.42438731757E+03  0.43460566841E+03  0.00000000000E+00 0.  1.
         22    1    1    2    0    0 -0.37291983761E+02  0.25064810427E+01 -0.22465157120E+03  0.22773955068E+03  0.00000000000E+00 0. -1.
         22    1    1    2    0    0  0.21514272363E+02 -0.28336481938E+02 -0.43556661486E+01  0.35843994637E+02  0.00000000000E+00 0. -1.
</event>
<event>
 6    1  0.2144783E-005  0.5592312E+02  0.7818608E-02  0.1489279E+00
          2   -1    0    0  502    0  0.00000000000E+00  0.00000000000E+00  0.12529517781E+03  0.12529517781E+03  0.00000000000E+00 0.  1.
          1   -1    0    0  501    0 -0.00000000000E+00 -0.00000000000E+00 -0.18460139885E+03  0.18460139885E+03  0.00000000000E+00 0.  1.
          2    1    1    2  501    0  0.71870646698E+02  0.10466013026E+02  0.43739363438E+01  0.72760281779E+02  0.00000000000E+00 0.  1.
          1    1    1    2  502    0 -0.56324249893E+02  0.20544025968E+02 -0.89112012587E+02  0.10740311409E+03  0.00000000000E+00 0.  1.
         22    1    1    2    0    0 -0.14412712648E+02 -0.47542764560E+02  0.67907371143E+02  0.84139478270E+02  0.00000000000E+00 0.  1.
         22    1    1    2    0    0 -0.11336841567E+01  0.16532725566E+02 -0.42475515949E+02  0.45593702521E+02  0.00000000000E+00 0.  1.
</event>
<event>
 6    1  0.2144783E-005  0.8178225E+02  0.7818608E-02  0.1363985E+00
          2   -1    0    0  502    0  0.00000000000E+00  0.00000000000E+00  0.73469632023E+02  0.73469632023E+02  0.00000000000E+00 0. -1.
          1   -1    0    0  501    0 -0.00000000000E+00 -0.00000000000E+00 -0.25365110958E+03  0.25365110958E+03  0.00000000000E+00 0.  1.
          2    1    1    2  501    0  0.61263619510E+02 -0.26262317565E+02 -0.14803278626E+02  0.68279407272E+02  0.00000000000E+00 0. -1.
          1    1    1    2  502    0 -0.90666510840E+00  0.35171652925E+02 -0.98460895263E+02  0.10455819005E+03  0.00000000000E+00 0.  1.
         22    1    1    2    0    0 -0.19587300264E+02 -0.36159573524E+02  0.26397914399E+02  0.48867442880E+02  0.00000000000E+00 0. -1.
         22    1    1    2    0    0 -0.40769654137E+02  0.27250238164E+02 -0.93315218066E+02  0.10541570140E+03  0.00000000000E+00 0.  1.
</event>
<event>
 6    1  0.2144783E-005  0.3246254E+02  0.7818608E-02  0.1624645E+00
          2   -1    0    0  502    0  0.00000000000E+00  0.00000000000E+00  0.60712414978E+03  0.60712414978E+03  0.00000000000E+00 0. -1.
          1   -1    0    0  501    0 -0.00000000000E+00 -0.00000000000E+00 -0.80030119159E+03  0.80030119159E+03  0.00000000000E+00 0.  1.
          2    1    1    2  501    0 -0.51667219830E+02  0.31784117908E+02  0.54001263889E+03  0.54340903739E+03  0.00000000000E+00 0. -1.
          1    1    1    2  502    0  0.28442617886E+02 -0.28770406854E+02 -0.73248907896E+03  0.73360545910E+03  0.00000000000E+00 0.  1.
         22    1    1    2    0    0  0.37916301723E+01 -0.10395869836E+02 -0.63398306198E+02  0.64356785173E+02  0.00000000000E+00 0.  1.
         22    1    1    2    0    0  0.19432971773E+02  0.73821587815E+01  0.62697704451E+02  0.66054059706E+02  0.00000000000E+00 0. -1.
</event>
<event>
 6    1  0.2144783E-005  0.6184249E+02  0.7818608E-02  0.1484938E+00
          2   -1    0    0  502    0  0.00000000000E+00  0.00000000000E+00  0.32228262030E+02  0.32228262030E+02  0.00000000000E+00 0. -1.
          1   -1    0    0  501    0 -0.00000000000E+00 -0.00000000000E+00 -0.75312180797E+03  0.75312180797E+03  0.00000000000E+00 0. -1.
          2    1    1    2  501    0  0.21974834626E+02  0.32561028623E+02 -0.21685131895E+03  0.22038059912E+03  0.00000000000E+00 0. -1.
          1    1    1    2  502    0 -0.91426518168E+01 -0.18752799564E+02 -0.41030565975E+03  0.41083572142E+03  0.00000000000E+00 0. -1.
         22    1    1    2    0    0 -0.27149578886E+02 -0.95895653579E+01 -0.12028170674E+03  0.12368002415E+03  0.00000000000E+00 0. -1.
         22    1    1    2    0    0  0.14317396076E+02 -0.42186637016E+01  0.26545139497E+02  0.30453725302E+02  0.00000000000E+00 0. -1.
</event>
<event>
 6    1  0.2144783E-005  0.1142876E+03  0.7818608E-02  0.1253638E+00
          2   -1    0    0  502    0  0.00000000000E+00  0.00000000000E+00  0.25737082435E+02  0.25737082435E+02  0.00000000000E+00 0.  1.
          1   -1    0    0  501    0 -0.00000000000E+00 -0.00000000000E+00 -0.50255397687E+03  0.50255397687E+03  0.00000000000E+00 0.  1.
          2    1    1    2  501    0  0.12405919383E+02  0.47938900800E+02 -0.13920378176E+03  0.14774890152E+03  0.00000000000E+00 0.  1.
          1    1    1    2  502    0  0.11809545780E+02 -0.47286087156E+02 -0.61259951510E+02  0.78282955163E+02  0.00000000000E+00 0.  1.
         22    1    1    2    0    0 -0.17283205288E+02  0.58809217324E+02 -0.11805851817E+03  0.13302273092E+03  0.00000000000E+00 0. -1.
         22    1    1    2    0    0 -0.69322598738E+01 -0.59462030969E+02 -0.15829464299E+03  0.16923647170E+03  0.00000000000E+00 0. -1.
</event>
<event>
 6    1  0.2656983E-005  0.1298534E+03  0.7818608E-02  0.1303792E+00
          2   -1    0    0  502    0  0.00000000000E+00  0.00000000000E+00  0.11314678014E+04  0.11314678014E+04  0.00000000000E+00 0.  1.
          1   -1    0    0  501    0 -0.00000000000E+00 -0.00000000000E+00 -0.44960626457E+03  0.44960626457E+03  0.00000000000E+00 0.  1.
          2    1    1    2  501    0 -0.13844847573E+03  0.10770898087E+02  0.10717454741E+04  0.10807045637E+04  0.00000000000E+00 0.  1.
          1    1    1    2  502    0  0.10830366110E+03 -0.26684185444E+02 -0.33938028342E+03  0.35724040300E+03  0.00000000000E+00 0.  1.
         22    1    1    2    0    0  0.17188627753E+02  0.23916419495E+02  0.40935915293E+02  0.50430082355E+02  0.00000000000E+00 0. -1.
         22    1    1    2    0    0  0.12956186881E+02 -0.80031321383E+01 -0.91439569235E+02  0.92699016847E+02  0.00000000000E+00 0.  1.
</event>
<event>
 6    1  0.2144783E-005  0.5740957E+02  0.7818608E-02  0.1433440E+00
          2   -1    0    0  502    0  0.00000000000E+00  0.00000000000E+00  0.63849403514E+03  0.63849403514E+03  0.00000000000E+00 0. -1.
          1   -1    0    0  501    0 -0.00000000000E+00 -0.00000000000E+00 -0.21455389567E+03  0.21455389567E+03  0.00000000000E+00 0.  1.
          2    1    1    2  501    0  0.49488636862E+02 -0.65950238651E+02  0.58044142807E+03  0.58626854817E+03  0.00000000000E+00 0. -1.
          1    1    1    2  502    0 -0.29357856684E+02  0.10951537253E+02 -0.12563090783E+03  0.12947951544E+03  0.00000000000E+00 0.  1.
         22    1    1    2    0    0 -0.20001587517E+02  0.15530911433E+02 -0.74370308440E+02  0.78563448821E+02  0.00000000000E+00 0.  1.
         22    1    1    2    0    0 -0.12919266102E+00  0.39467789965E+02  0.43499927668E+02  0.58736418367E+02  0.00000000000E+00 0.  1.
</event>
<event>
 6    1  0.2144783E-005  0.1445196E+03  0.7818608E-02  0.1291347E+00
          2   -1    0    0  502    0  0.00000000000E+00  0.00000000000E+00  0.60502539401E+03  0.60502539401E+03  0.00000000000E+00 0. -1.
          1   -1    0    0  501    0 -0.00000000000E+00 -0.00000000000E+00 -0.13531916429E+03  0.13531916429E+03  0.00000000000E+00 0. -1.
          2    1    1    2  501    0 -0.93307564005E+02  0.37677202500E+02  0.47509450923E+03  0.48563429223E+03  0.00000000000E+00 0. -1.
          1    1    1    2  502    0  0.26512269051E+02 -0.51371044066E+02 -0.77127132626E+02  0.96387131744E+02  0.00000000000E+00 0. -1.
         22    1    1    2    0    0  0.74521057871E+01 -0.25845356790E+02  0.81982358408E+02  0.86282231302E+02  0.00000000000E+00 0. -1.
         22    1    1    2    0    0  0.59343189167E+02  0.39539198356E+02 -0.10243505292E+02  0.72040903019E+02  0.00000000000E+00 0. -1.
</event>
<event>
 6    1  0.2144783E-005  0.5315002E+02  0.7818608E-02  0.1442521E+00
          2   -1    0    0  502    0  0.00000000000E+00  0.00000000000E+00  0.10631115227E+03  0.10631115227E+03  0.00000000000E+00 0. -1.
          1   -1    0    0  501    0 -0.00000000000E+00 -0.00000000000E+00 -0.44792107061E+03  0.44792107061E+03  0.00000000000E+00 0. -1.
          2    1    1    2  501    0 -0.17669126790E+02 -0.19911703698E+02 -0.10646309796E+03  0.10974090036E+03  0.00000000000E+00 0. -1.
          1    1    1    2  502    0  0.28249156067E+02  0.61816521731E+02 -0.29385572423E+03  0.30161313606E+03  0.00000000000E+00 0. -1.
         22    1    1    2    0    0  0.10136896415E+02 -0.37590121339E+01 -0.36592594623E+02  0.38156320871E+02  0.00000000000E+00 0. -1.
         22    1    1    2    0    0 -0.20716925691E+02 -0.38145805899E+02  0.95301498479E+02  0.10472186558E+03  0.00000000000E+00 0. -1.
</event>
<event>
 6    1  0.2144783E-005  0.3771197E+02  0.7818608E-02  0.1542632E+00
          2   -1    0    0  502    0  0.00000000000E+00  0.00000000000E+00  0.10882861292E+04  0.10882861292E+04  0.00000000000E+00 0. -1.
          1   -1    0    0  501    0 -0.00000000000E+00 -0.00000000000E+00 -0.36862344102E+02  0.36862344102E+02  0.00000000000E+00 0. -1.
          2    1    1    2  501    0 -0.34199863622E+02 -0.36524105495E+02  0.73796753681E+03  0.73966190002E+03  0.00000000000E+00 0. -1.
          1    1    1    2  502    0 -0.10684808355E+01  0.47459230855E+02  0.22513727976E+03  0.23008762457E+03  0.00000000000E+00 0. -1.
         22    1    1    2    0    0  0.88322741236E+01 -0.20831965030E+02  0.11461103012E+03  0.11682323424E+03  0.00000000000E+00 0. -1.
         22    1    1    2    0    0  0.26436070334E+02  0.98968396699E+01 -0.26292061545E+02  0.38575714516E+02  0.00000000000E+00 0. -1.
</event>
<event>
 6    1  0.2144783E-005  0.2711659E+02  0.7818608E-02  0.1633966E+00
          2   -1    0    0  502    0  0.00000000000E+00  0.00000000000E+00  0.70684948986E+02  0.70684948986E+02  0.00000000000E+00 0.  1.
          1   -1    0    0  501    0 -0.00000000000E+00 -0.00000000000E+00 -0.17953436203E+03  0.17953436203E+03  0.00000000000E+00 0.  1.
          2    1    1    2  501    0 -0.15697718136E+02 -0.42610227957E+02 -0.40827668398E+02  0.61065115966E+02  0.00000000000E+00 0.  1.
          1    1    1    2  502    0  0.82707201137E+01  0.35429213995E+02 -0.55615304085E+02  0.66458227963E+02  0.00000000000E+00 0.  1.
         22    1    1    2    0    0 -0.11163768172E+02  0.14427707786E+02  0.52085569337E+02  0.55187815729E+02  0.00000000000E+00 0. -1.
         22    1    1    2    0    0  0.18590766195E+02 -0.72466938246E+01 -0.64492009903E+02  0.67508151363E+02  0.00000000000E+00 0.  1.
</event>
<event>
 6    1  0.2144783E-005  0.8858575E+02  0.7818608E-02  0.1408104E+00
          2   -1    0    0  502    0  0.00000000000E+00  0.00000000000E+00  0.24446805960E+03  0.24446805960E+03  0.00000000000E+00 0.  1.
          1   -1    0    0  501    0 -0.00000000000E+00 -0.00000000000E+00 -0.74743257149E+03  0.74743257149E+03  0.00000000000E+00 0. -1.
          2    1    1    2  501    0 -0.14694175707E+03  0.37642562877E+02 -0.57794569795E+02  0.16232391940E+03  0.00000000000E+00 0.  1.
          1    1    1    2  502    0  0.61716718102E+02 -0.67832269993E+02 -0.60238358529E+03  0.60932434218E+03  0.00000000000E+00 0. -1.
         22    1    1    2    0    0  0.13510557589E+02  0.26812608026E+01 -0.21612420814E+02  0.25628520428E+02  0.00000000000E+00 0.  1.
         22    1    1    2    0    0  0.71714481378E+02  0.27508446314E+02  0.17882606402E+03  0.19462384908E+03  0.00000000000E+00 0.  1.
</event>
<event>
 6    1  0.2144783E-005  0.4620127E+02  0.7818608E-02  0.1554024E+00
          2   -1    0    0  502    0  0.00000000000E+00  0.00000000000E+00  0.83409507486E+02  0.83409507486E+02  0.00000000000E+00 0.  1.
          1   -1    0    0  501    0 -0.00000000000E+00 -0.00000000000E+00 -0.27780289093E+03  0.27780289093E+03  0.00000000000E+00 0.  1.
          2    1    1    2  501    0  0.47219981573E+02  0.23638932179E+02  0.30170592683E+02  0.60817681945E+02  0.00000000000E+00 0.  1.
          1    1    1    2  502    0 -0.23286577255E+02 -0.36093687990E+02 -0.15049105333E+03  0.15650104193E+03  0.00000000000E+00 0.  1.
         22    1    1    2    0    0  0.11192930381E+02  0.48514886664E+00  0.30733215988E+02  0.32711582428E+02  0.00000000000E+00 0.  1.
         22    1    1    2    0    0 -0.35126334700E+02  0.11969606944E+02 -0.10480613879E+03  0.11118209212E+03  0.00000000000E+00 0.  1.
</event>
<event>
 6    1  0.2144783E-005  0.1771059E+03  0.7818608E-02  0.1247100E+00
          2   -1    0    0  502    0  0.00000000000E+00  0.00000000000E+00  0.91432143912E+02  0.91432143912E+02  0.00000000000E+00 0. -1.
          1   -1    0    0  501    0 -0.00000000000E+00 -0.00000000000E+00 -0.41253248650E+03  0.41253248650E+03  0.00000000000E+00 0. -1.
          2    1    1    2  501    0  0.15269019437E+03  0.50070514203E+02 -0.17472678301E+03  0.23738323561E+03  0.00000000000E+00 0. -1.
          1    1    1    2  502    0 -0.46214775515E+02 -0.11864931403E+01 -0.10219924707E+02  0.47346173054E+02  0.00000000000E+00 0. -1.
         22    1    1    2    0    0 -0.15438937357E+02  0.30780869511E+02  0.33353108353E+01  0.34596922015E+02  0.00000000000E+00 0. -1.
         22    1    1    2    0    0 -0.91036481494E+02 -0.79664890573E+02 -0.13948894570E+03  0.18463829973E+03  0.00000000000E+00 0. -1.
</event>
<event>
 6    1  0.2144783E-005  0.2828062E+03  0.7818608E-02  0.1190550E+00
          2   -1    0    0  502    0  0.00000000000E+00  0.00000000000E+00  0.75356889848E+02  0.75356889848E+02  0.00000000000E+00 0.  1.
          1   -1    0    0  501    0 -0.00000000000E+00 -0.00000000000E+00 -0.11932857701E+04  0.11932857701E+04  0.00000000000E+00 0. -1.
          2    1    1    2  501    0 -0.12351799952E+02  0.24348834588E+03 -0.43048416710E+03  0.49472796532E+03  0.00000000000E+00 0.  1.
          1    1    1    2  502    0  0.61340216535E+02 -0.20039895698E+03 -0.44266402982E+03  0.48976913686E+03  0.00000000000E+00 0. -1.
         22    1    1    2    0    0 -0.43580299863E+02 -0.70369546402E+02 -0.24250487167E+03  0.25624154304E+03  0.00000000000E+00 0. -1.
         22    1    1    2    0    0 -0.54081167203E+01  0.27280157507E+02 -0.22758116755E+01  0.27904014744E+02  0.00000000000E+00 0. -1.
</event>
<event>
 6    1  0.2144783E-005  0.1582640E+03  0.7818608E-02  0.1233620E+00
          2   -1    0    0  502    0  0.00000000000E+00  0.00000000000E+00  0.90577760958E+02  0.90577760958E+02  0.00000000000E+00 0. -1.
          1   -1    0    0  501    0 -0.00000000000E+00 -0.00000000000E+00 -0.37918664079E+03  0.37918664079E+03  0.00000000000E+00 0. -1.
          2    1    1    2  501    0 -0.12546189964E+03  0.53447687461E+02 -0.12485126525E+03  0.18489235244E+03  0.00000000000E+00 0. -1.
          1    1    1    2  502    0  0.93790743214E+02 -0.33901111369E+02 -0.92021064414E+02  0.13569769770E+03  0.00000000000E+00 0. -1.
         22    1    1    2    0    0 -0.19700279404E+02 -0.60309424541E+02 -0.23068640480E+02  0.67509183602E+02  0.00000000000E+00 0. -1.
         22    1    1    2    0    0  0.51371435826E+02  0.40762848450E+02 -0.48667909687E+02  0.81665168008E+02  0.00000000000E+00 0. -1.
</event>
<event>
 6    1  0.2144783E-005  0.5024326E+02  0.7818608E-02  0.1492739E+00
          2   -1    0    0  502    0  0.00000000000E+00  0.00000000000E+00  0.11878614981E+03  0.11878614981E+03  0.00000000000E+00 0. -1.
          1   -1    0    0  501    0 -0.00000000000E+00 -0.00000000000E+00 -0.12178791893E+03  0.12178791893E+03  0.00000000000E+00 0. -1.
          2    1    1    2  501    0 -0.47167763545E+02  0.16133358380E+02 -0.25660145555E+02  0.56067158304E+02  0.00000000000E+00 0. -1.
          1    1    1    2  502    0  0.22044351429E+02 -0.64206957500E+01 -0.35590527613E+02  0.42354036639E+02  0.00000000000E+00 0. -1.
         22    1    1    2    0    0  0.59262931110E+01 -0.25669127061E+02 -0.36025081964E+02  0.44629940226E+02  0.00000000000E+00 0. -1.
         22    1    1    2    0    0  0.19197119005E+02  0.15956464431E+02  0.94273986008E+02  0.97522933575E+02  0.00000000000E+00 0. -1.
</event>
<event>
 6    1  0.2144783E-005  0.3874672E+02  0.7818608E-02  0.1536868E+00
          2   -1    0    0  502    0  0.00000000000E+00  0.00000000000E+00  0.18394433546E+03  0.18394433546E+03  0.00000000000E+00 0.  1.
          1   -1    0    0  501    0 -0.00000000000E+00 -0.00000000000E+00 -0.10861747311E+03  0.10861747311E+03  0.00000000000E+00 0.  1.
          2    1    1    2  501    0  0.36943947822E+02  0.50944305281E+01  0.64532163166E+02  0.74533271671E+02  0.00000000000E+00 0.  1.
          1    1    1    2  502    0 -0.34731338208E+02 -0.15209090976E+02 -0.63913899057E+02  0.74313987880E+02  0.00000000000E+00 0.  1.
         22    1    1    2    0    0  0.14134110742E+02 -0.20227507567E+02  0.98689053004E+02  0.10172735292E+03  0.00000000000E+00 0.  1.
         22    1    1    2    0    0 -0.16346720357E+02  0.30342168015E+02 -0.23980454757E+02  0.41987196104E+02  0.00000000000E+00 0. -1.
</event>
<event>
 6    1  0.2144783E-005  0.5233246E+02  0.7818608E-02  0.1435900E+00
          2   -1    0    0  502    0  0.00000000000E+00  0.00000000000E+00  0.22239998608E+03  0.22239998608E+03  0.00000000000E+00 0. -1.
          1   -1    0    0  501    0 -0.00000000000E+00 -0.00000000000E+00 -0.10095320966E+03  0.10095320966E+03  0.00000000000E+00 0.  1.
          2    1    1    2  501    0 -0.33614015531E+02  0.84480303875E+01  0.15420029960E+03  0.15804747279E+03  0.00000000000E+00 0. -1.
          1    1    1    2  502    0  0.20800265059E+02  0.25170959721E+01 -0.29498100072E+02  0.36181828402E+02  0.00000000000E+00 0.  1.
         22    1    1    2    0    0  0.28219709723E+02 -0.31512164427E+01 -0.61838981465E+02  0.68046614982E+02  0.00000000000E+00 0.  1.
         22    1    1    2    0    0 -0.15405959251E+02 -0.78139099169E+01  0.58583558361E+02  0.61077279564E+02  0.00000000000E+00 0.  1.
</event>
<event>
 6    1  0.2144783E-005  0.3808753E+02  0.7818608E-02  0.1590515E+00
          2   -1    0    0  502    0  0.00000000000E+00  0.00000000000E+00  0.13242394128E+03  0.13242394128E+03  0.00000000000E+00 0. -1.
          1   -1    0    0  501    0 -0.00000000000E+00 -0.00000000000E+00 -0.11225059819E+03  0.11225059819E+03  0.00000000000E+00 0.  1.
          2    1    1    2  501    0  0.54971435681E+02  0.24519317520E+02  0.34215654686E+02  0.69237032707E+02  0.00000000000E+00 0. -1.
          1    1    1    2  502    0 -0.42823557655E+02 -0.11749655298E+02 -0.22700974200E+02  0.49872294107E+02  0.00000000000E+00 0.  1.
         22    1    1    2    0    0  0.10636153558E+02 -0.92478780868E+00  0.63826749952E+02  0.64713499399E+02  0.00000000000E+00 0. -1.
         22    1    1    2    0    0 -0.22784031583E+02 -0.11844874413E+02 -0.55168087351E+02  0.60851713263E+02  0.00000000000E+00 0.  1.
</event>
<event>
 6    1  0.2144783E-005  0.7235777E+02  0.7818608E-02  0.1391940E+00
          2   -1    0    0  502    0  0.00000000000E+00  0.00000000000E+00  0.23592378445E+03  0.23592378445E+03  0.00000000000E+00 0. -1.
          1   -1    0    0  501    0 -0.00000000000E+00 -0.00000000000E+00 -0.24175249332E+03  0.24175249332E+03  0.00000000000E+00 0. -1.
          2    1    1    2  501    0 -0.12875226987E+03  0.11097757008E+03  0.40101872500E+02  0.17464629465E+03  0.00000000000E+00 0. -1.
          1    1    1    2  502    0  0.10310146892E+03 -0.13138052442E+03  0.82686087503E+01  0.16720982322E+03  0.00000000000E+00 0. -1.
         22    1    1    2    0    0  0.13776115100E+02 -0.88934383320E+01  0.36368522646E+02  0.39894160376E+02  0.00000000000E+00 0. -1.
         22    1    1    2    0    0  0.11874685844E+02  0.29296392668E+02 -0.90567712776E+02  0.95925999524E+02  0.00000000000E+00 0. -1.
</event>
<event>
 6    1  0.2144783E-005  0.1164205E+03  0.7818608E-02  0.1301004E+00
          2   -1    0    0  502    0  0.00000000000E+00  0.00000000000E+00  0.29739584387E+03  0.29739584387E+03  0.00000000000E+00 0.  1.
          1   -1    0    0  501    0 -0.00000000000E+00 -0.00000000000E+00 -0.35922144026E+03  0.35922144026E+03  0.00000000000E+00 0.  1.
          2    1    1    2  501    0  0.62883891717E+02 -0.59395605661E+02  0.25318326383E+03  0.26755183964E+03  0.00000000000E+00 0.  1.
          1    1    1    2  502    0  0.42470963788E+01 -0.37820063845E+02 -0.13847953996E+03  0.14361398973E+03  0.00000000000E+00 0.  1.
         22    1    1    2    0    0 -0.37366077852E+02  0.66160245154E+02 -0.18642227341E+03  0.20131235888E+03  0.00000000000E+00 0. -1.
         22    1    1    2    0    0 -0.29764910244E+02  0.31055424352E+02  0.98929531555E+01  0.44139095887E+02  0.00000000000E+00 0. -1.
</event>
<event>
 6    1  0.2144783E-005  0.1769112E+03  0.7818608E-02  0.1171583E+00
          2   -1    0    0  502    0  0.00000000000E+00  0.00000000000E+00  0.27997145065E+03  0.27997145065E+03  0.00000000000E+00 0.  1.
          1   -1    0    0  501    0 -0.00000000000E+00 -0.00000000000E+00 -0.41906721333E+03  0.41906721333E+03  0.00000000000E+00 0.  1.
          2    1    1    2  501    0 -0.15643561825E+03  0.30452487228E+02  0.20265578814E+03  0.25781548654E+03  0.00000000000E+00 0.  1.
          1    1    1    2  502    0  0.13660445278E+03 -0.25734039095E+02 -0.25623709801E+03  0.29151409517E+03  0.00000000000E+00 0.  1.
         22    1    1    2    0    0  0.31879096557E+02 -0.10483611018E+02 -0.11368393273E+03  0.11853362164E+03  0.00000000000E+00 0.  1.
         22    1    1    2    0    0 -0.12047931082E+02  0.57651628858E+01  0.28169479917E+02  0.31175460627E+02  0.00000000000E+00 0.  1.
</event>
<event>
 6    1  0.2144783E-005  0.4889364E+02  0.7818608E-02  0.1503176E+00
          2   -1    0    0  502    0  0.00000000000E+00  0.00000000000E+00  0.17785668880E+03  0.17785668880E+03  0.00000000000E+00 0.  1.
          1   -1    0    0  501    0 -0.00000000000E+00 -0.00000000000E+00 -0.18707589134E+03  0.18707589134E+03  0.00000000000E+00 0.  1.
          2    1    1    2  501    0 -0.40912673087E+02  0.58567678993E+02 -0.13338088350E+02  0.72676849427E+02  0.00000000000E+00 0.  1.
          1    1    1    2  502    0  0.55302511940E+02  0.47269932880E+01 -0.10403734153E+03  0.11791726220E+03  0.00000000000E+00 0.  1.
         22    1    1    2    0    0 -0.39345268615E+01 -0.20835860347E+02 -0.25817725961E+02  0.33409108815E+02  0.00000000000E+00 0. -1.
         22    1    1    2    0    0 -0.10455311992E+02 -0.42458811934E+02  0.13397395330E+03  0.14092935969E+03  0.00000000000E+00 0.  1.
</event>
<event>
 6    1  0.2144783E-005  0.4582607E+02  0.7818608E-02  0.1523221E+00
          2   -1    0    0  502    0  0.00000000000E+00  0.00000000000E+00  0.11550042543E+03  0.11550042543E+03  0.00000000000E+00 0. -1.
          1   -1    0    0  501    0 -0.00000000000E+00 -0.00000000000E+00 -0.12065635003E+03  0.12065635003E+03  0.00000000000E+00 0. -1.
          2    1    1    2  501    0 -0.43440252195E+02 -0.28578216782E+02  0.16714396899E+02  0.54618138461E+02  0.00000000000E+00 0. -1.
          1    1    1    2  502    0  0.24989333699E+02  0.47846750463E+02 -0.17485456862E+02  0.56740810096E+02  0.00000000000E+00 0. -1.
         22    1    1    2    0    0  0.23808057780E+02 -0.39017075434E+02 -0.54226008624E+02  0.70919784278E+02  0.00000000000E+00 0. -1.
         22    1    1    2    0    0 -0.53571392851E+01  0.19748541753E+02  0.49841143986E+02  0.53878042620E+02  0.00000000000E+00 0. -1.
</event>
<event>
 6    1  0.2144783E-005  0.9101480E+02  0.7818608E-02  0.1327747E+00
          2   -1    0    0  502    0  0.00000000000E+00  0.00000000000E+00  0.88037132041E+03  0.88037132041E+03  0.00000000000E+00 0. -1.
          1   -1    0    0  501    0 -0.00000000000E+00 -0.00000000000E+00 -0.67554808062E+02  0.67554808062E+02  0.00000000000E+00 0. -1.
          2    1    1    2  501    0 -0.66823946999E+02 -0.18148112007E+02 -0.34787623376E+02  0.77491758285E+02  0.00000000000E+00 0. -1.
          1    1    1    2  502    0  0.51246023192E+02  0.19374731710E+02  0.42240527914E+03  0.42594337061E+03  0.00000000000E+00 0. -1.
         22    1    1    2    0    0  0.67214456811E+02 -0.21821931611E+02  0.28600589942E+03  0.29460711873E+03  0.00000000000E+00 0. -1.
         22    1    1    2    0    0 -0.51636533004E+02  0.20595311908E+02  0.13919295716E+03  0.14988388084E+03  0.00000000000E+00 0. -1.
</event>
<event>
 6    1  0.2144783E-005  0.1352690E+03  0.7818608E-02  0.1298236E+00
          2   -1    0    0  502    0  0.00000000000E+00  0.00000000000E+00  0.31473406134E+03  0.31473406134E+03  0.00000000000E+00 0.  1.
          1   -1    0    0  501    0 -0.00000000000E+00 -0.00000000000E+00 -0.27851853700E+03  0.27851853700E+03  0.00000000000E+00 0.  1.
          2    1    1    2  501    0 -0.98016277679E+02 -0.10249627320E+03 -0.63355012328E+02  0.15532718467E+03  0.00000000000E+00 0.  1.
          1    1    1    2  502    0  0.18990083363E+03  0.14367013936E+03 -0.21541533784E+02  0.23909720457E+03  0.00000000000E+00 0.  1.
         22    1    1    2    0    0 -0.18893572755E+01  0.23353127297E+02 -0.11467281132E+02  0.26085182806E+02  0.00000000000E+00 0.  1.
         22    1    1    2    0    0 -0.89995198672E+02 -0.64526993460E+02  0.13257935158E+03  0.17274302629E+03  0.00000000000E+00 0. -1.
</event>
<event>
 6    1  0.2144783E-005  0.8478472E+02  0.7818608E-02  0.1317480E+00
          2   -1    0    0  502    0  0.00000000000E+00  0.00000000000E+00  0.20395743671E+03  0.20395743671E+03  0.00000000000E+00 0.  1.
          1   -1    0    0  501    0 -0.00000000000E+00 -0.00000000000E+00 -0.73081289652E+03  0.73081289652E+03  0.00000000000E+00 0. -1.
          2    1    1    2  501    0  0.63549427382E+02 -0.19482314941E+02  0.14084254236E+03  0.15573924379E+03  0.00000000000E+00 0.  1.
          1    1    1    2  502    0 -0.63917532924E+02  0.26286100510E+02 -0.65130731140E+03  0.65496383410E+03  0.00000000000E+00 0. -1.
         22    1    1    2    0    0 -0.87691995674E+01  0.83323390026E+01 -0.68230954701E+02  0.69294948688E+02  0.00000000000E+00 0. -1.
         22    1    1    2    0    0  0.91373051093E+01 -0.15136124571E+02  0.51840263933E+02  0.54772306655E+02  0.00000000000E+00 0.  1.
</event>
<event>
 6    1  0.2144783E-005  0.9633484E+02  0.7818608E-02  0.1370526E+00
          2   -1    0    0  502    0  0.00000000000E+00  0.00000000000E+00  0.32589209222E+03  0.32589209222E+03  0.00000000000E+00 0. -1.
          1   -1    0    0  501    0 -0.00000000000E+00 -0.00000000000E+00 -0.38677500762E+03  0.38677500762E+03  0.00000000000E+00 0.  1.
          2    1    1    2  501    0 -0.16122939169E+03 -0.22962910999E+02  0.19678429392E+03  0.25543349499E+03  0.00000000000E+00 0. -1.
          1    1    1    2  502    0  0.17958098803E+03 -0.36473786324E+02 -0.25496042668E+03  0.31398166750E+03  0.00000000000E+00 0.  1.
         22    1    1    2    0    0 -0.73380277919E+01  0.53211049984E+02 -0.62341220734E+02  0.82290280683E+02  0.00000000000E+00 0.  1.
         22    1    1    2    0    0 -0.11013568547E+02  0.62256473396E+01  0.59634438098E+02  0.60961656672E+02  0.00000000000E+00 0.  1.
</event>
<event>
 6    1  0.2144783E-005  0.6997956E+02  0.7818608E-02  0.1413071E+00
          2   -1    0    0  502    0  0.00000000000E+00  0.00000000000E+00  0.38542943917E+03  0.38542943917E+03  0.00000000000E+00 0. -1.
          1   -1    0    0  501    0 -0.00000000000E+00 -0.00000000000E+00 -0.17727718107E+03  0.17727718107E+03  0.00000000000E+00 0.  1.
          2    1    1    2  501    0 -0.48388711960E+02 -0.41769991430E+02  0.80680487382E+02  0.10293464273E+03  0.00000000000E+00 0. -1.
          1    1    1    2  502    0  0.10948976180E+03  0.28794640484E+02 -0.12570952399E+03  0.16917453615E+03  0.00000000000E+00 0.  1.
         22    1    1    2    0    0 -0.49430825205E+02 -0.47012489422E+01  0.26271721234E+03  0.26736836365E+03  0.00000000000E+00 0. -1.
         22    1    1    2    0    0 -0.11670224636E+02  0.17676599888E+02 -0.95359176342E+01  0.23229077721E+02  0.00000000000E+00 0. -1.
</event>
<event>
 6    1  0.2144783E-005  0.8621750E+02  0.7818608E-02  0.1362674E+00
          2   -1    0    0  502    0  0.00000000000E+00  0.00000000000E+00  0.48212495301E+02  0.48212495301E+02  0.00000000000E+00 0.  1.
          1   -1    0    0  501    0 -0.00000000000E+00 -0.00000000000E+00 -0.40088064396E+03  0.40088064396E+03  0.00000000000E+00 0. -1.
          2    1    1    2  501    0  0.27507129578E+02  0.71329782104E+02 -0.26521793115E+02  0.80919623718E+02  0.00000000000E+00 0.  1.
          1    1    1    2  502    0  0.16534590818E+02 -0.12065129039E+02 -0.57529836733E+02  0.61062608418E+02  0.00000000000E+00 0. -1.
         22    1    1    2    0    0 -0.87416407350E+01 -0.65669126712E+02 -0.26248278804E+03  0.27071399022E+03  0.00000000000E+00 0. -1.
         22    1    1    2    0    0 -0.35300079661E+02  0.64044736470E+01 -0.61337307724E+01  0.36396916902E+02  0.00000000000E+00 0.  1.
</event>
<event>
 6    1  0.2144783E-005  0.4977518E+02  0.7818608E-02  0.1534445E+00
          2   -1    0    0  502    0  0.00000000000E+00  0.00000000000E+00  0.43335217435E+02  0.43335217435E+02  0.00000000000E+00 0.  1.
          1   -1    0    0  501    0 -0.00000000000E+00 -0.00000000000E+00 -0.26010409263E+03  0.26010409263E+03  0.00000000000E+00 0. -1.
          2    1    1    2  501    0  0.25356145523E+02 -0.19943579971E+02 -0.11220333755E+02  0.34155180975E+02  0.00000000000E+00 0.  1.
          1    1    1    2  502    0 -0.25060489346E+02  0.53093624644E+01 -0.11386526875E+03  0.11671125432E+03  0.00000000000E+00 0. -1.
         22    1    1    2    0    0 -0.11267481604E+02  0.24304690929E+02 -0.11878947257E+03  0.12177279227E+03  0.00000000000E+00 0. -1.
         22    1    1    2    0    0  0.10971825427E+02 -0.96704734221E+01  0.27106199892E+02  0.30800082499E+02  0.00000000000E+00 0.  1.
</event>
<event>
 6    1  0.2144783E-005  0.1529940E+03  0.7818608E-02  0.1276520E+00
          2   -1    0    0  502    0  0.00000000000E+00  0.00000000000E+00  0.43135319633E+03  0.43135319633E+03  0.00000000000E+00 0. -1.
          1   -1    0    0  501    0 -0.00000000000E+00 -0.00000000000E+00 -0.68887651363E+03  0.68887651363E+03  0.00000000000E+00 0.  1.
          2    1    1    2  501    0  0.13231026594E+03  0.91388131135E+02  0.36743354254E+03  0.40108004833E+03  0.00000000000E+00 0. -1.
          1    1    1    2  502    0 -0.67786084009E+02 -0.85177340602E+02 -0.54117381166E+03  0.55201379236E+03  0.00000000000E+00 0.  1.
         22    1    1    2    0    0 -0.28180501834E+02  0.10317918222E+02  0.32472151959E+02  0.44215843008E+02  0.00000000000E+00 0. -1.
         22    1    1    2    0    0 -0.36343680097E+02 -0.16528708755E+02 -0.11625520014E+03  0.12292002626E+03  0.00000000000E+00 0.  1.
</event>
<event>
 6    1  0.2144783E-005  0.5395321E+02  0.7818608E-02  0.1518488E+00
          2   -1    0    0  502    0  0.00000000000E+00  0.00000000000E+00  0.55897719334E+02  0.55897719334E+02  0.00000000000E+00 0.  1.
          1   -1    0    0  501    0 -0.00000000000E+00 -0.00000000000E+00 -0.26825731404E+03  0.26825731404E+03  0.00000000000E+00 0. -1.
          2    1    1    2  501    0 -0.39898998687E+02  0.26425546052E+02 -0.25183482715E+02  0.54078159936E+02  0.00000000000E+00 0.  1.
          1    1    1    2  502    0  0.44779880162E+02  0.26181198661E+02 -0.75133048356E+02  0.91299878346E+02  0.00000000000E+00 0. -1.
         22    1    1    2    0    0  0.88936245930E+01  0.11056259222E+02  0.24036170077E+02  0.27911913198E+02  0.00000000000E+00 0.  1.
         22    1    1    2    0    0 -0.13774506068E+02 -0.63663003936E+02 -0.13607923371E+03  0.15086508190E+03  0.00000000000E+00 0. -1.
</event>
<event>
 6    1  0.2144783E-005  0.2631842E+03  0.7818608E-02  0.1227149E+00
          2   -1    0    0  502    0  0.00000000000E+00  0.00000000000E+00  0.36990769724E+03  0.36990769724E+03  0.00000000000E+00 0.  1.
          1   -1    0    0  501    0 -0.00000000000E+00 -0.00000000000E+00 -0.41254751096E+03  0.41254751096E+03  0.00000000000E+00 0. -1.
          2    1    1    2  501    0 -0.19226783054E+03  0.15716619108E+03  0.16096233022E+03  0.29593411772E+03  0.00000000000E+00 0.  1.
          1    1    1    2  502    0  0.17848804048E+03 -0.15992665933E+03 -0.25329668870E+03  0.34870292437E+03  0.00000000000E+00 0. -1.
         22    1    1    2    0    0 -0.93463926712E+01  0.12698411614E+02  0.89414561823E+02  0.90794099916E+02  0.00000000000E+00 0.  1.
         22    1    1    2    0    0  0.23126182730E+02 -0.99379433641E+01 -0.39720017072E+02  0.47024066202E+02  0.00000000000E+00 0. -1.
</event>
<event>
 6    1  0.2144783E-005  0.3738297E+02  0.7818608E-02  0.1570816E+00
          2   -1    0    0  502    0  0.00000000000E+00  0.00000000000E+00  0.37129282710E+03  0.37129282710E+03  0.00000000000E+00 0. -1.
          1   -1    0    0  501    0 -0.00000000000E+00 -0.00000000000E+00 -0.13992322794E+03  0.13992322794E+03  0.00000000000E+00 0. -1.
          2    1    1    2  501    0  0.31292566637E+02 -0.25829103288E+02  0.25379054425E+03  0.25701363320E+03  0.00000000000E+00 0. -1.
          1    1    1    2  502    0 -0.38897341062E+02  0.15696727013E+02 -0.95700990119E+02  0.10448956833E+03  0.00000000000E+00 0. -1.
         22    1    1    2    0    0  0.17123570587E+02  0.24227035311E+02  0.10748960198E+03  0.11150865636E+03  0.00000000000E+00 0. -1.
         22    1    1    2    0    0 -0.95187961625E+01 -0.14094659037E+02 -0.34209556942E+02  0.38204197151E+02  0.00000000000E+00 0.  1.
</event>
<event>
 6    1  0.2144783E-005  0.3637495E+02  0.7818608E-02  0.1621461E+00
          2   -1    0    0  502    0  0.00000000000E+00  0.00000000000E+00  0.36203703412E+02  0.36203703412E+02  0.00000000000E+00 0.  1.
          1   -1    0    0  501    0 -0.00000000000E+00 -0.00000000000E+00 -0.48896589931E+03  0.48896589931E+03  0.00000000000E+00 0.  1.
          2    1    1    2  501    0 -0.48693533978E+02 -0.22091619541E+02 -0.76446015786E+02  0.93290370536E+02  0.00000000000E+00 0.  1.
          1    1    1    2  502    0  0.13695586652E+02  0.36981581137E+02 -0.25137068970E+03  0.25444533809E+03  0.00000000000E+00 0.  1.
         22    1    1    2    0    0  0.26007800493E+02 -0.10100000006E+02 -0.14885380588E+03  0.15144593495E+03  0.00000000000E+00 0. -1.
         22    1    1    2    0    0  0.89901468330E+01 -0.47899615891E+01  0.23908315468E+02  0.25987959147E+02  0.00000000000E+00 0.  1.
</event>
<event>
 6    1  0.2144783E-005  0.4657790E+02  0.7818608E-02  0.1541738E+00
          2   -1    0    0  502    0  0.00000000000E+00  0.00000000000E+00  0.25650834199E+03  0.25650834199E+03  0.00000000000E+00 0. -1.
          1   -1    0    0  501    0 -0.00000000000E+00 -0.00000000000E+00 -0.80657777676E+02  0.80657777676E+02  0.00000000000E+00 0.  1.
          2    1    1    2  501    0  0.28572241019E+02 -0.69711677016E+02  0.28293654758E+02  0.80477461247E+02  0.00000000000E+00 0. -1.
          1    1    1    2  502    0  0.16458347513E+02  0.39801315407E+02 -0.14064297349E+02  0.45308126985E+02  0.00000000000E+00 0.  1.
         22    1    1    2    0    0 -0.37538653918E+02  0.17398337783E+02  0.18181951075E+03  0.18646765721E+03  0.00000000000E+00 0. -1.
         22    1    1    2    0    0 -0.74919346142E+01  0.12512023826E+02 -0.20198303839E+02  0.24912874231E+02  0.00000000000E+00 0.  1.
</event>
<event>
 6    1  0.2144783E-005  0.4129973E+02  0.7818608E-02  0.1523650E+00
          2   -1    0    0  502    0  0.00000000000E+00  0.00000000000E+00  0.54809981639E+03  0.54809981639E+03  0.00000000000E+00 0. -1.
          1   -1    0    0  501    0 -0.00000000000E+00 -0.00000000000E+00 -0.55904409045E+02  0.55904409045E+02  0.00000000000E+00 0. -1.
          2    1    1    2  501    0 -0.10260938463E+02 -0.71897441626E+02  0.42043123331E+03  0.42665788510E+03  0.00000000000E+00 0. -1.
          1    1    1    2  502    0  0.11314455344E+02  0.32257538162E+02  0.63902417951E+01  0.34776441137E+02  0.00000000000E+00 0. -1.
         22    1    1    2    0    0  0.20224476219E+02  0.13194663517E+02 -0.31632684329E+02  0.39796423226E+02  0.00000000000E+00 0. -1.
         22    1    1    2    0    0 -0.21277993100E+02  0.26445239947E+02  0.97006616564E+02  0.10277347597E+03  0.00000000000E+00 0. -1.
</event>
<event>
 6    1  0.2144783E-005  0.1880520E+03  0.7818608E-02  0.1275797E+00
          2   -1    0    0  502    0  0.00000000000E+00  0.00000000000E+00  0.11644233109E+03  0.11644233109E+03  0.00000000000E+00 0.  1.
          1   -1    0    0  501    0 -0.00000000000E+00 -0.00000000000E+00 -0.60879993870E+03  0.60879993870E+03  0.00000000000E+00 0. -1.
          2    1    1    2  501    0 -0.13080974073E+03 -0.12046695718E+03 -0.33475865326E+02  0.18095333543E+03  0.00000000000E+00 0.  1.
          1    1    1    2  502    0  0.11966658124E+03  0.82489483490E+02 -0.34235776728E+03  0.37193204536E+03  0.00000000000E+00 0. -1.
         22    1    1    2    0    0 -0.15826260938E+02  0.42451986840E+01  0.21900318602E+02  0.27351712963E+02  0.00000000000E+00 0.  1.
         22    1    1    2    0    0  0.26969420430E+02  0.33732275010E+02 -0.13842429361E+03  0.14500517604E+03  0.00000000000E+00 0. -1.
</event>
<event>
 6    1  0.2144783E-005  0.1231037E+03  0.7818608E-02  0.1358408E+00
          2   -1    0    0  502    0  0.00000000000E+00  0.00000000000E+00  0.13326527236E+03  0.13326527236E+03  0.00000000000E+00 0.  1.
          1   -1    0    0  501    0 -0.00000000000E+00 -0.00000000000E+00 -0.38512434090E+03  0.38512434090E+03  0.00000000000E+00 0.  1.
          2    1    1    2  501    0 -0.70425353405E+02  0.27254379886E+02  0.90728844355E+02  0.11804344464E+03  0.00000000000E+00 0.  1.
          1    1    1    2  502    0 -0.47966377213E+01 -0.51094717011E+02 -0.12436692781E+03  0.13453925290E+03  0.00000000000E+00 0.  1.
         22    1    1    2    0    0  0.57014703864E+01  0.11949514871E+02  0.16248143075E+02  0.20959480519E+02  0.00000000000E+00 0.  1.
         22    1    1    2    0    0  0.69520520740E+02  0.11890822253E+02 -0.23446912816E+03  0.24484743519E+03  0.00000000000E+00 0.  1.
</event>
<event>
 6    1  0.2144783E-005  0.8907696E+02  0.7818608E-02  0.1351861E+00
          2   -1    0    0  502    0  0.00000000000E+00  0.00000000000E+00  0.91942281599E+02  0.91942281599E+02  0.00000000000E+00 0. -1.
          1   -1    0    0  501    0 -0.00000000000E+00 -0.00000000000E+00 -0.45208146637E+03  0.45208146637E+03  0.00000000000E+00 0. -1.
          2    1    1    2  501    0  0.57238852064E+02  0.94188183205E+02  0.32637928864E+02  0.11494752908E+03  0.00000000000E+00 0. -1.
          1    1    1    2  502    0 -0.11404688411E+02 -0.20645241635E+02 -0.48286487700E+02  0.53738978538E+02  0.00000000000E+00 0. -1.
         22    1    1    2    0    0 -0.33476556239E+02 -0.20092750680E+02 -0.15831903053E+02  0.42131313791E+02  0.00000000000E+00 0. -1.
         22    1    1    2    0    0 -0.12357607415E+02 -0.53450190890E+02 -0.32865872289E+03  0.33320592656E+03  0.00000000000E+00 0. -1.
</event>
<event>
 6    1  0.2144783E-005  0.1650152E+03  0.7818608E-02  0.1228430E+00
          2   -1    0    0  502    0  0.00000000000E+00  0.00000000000E+00  0.60617363891E+03  0.60617363891E+03  0.00000000000E+00 0. -1.
          1   -1    0    0  501    0 -0.00000000000E+00 -0.00000000000E+00 -0.14139822706E+03  0.14139822706E+03  0.00000000000E+00 0. -1.
          2    1    1    2  501    0  0.16728062187E+03 -0.42739820863E+02  0.38761361442E+03  0.42432748299E+03  0.00000000000E+00 0. -1.
          1    1    1    2  502    0 -0.39896510957E+02  0.90902973355E+01  0.12801664473E+03  0.13439727088E+03  0.00000000000E+00 0. -1.
         22    1    1    2    0    0 -0.10918140734E+03  0.41671343075E+02 -0.88282890219E+02  0.14646142580E+03  0.00000000000E+00 0. -1.
         22    1    1    2    0    0 -0.18202703574E+02 -0.80218195482E+01  0.37428042913E+02  0.42385686294E+02  0.00000000000E+00 0. -1.
</event>
<event>
 6    1  0.2144783E-005  0.1145182E+03  0.7818608E-02  0.1342401E+00
          2   -1    0    0  502    0  0.00000000000E+00  0.00000000000E+00  0.33078800865E+03  0.33078800865E+03  0.00000000000E+00 0.  1.
          1   -1    0    0  501    0 -0.00000000000E+00 -0.00000000000E+00 -0.93752232662E+02  0.93752232662E+02  0.00000000000E+00 0.  1.
          2    1    1    2  501    0 -0.11663021142E+03 -0.27494534764E+02  0.58069599318E+02  0.13315642689E+03  0.00000000000E+00 0.  1.
          1    1    1    2  502    0  0.42644153976E+02 -0.51235993164E+02  0.61131243017E+02  0.90447110162E+02  0.00000000000E+00 0.  1.
         22    1    1    2    0    0  0.71804547296E+02  0.10022876049E+03  0.12741219912E+03  0.17730077813E+03  0.00000000000E+00 0.  1.
         22    1    1    2    0    0  0.21815101494E+01 -0.21498232563E+02 -0.95772654674E+01  0.23635926123E+02  0.00000000000E+00 0. -1.
</event>
<event>
 6    1  0.2144783E-005  0.1223320E+03  0.7818608E-02  0.1307972E+00
          2   -1    0    0  502    0  0.00000000000E+00  0.00000000000E+00  0.14068922193E+03  0.14068922193E+03  0.00000000000E+00 0.  1.
          1   -1    0    0  501    0 -0.00000000000E+00 -0.00000000000E+00 -0.48033482298E+03  0.48033482298E+03  0.00000000000E+00 0.  1.
          2    1    1    2  501    0 -0.11942766879E+03  0.33429801822E+02 -0.15496132201E+03  0.19847803667E+03  0.00000000000E+00 0.  1.
          1    1    1    2  502    0  0.11098769131E+03  0.40554847245E+01 -0.25482463269E+03  0.27797537302E+03  0.00000000000E+00 0.  1.
         22    1    1    2    0    0  0.90890439398E+01 -0.48552104414E+01 -0.33952296266E+02  0.35481575640E+02  0.00000000000E+00 0.  1.
         22    1    1    2    0    0 -0.64906645843E+00 -0.32630076105E+02  0.10409264991E+03  0.10908905958E+03  0.00000000000E+00 0.  1.
</event>
<event>
 6    1  0.2144783E-005  0.1259953E+03  0.7818608E-02  0.1356083E+00
          2   -1    0    0  502    0  0.00000000000E+00  0.00000000000E+00  0.21263017128E+03  0.21263017128E+03  0.00000000000E+00 0. -1.
          1   -1    0    0  501    0 -0.00000000000E+00 -0.00000000000E+00 -0.82307651948E+02  0.82307651948E+02  0.00000000000E+00 0. -1.
          2    1    1    2  501    0  0.66529207462E+01 -0.80909552685E+02  0.31756930035E+02  0.87172929716E+02  0.00000000000E+00 0. -1.
          1    1    1    2  502    0  0.96607028188E+01  0.29273601246E+02  0.53435883844E+02  0.61690085030E+02  0.00000000000E+00 0. -1.
         22    1    1    2    0    0 -0.15133649725E+02  0.64425208825E+02 -0.27976274255E+02  0.71849194897E+02  0.00000000000E+00 0. -1.
         22    1    1    2    0    0 -0.11799738396E+01 -0.12789257386E+02  0.73105979712E+02  0.74225613588E+02  0.00000000000E+00 0. -1.
</event>
<event>
 6    1  0.2144783E-005  0.9451213E+02  0.7818608E-02  0.1306453E+00
          2   -1    0    0  502    0  0.00000000000E+00  0.00000000000E+00  0.53886864669E+02  0.53886864669E+02  0.00000000000E+00 0. -1.
          1   -1    0    0  501    0 -0.00000000000E+00 -0.00000000000E+00 -0.93912948494E+03  0.93912948494E+03  0.00000000000E+00 0. -1.
          2    1    1    2  501    0  0.35964934935E+02  0.33919972085E+02 -0.69422010409E+03  0.69597815625E+03  0.00000000000E+00 0. -1.
          1    1    1    2  502    0 -0.45232455537E+02 -0.81276797638E+02 -0.73216592037E+02  0.11837466882E+03  0.00000000000E+00 0. -1.
         22    1    1    2    0    0 -0.43902456944E+02 -0.23096938519E+01 -0.91109674016E+02  0.10116191532E+03  0.00000000000E+00 0. -1.
         22    1    1    2    0    0  0.53169977546E+02  0.49666519405E+02 -0.26696250132E+02  0.77501609230E+02  0.00000000000E+00 0.  1.
</event>
<event>
 6    1  0.2144783E-005  0.2466446E+03  0.7818608E-02  0.1159269E+00
          2   -1    0    0  502    0  0.00000000000E+00  0.00000000000E+00  0.14765475594E+04  0.14765475594E+04  0.00000000000E+00 0. -1.
          1   -1    0    0  501    0 -0.00000000000E+00 -0.00000000000E+00 -0.54520295262E+02  0.54520295262E+02  0.00000000000E+00 0. -1.
          2    1    1    2  501    0  0.21088049142E+03  0.36901089898E+02  0.29888136517E+03  0.36764431526E+03  0.00000000000E+00 0. -1.
          1    1    1    2  502    0 -0.65416039272E+02 -0.80128880995E+02  0.44523710379E+03  0.45709514803E+03  0.00000000000E+00 0. -1.
         22    1    1    2    0    0 -0.63907973786E+02  0.68000653286E+02  0.19774750899E+03  0.21866045658E+03  0.00000000000E+00 0. -1.
         22    1    1    2    0    0 -0.81556478366E+02 -0.24772862190E+02  0.48016128623E+03  0.48766793483E+03  0.00000000000E+00 0.  1.
</event>
<event>
 6    1  0.2144783E-005  0.8698006E+02  0.7818608E-02  0.1310604E+00
          2   -1    0    0  502    0  0.00000000000E+00  0.00000000000E+00  0.12600955863E+03  0.12600955863E+03  0.00000000000E+00 0. -1.
          1   -1    0    0  501    0 -0.00000000000E+00 -0.00000000000E+00 -0.29456437002E+03  0.29456437002E+03  0.00000000000E+00 0. -1.
          2    1    1    2  501    0  0.11485891781E+02  0.70296047074E+02  0.84581129615E+02  0.11057769862E+03  0.00000000000E+00 0. -1.
          1    1    1    2  502    0 -0.11196589435E+02 -0.37508688539E+02 -0.95782111527E+02  0.10347211325E+03  0.00000000000E+00 0. -1.
         22    1    1    2    0    0  0.94517029613E+01  0.12058650842E+02  0.18936465387E+02  0.24358478408E+02  0.00000000000E+00 0.  1.
         22    1    1    2    0    0 -0.97410053071E+01 -0.44846009377E+02 -0.17629029487E+03  0.18216563838E+03  0.00000000000E+00 0. -1.
</event>
<event>
 6    1  0.2144783E-005  0.8036043E+02  0.7818608E-02  0.1418263E+00
          2   -1    0    0  502    0  0.00000000000E+00  0.00000000000E+00  0.12828754839E+03  0.12828754839E+03  0.00000000000E+00 0. -1.
          1   -1    0    0  501    0 -0.00000000000E+00 -0.00000000000E+00 -0.20195810548E+03  0.20195810548E+03  0.00000000000E+00 0.  1.
          2    1    1    2  501    0  0.76144373108E+02 -0.44602810597E+02 -0.21327326903E+02  0.90786734394E+02  0.00000000000E+00 0. -1.
          1    1    1    2  502    0 -0.51302657302E+02  0.25149707057E+02 -0.89684321755E+02  0.10633789531E+03  0.00000000000E+00 0.  1.
         22    1    1    2    0    0 -0.19852374048E+02  0.20143459029E+01 -0.44777834422E+02  0.49022737584E+02  0.00000000000E+00 0.  1.
         22    1    1    2    0    0 -0.49893417576E+01  0.17438757638E+02  0.82118925995E+02  0.84098286580E+02  0.00000000000E+00 0. -1.
</event>
<event>
 6    1  0.2144783E-005  0.1155602E+03  0.7818608E-02  0.1304277E+00
          2   -1    0    0  502    0  0.00000000000E+00  0.00000000000E+00  0.24385186526E+02  0.24385186526E+02  0.00000000000E+00 0. -1.
          1   -1    0    0  501    0 -0.00000000000E+00 -0.00000000000E+00 -0.11331587763E+04  0.11331587763E+04  0.00000000000E+00 0. -1.
          2    1    1    2  501    0  0.69515339517E+02 -0.61009010505E+02 -0.24686288993E+03  0.26362050037E+03  0.00000000000E+00 0. -1.
          1    1    1    2  502    0  0.14503418843E+02  0.55667894003E+02 -0.48877673088E+03  0.49215033905E+03  0.00000000000E+00 0. -1.
         22    1    1    2    0    0 -0.50028463886E+02  0.29008596043E+02 -0.34915986098E+03  0.35391659238E+03  0.00000000000E+00 0. -1.
         22    1    1    2    0    0 -0.33990294474E+02 -0.23667479540E+02 -0.23974107954E+02  0.47856530990E+02  0.00000000000E+00 0. -1.
</event>
<event>
 6    1  0.2144783E-005  0.3231330E+02  0.7818608E-02  0.1577543E+00
          2   -1    0    0  502    0  0.00000000000E+00  0.00000000000E+00  0.71783935392E+02  0.71783935392E+02  0.00000000000E+00 0. -1.
          1   -1    0    0  501    0 -0.00000000000E+00 -0.00000000000E+00 -0.96825665274E+03  0.96825665274E+03  0.00000000000E+00 0.  1.
          2    1    1    2  501    0 -0.46968088384E+02 -0.30881119182E+02 -0.16787659961E+02  0.58664046701E+02  0.00000000000E+00 0. -1.
          1    1    1    2  502    0  0.57607268642E+02  0.95379590971E+01 -0.84485726600E+03  0.84687269999E+03  0.00000000000E+00 0.  1.
         22    1    1    2    0    0 -0.14702382474E+02  0.65244950465E+01  0.47813295632E+02  0.50446410430E+02  0.00000000000E+00 0. -1.
         22    1    1    2    0    0  0.40632022152E+01  0.14818665038E+02 -0.82641087014E+02  0.84057431013E+02  0.00000000000E+00 0.  1.
</event>
<event>
 6    1  0.2144783E-005  0.6192317E+02  0.7818608E-02  0.1418561E+00
          2   -1    0    0  502    0  0.00000000000E+00  0.00000000000E+00  0.11741485144E+03  0.11741485144E+03  0.00000000000E+00 0.  1.
          1   -1    0    0  501    0 -0.00000000000E+00 -0.00000000000E+00 -0.26411407812E+03  0.26411407812E+03  0.00000000000E+00 0.  1.
          2    1    1    2  501    0 -0.29114733213E+02 -0.56742092725E+01 -0.42292936392E+01  0.29962497653E+02  0.00000000000E+00 0.  1.
          1    1    1    2  502    0 -0.84268233284E+00  0.50539747336E+02 -0.19527891239E+03  0.20171472380E+03  0.00000000000E+00 0.  1.
         22    1    1    2    0    0  0.10718951367E+02 -0.10411478632E+02 -0.43380687629E+02  0.45882228203E+02  0.00000000000E+00 0.  1.
         22    1    1    2    0    0  0.19238464179E+02 -0.34454059432E+02  0.96189666988E+02  0.10396947990E+03  0.00000000000E+00 0.  1.
</event>
<event>
 6    1  0.2144783E-005  0.5569633E+02  0.7818608E-02  0.1454411E+00
          2   -1    0    0  502    0  0.00000000000E+00  0.00000000000E+00  0.41541224297E+03  0.41541224297E+03  0.00000000000E+00 0.  1.
          1   -1    0    0  501    0 -0.00000000000E+00 -0.00000000000E+00 -0.32318389288E+02  0.32318389288E+02  0.00000000000E+00 0.  1.
          2    1    1    2  501    0 -0.29929445267E+02  0.15496122862E+02  0.13227809117E+03  0.13650419379E+03  0.00000000000E+00 0.  1.
          1    1    1    2  502    0  0.25419181900E+02 -0.44555838889E+02  0.92450120625E+02  0.10572786951E+03  0.00000000000E+00 0.  1.
         22    1    1    2    0    0 -0.38977860817E+01 -0.31407813831E+02  0.13732554461E+03  0.14092533026E+03  0.00000000000E+00 0. -1.
         22    1    1    2    0    0  0.84080494487E+01  0.60467529859E+02  0.21040097273E+02  0.64573238699E+02  0.00000000000E+00 0.  1.
</event>
<event>
 6    1  0.2144783E-005  0.1029266E+03  0.7818608E-02  0.1339789E+00
          2   -1    0    0  502    0  0.00000000000E+00  0.00000000000E+00  0.25882906308E+03  0.25882906308E+03  0.00000000000E+00 0.  1.
          1   -1    0    0  501    0 -0.00000000000E+00 -0.00000000000E+00 -0.23835065861E+03  0.23835065861E+03  0.00000000000E+00 0.  1.
          2    1    1    2  501    0  0.17701936847E+03 -0.47734894341E+02  0.78904551453E+01  0.18351222367E+03  0.00000000000E+00 0.  1.
          1    1    1    2  502    0 -0.12205840421E+03  0.91055290776E+02 -0.51040463394E+02  0.16060650336E+03  0.00000000000E+00 0.  1.
         22    1    1    2    0    0 -0.17497996726E+02  0.86906024851E+01  0.83655537897E+02  0.85906667272E+02  0.00000000000E+00 0.  1.
         22    1    1    2    0    0 -0.37462967537E+02 -0.52010998920E+02 -0.20027125172E+02  0.67154327395E+02  0.00000000000E+00 0.  1.
</event>
<event>
 6    1  0.2144783E-005  0.7261718E+02  0.7818608E-02  0.1450862E+00
          2   -1    0    0  502    0  0.00000000000E+00  0.00000000000E+00  0.13308068938E+03  0.13308068938E+03  0.00000000000E+00 0. -1.
          1   -1    0    0  501    0 -0.00000000000E+00 -0.00000000000E+00 -0.98134468006E+02  0.98134468006E+02  0.00000000000E+00 0. -1.
          2    1    1    2  501    0  0.37689885223E+02  0.43613296920E+02  0.46856057819E+02  0.74284165680E+02  0.00000000000E+00 0. -1.
          1    1    1    2  502    0 -0.81519039026E+01 -0.20415107870E+02 -0.73222091648E+01  0.23169913975E+02  0.00000000000E+00 0. -1.
         22    1    1    2    0    0 -0.32409459974E+02 -0.37964700765E+02 -0.59014098318E+02  0.77293954487E+02  0.00000000000E+00 0. -1.
         22    1    1    2    0    0  0.28714786530E+01  0.14766511714E+02  0.54426471033E+02  0.56467123240E+02  0.00000000000E+00 0. -1.
</event>
<event>
 6    1  0.2144783E-005  0.1801127E+03  0.7818608E-02  0.1168881E+00
          2   -1    0    0  502    0  0.00000000000E+00  0.00000000000E+00  0.23322503883E+03  0.23322503883E+03  0.00000000000E+00 0.  1.
          1   -1    0    0  501    0 -0.00000000000E+00 -0.00000000000E+00 -0.28475596137E+03  0.28475596137E+03  0.00000000000E+00 0.  1.
          2    1    1    2  501    0  0.34332996665E+02  0.13928209586E+03  0.11631885505E+03  0.18468441442E+03  0.00000000000E+00 0.  1.
          1    1    1    2  502    0 -0.59817869929E+02 -0.10887108778E+03 -0.15880172864E+03  0.20161617082E+03  0.00000000000E+00 0.  1.
         22    1    1    2    0    0  0.15955237449E+02  0.23958705340E+02  0.45652122408E+02  0.53969486230E+02  0.00000000000E+00 0.  1.
         22    1    1    2    0    0  0.95296358155E+01 -0.54369713423E+02 -0.54700171371E+02  0.77710928733E+02  0.00000000000E+00 0.  1.
</event>
<event>
 6    1  0.2144783E-005  0.4792025E+02  0.7818608E-02  0.1485417E+00
          2   -1    0    0  502    0  0.00000000000E+00  0.00000000000E+00  0.99691463169E+02  0.99691463169E+02  0.00000000000E+00 0.  1.
          1   -1    0    0  501    0 -0.00000000000E+00 -0.00000000000E+00 -0.15278849085E+03  0.15278849085E+03  0.00000000000E+00 0.  1.
          2    1    1    2  501    0 -0.30117133965E+02  0.20304475516E+02  0.44377193118E+02  0.57346741435E+02  0.00000000000E+00 0.  1.
          1    1    1    2  502    0  0.23298790825E+02 -0.46388032735E+00 -0.53569792163E+02  0.58418930761E+02  0.00000000000E+00 0.  1.
         22    1    1    2    0    0 -0.17921155583E+02 -0.26349156460E+02  0.38762673046E+02  0.50179584347E+02  0.00000000000E+00 0.  1.
         22    1    1    2    0    0  0.24739498723E+02  0.65085612712E+01 -0.82667101684E+02  0.86534697479E+02  0.00000000000E+00 0.  1.
</event>
<event>
 6    1  0.2144783E-005  0.1398390E+03  0.7818608E-02  0.1214358E+00
          2   -1    0    0  502    0  0.00000000000E+00  0.00000000000E+00  0.83584615887E+02  0.83584615887E+02  0.00000000000E+00 0. -1.
          1   -1    0    0  501    0 -0.00000000000E+00 -0.00000000000E+00 -0.34762369424E+03  0.34762369424E+03  0.00000000000E+00 0. -1.
          2    1    1    2  501    0 -0.10135792821E+03 -0.27253397398E+02 -0.16118936023E+02  0.10618849928E+03  0.00000000000E+00 0. -1.
          1    1    1    2  502    0  0.77582465430E+02 -0.13507046927E+01 -0.13369670648E+03  0.15458225211E+03  0.00000000000E+00 0. -1.
         22    1    1    2    0    0  0.53282784245E+02  0.31557288898E+02 -0.12450140579E+03  0.13905221186E+03  0.00000000000E+00 0. -1.
         22    1    1    2    0    0 -0.29507321469E+02 -0.29531868068E+01  0.10277969938E+02  0.31385346878E+02  0.00000000000E+00 0.  1.
</event>
<event>
 6    1  0.2144783E-005  0.8105525E+02  0.7818608E-02  0.1432636E+00
          2   -1    0    0  502    0  0.00000000000E+00  0.00000000000E+00  0.12543321538E+03  0.12543321538E+03  0.00000000000E+00 0. -1.
          1   -1    0    0  501    0 -0.00000000000E+00 -0.00000000000E+00 -0.99043264137E+02  0.99043264137E+02  0.00000000000E+00 0.  1.
          2    1    1    2  501    0  0.49068584116E+02 -0.36379865337E+01  0.27861830109E+02  0.56544163892E+02  0.00000000000E+00 0. -1.
          1    1    1    2  502    0  0.20718487919E+02 -0.48917171064E+01 -0.92473410342E+01  0.23209867602E+02  0.00000000000E+00 0.  1.
         22    1    1    2    0    0 -0.14023170483E+02  0.21991770173E+01  0.63837326480E+02  0.65396406186E+02  0.00000000000E+00 0.  1.
         22    1    1    2    0    0 -0.55763901553E+02  0.63305266228E+01 -0.56061864311E+02  0.79326041838E+02  0.00000000000E+00 0.  1.
</event>
<event>
 6    1  0.2144783E-005  0.7023816E+02  0.7818608E-02  0.1378035E+00
          2   -1    0    0  502    0  0.00000000000E+00  0.00000000000E+00  0.88022554992E+02  0.88022554992E+02  0.00000000000E+00 0. -1.
          1   -1    0    0  501    0 -0.00000000000E+00 -0.00000000000E+00 -0.21346493909E+03  0.21346493909E+03  0.00000000000E+00 0. -1.
          2    1    1    2  501    0  0.20512827065E+02  0.40386655947E+02 -0.49997949656E+02  0.67465939722E+02  0.00000000000E+00 0. -1.
          1    1    1    2  502    0  0.21659133237E+02  0.65172067477E+01 -0.88512946971E+02  0.91357177156E+02  0.00000000000E+00 0. -1.
         22    1    1    2    0    0  0.24655490565E+02 -0.39940702762E+00 -0.38913678127E+02  0.46068721345E+02  0.00000000000E+00 0.  1.
         22    1    1    2    0    0 -0.66827450867E+02 -0.46504455667E+02  0.51982190653E+02  0.96595655862E+02  0.00000000000E+00 0. -1.
</event>
<event>
 6    1  0.2144783E-005  0.1444934E+03  0.7818608E-02  0.1285505E+00
          2   -1    0    0  502    0  0.00000000000E+00  0.00000000000E+00  0.12693323362E+04  0.12693323362E+04  0.00000000000E+00 0.  1.
          1   -1    0    0  501    0 -0.00000000000E+00 -0.00000000000E+00 -0.10045443055E+03  0.10045443055E+03  0.00000000000E+00 0. -1.
          2    1    1    2  501    0  0.14594368544E+03  0.31987231908E+02  0.11061116064E+04  0.11161566324E+04  0.00000000000E+00 0.  1.
          1    1    1    2  502    0 -0.69831646598E+02 -0.94431226402E+01  0.74284755368E+02  0.10239070423E+03  0.00000000000E+00 0. -1.
         22    1    1    2    0    0 -0.60101972884E+02 -0.47954208605E+02 -0.57714025891E+02  0.96139284645E+02  0.00000000000E+00 0. -1.
         22    1    1    2    0    0 -0.16010065960E+02  0.25410099338E+02  0.46195569782E+02  0.55100145444E+02  0.00000000000E+00 0.  1.
</event>
<event>
 6    1  0.2144783E-005  0.1071658E+03  0.7818608E-02  0.1318720E+00
          2   -1    0    0  502    0  0.00000000000E+00  0.00000000000E+00  0.82358947328E+02  0.82358947328E+02  0.00000000000E+00 0. -1.
          1   -1    0    0  501    0 -0.00000000000E+00 -0.00000000000E+00 -0.22334473083E+03  0.22334473083E+03  0.00000000000E+00 0. -1.
          2    1    1    2  501    0  0.10713966802E+02 -0.73294471703E+02 -0.11230625419E+03  0.13453461784E+03  0.00000000000E+00 0. -1.
          1    1    1    2  502    0 -0.21503881340E+01  0.22580626763E+02  0.19562134551E+02  0.29953062988E+02  0.00000000000E+00 0. -1.
         22    1    1    2    0    0 -0.47698661944E+02  0.58908314251E+02 -0.63034506461E+02  0.98583471454E+02  0.00000000000E+00 0. -1.
         22    1    1    2    0    0  0.39135083275E+02 -0.81944693111E+01  0.14792842601E+02  0.42632525875E+02  0.00000000000E+00 0. -1.
</event>
<event>
 6    1  0.2144783E-005  0.1218413E+03  0.7818608E-02  0.1282898E+00
          2   -1    0    0  502    0  0.00000000000E+00  0.00000000000E+00  0.11545402101E+04  0.11545402101E+04  0.00000000000E+00 0. -1.
          1   -1    0    0  501    0 -0.00000000000E+00 -0.00000000000E+00 -0.61411294420E+02  0.61411294420E+02  0.00000000000E+00 0.  1.
          2    1    1    2  501    0  0.12323012820E+03  0.52343652907E+02  0.92155535688E+03  0.93123026062E+03  0.00000000000E+00 0. -1.
          1    1    1    2  502    0 -0.60676350254E+02  0.36740376496E+01  0.96068978117E+01  0.61541941132E+02  0.00000000000E+00 0.  1.
         22    1    1    2    0    0 -0.35750562456E+02  0.38612271683E+02  0.76676110399E+02  0.92995893170E+02  0.00000000000E+00 0. -1.
         22    1    1    2    0    0 -0.26803215494E+02 -0.94629962240E+02  0.85290550575E+02  0.13018340959E+03  0.00000000000E+00 0.  1.
</event>
<event>
 6    1  0.2144783E-005  0.9685652E+02  0.7818608E-02  0.1394526E+00
          2   -1    0    0  502    0  0.00000000000E+00  0.00000000000E+00  0.17750292456E+03  0.17750292456E+03  0.00000000000E+00 0.  1.
          1   -1    0    0  501    0 -0.00000000000E+00 -0.00000000000E+00 -0.70878192427E+03  0.70878192427E+03  0.00000000000E+00 0. -1.
          2    1    1    2  501    0  0.66134618410E+02 -0.29540951507E+02  0.10753038292E+03  0.12965044859E+03  0.00000000000E+00 0.  1.
          1    1    1    2  502    0 -0.90454564713E+02  0.29333984282E+02 -0.62369138518E+03  0.63089892602E+03  0.00000000000E+00 0. -1.
         22    1    1    2    0    0  0.54899022056E+01  0.13996103774E+02 -0.67095115044E+02  0.68758886042E+02  0.00000000000E+00 0. -1.
         22    1    1    2    0    0  0.18830044097E+02 -0.13789136549E+02  0.51977117595E+02  0.56976588182E+02  0.00000000000E+00 0.  1.
</event>
<event>
 6    1  0.2144783E-005  0.7560186E+02  0.7818608E-02  0.1383776E+00
          2   -1    0    0  502    0  0.00000000000E+00  0.00000000000E+00  0.25561700809E+03  0.25561700809E+03  0.00000000000E+00 0. -1.
          1   -1    0    0  501    0 -0.00000000000E+00 -0.00000000000E+00 -0.16503252528E+03  0.16503252528E+03  0.00000000000E+00 0. -1.
          2    1    1    2  501    0  0.89062515666E+02  0.33993127003E+01  0.39386862743E+02  0.97442352088E+02  0.00000000000E+00 0. -1.
          1    1    1    2  502    0 -0.53405734443E+02  0.27086876941E+02 -0.10419812160E+03  0.12017953203E+03  0.00000000000E+00 0. -1.
         22    1    1    2    0    0 -0.14268016316E+02  0.41692751994E+00 -0.19485046113E+02  0.24154029481E+02  0.00000000000E+00 0. -1.
         22    1    1    2    0    0 -0.21388764906E+02 -0.30903117162E+02  0.17488078778E+03  0.17887361977E+03  0.00000000000E+00 0. -1.
</event>
<event>
 6    1  0.2144783E-005  0.1041548E+03  0.7818608E-02  0.1275255E+00
          2   -1    0    0  502    0  0.00000000000E+00  0.00000000000E+00  0.32363489863E+03  0.32363489863E+03  0.00000000000E+00 0. -1.
          1   -1    0    0  501    0 -0.00000000000E+00 -0.00000000000E+00 -0.10385306052E+03  0.10385306052E+03  0.00000000000E+00 0. -1.
          2    1    1    2  501    0 -0.20527554786E+02  0.46027557559E+02  0.10304615326E+03  0.11471018378E+03  0.00000000000E+00 0. -1.
          1    1    1    2  502    0  0.14002493469E+02 -0.82731168481E+02 -0.54326375173E+02  0.99959347242E+02  0.00000000000E+00 0. -1.
         22    1    1    2    0    0  0.10957144187E+02  0.48444846210E+02  0.18645545043E+03  0.19295750083E+03  0.00000000000E+00 0. -1.
         22    1    1    2    0    0 -0.44320828701E+01 -0.11741235288E+02 -0.15393390415E+02  0.19860927297E+02  0.00000000000E+00 0.  1.
</event>
<event>
 6    1  0.2144783E-005  0.8218846E+02  0.7818608E-02  0.1401194E+00
          2   -1    0    0  502    0  0.00000000000E+00  0.00000000000E+00  0.14954728878E+03  0.14954728878E+03  0.00000000000E+00 0.  1.
          1   -1    0    0  501    0 -0.00000000000E+00 -0.00000000000E+00 -0.62920117220E+03  0.62920117220E+03  0.00000000000E+00 0.  1.
          2    1    1    2  501    0 -0.52068309448E+02 -0.94818333559E+02  0.64555961188E+02  0.12597260556E+03  0.00000000000E+00 0.  1.
          1    1    1    2  502    0  0.23931837374E+02  0.24316450735E+02 -0.49314374566E+03  0.49432254298E+03  0.00000000000E+00 0.  1.
         22    1    1    2    0    0  0.63397452422E+01  0.66660423345E+02  0.30758821876E+02  0.73687919861E+02  0.00000000000E+00 0.  1.
         22    1    1    2    0    0  0.21796726831E+02  0.38414594794E+01 -0.81824920822E+02  0.84765392579E+02  0.00000000000E+00 0. -1.
</event>
<event>
 6    1  0.2144783E-005  0.1115974E+03  0.7818608E-02  0.1291901E+00
          2   -1    0    0  502    0  0.00000000000E+00  0.00000000000E+00  0.23582851058E+03  0.23582851058E+03  0.00000000000E+00 0.  1.
          1   -1    0    0  501    0 -0.00000000000E+00 -0.00000000000E+00 -0.28325931632E+03  0.28325931632E+03  0.00000000000E+00 0.  1.
          2    1    1    2  501    0  0.72303921638E+02 -0.10095574366E+03  0.15343590609E+03  0.19738920067E+03  0.00000000000E+00 0.  1.
          1    1    1    2  502    0 -0.42206161299E+02  0.61604632210E+02  0.56463726311E+01  0.74889066527E+02  0.00000000000E+00 0.  1.
         22    1    1    2    0    0 -0.48672382066E+00 -0.10306606529E+02  0.14815340172E+02  0.18054288760E+02  0.00000000000E+00 0.  1.
         22    1    1    2    0    0 -0.29611036518E+02  0.49657717981E+02 -0.22132842463E+03  0.22875527095E+03  0.00000000000E+00 0.  1.
</event>
<event>
 6    1  0.2144783E-005  0.1796274E+03  0.7818608E-02  0.1168624E+00
          2   -1    0    0  502    0  0.00000000000E+00  0.00000000000E+00  0.26807285181E+02  0.26807285181E+02  0.00000000000E+00 0. -1.
          1   -1    0    0  501    0 -0.00000000000E+00 -0.00000000000E+00 -0.15896215341E+04  0.15896215341E+04  0.00000000000E+00 0. -1.
          2    1    1    2  501    0 -0.98515560189E+02  0.67519134052E+02 -0.96346278375E+03  0.97083710515E+03  0.00000000000E+00 0. -1.
          1    1    1    2  502    0  0.88139689815E+02 -0.54193426384E+02 -0.17510699390E+03  0.20339122817E+03  0.00000000000E+00 0. -1.
         22    1    1    2    0    0 -0.39475994837E+02  0.35213009564E+02 -0.22573021532E+03  0.23184572525E+03  0.00000000000E+00 0.  1.
         22    1    1    2    0    0  0.49851865211E+02 -0.48538717232E+02 -0.19851425592E+03  0.21035476067E+03  0.00000000000E+00 0.  1.
</event>
<event>
 6    1  0.2144783E-005  0.2548938E+03  0.7818608E-02  0.1113697E+00
          2   -1    0    0  502    0  0.00000000000E+00  0.00000000000E+00  0.54243625148E+03  0.54243625148E+03  0.00000000000E+00 0.  1.
          1   -1    0    0  501    0 -0.00000000000E+00 -0.00000000000E+00 -0.59543004178E+03  0.59543004178E+03  0.00000000000E+00 0.  1.
          2    1    1    2  501    0  0.22098985206E+03 -0.15441501981E+02  0.45087184487E+03  0.50235482997E+03  0.00000000000E+00 0.  1.
          1    1    1    2  502    0 -0.15968275169E+03 -0.34167793400E+01 -0.46716648883E+03  0.49371528622E+03  0.00000000000E+00 0.  1.
         22    1    1    2    0    0  0.10471319377E+02  0.29498734318E+01  0.36477726610E+02  0.38065401895E+02  0.00000000000E+00 0. -1.
         22    1    1    2    0    0 -0.71778419752E+02  0.15908407890E+02 -0.73176872943E+02  0.10373077517E+03  0.00000000000E+00 0.  1.
</event>
<event>
 6    1  0.2144783E-005  0.5312712E+02  0.7818608E-02  0.1477649E+00
          2   -1    0    0  502    0  0.00000000000E+00  0.00000000000E+00  0.21171976228E+03  0.21171976228E+03  0.00000000000E+00 0.  1.
          1   -1    0    0  501    0 -0.00000000000E+00 -0.00000000000E+00 -0.20570062894E+03  0.20570062894E+03  0.00000000000E+00 0.  1.
          2    1    1    2  501    0  0.45974306891E+02 -0.18549544596E+02  0.12240340401E+03  0.13206178786E+03  0.00000000000E+00 0.  1.
          1    1    1    2  502    0 -0.40773759436E+02  0.21721351637E+01 -0.15122238604E+03  0.15663788708E+03  0.00000000000E+00 0.  1.
         22    1    1    2    0    0 -0.79647735500E+01 -0.95669495072E+01 -0.43973999144E+02  0.45702043076E+02  0.00000000000E+00 0.  1.
         22    1    1    2    0    0  0.27642260954E+01  0.25944358940E+02  0.78812114508E+02  0.83018673200E+02  0.00000000000E+00 0.  1.
</event>
<event>
 6    1  0.2144783E-005  0.1187690E+03  0.7818608E-02  0.1320427E+00
          2   -1    0    0  502    0  0.00000000000E+00  0.00000000000E+00  0.45298283179E+03  0.45298283179E+03  0.00000000000E+00 0. -1.
          1   -1    0    0  501    0 -0.00000000000E+00 -0.00000000000E+00 -0.84789444683E+02  0.84789444683E+02  0.00000000000E+00 0.  1.
          2    1    1    2  501    0  0.44884031276E+02 -0.88341053775E+02  0.26305887730E+03  0.28110263423E+03  0.00000000000E+00 0. -1.
          1    1    1    2  502    0 -0.70067063596E+02  0.76299780851E+02  0.28854978349E+02  0.10753445836E+03  0.00000000000E+00 0.  1.
         22    1    1    2    0    0  0.13343907605E+02  0.25171193709E+02 -0.30013523676E+02  0.41381885727E+02  0.00000000000E+00 0.  1.
         22    1    1    2    0    0  0.11839124716E+02 -0.13129920785E+02  0.10629305513E+03  0.10775329816E+03  0.00000000000E+00 0. -1.
</event>
<event>
 6    1  0.2144783E-005  0.4227245E+02  0.7818608E-02  0.1585817E+00
          2   -1    0    0  502    0  0.00000000000E+00  0.00000000000E+00  0.35703366613E+03  0.35703366613E+03  0.00000000000E+00 0. -1.
          1   -1    0    0  501    0 -0.00000000000E+00 -0.00000000000E+00 -0.37816466625E+02  0.37816466625E+02  0.00000000000E+00 0. -1.
          2    1    1    2  501    0 -0.30805204693E+02  0.28026868140E+02  0.14267635065E+03  0.14863043769E+03  0.00000000000E+00 0. -1.
          1    1    1    2  502    0  0.59742543455E+01  0.21010578335E+02 -0.33554313260E+01  0.22099661453E+02  0.00000000000E+00 0. -1.
         22    1    1    2    0    0  0.23255015565E+02 -0.36689323279E+02  0.19768894579E+03  0.20240509252E+03  0.00000000000E+00 0. -1.
         22    1    1    2    0    0  0.15759347828E+01 -0.12348123196E+02 -0.17792665609E+02  0.21714941086E+02  0.00000000000E+00 0. -1.
</event>
<event>
 6    1  0.2144783E-005  0.4740019E+02  0.7818608E-02  0.1573693E+00
          2   -1    0    0  502    0  0.00000000000E+00  0.00000000000E+00  0.40024970956E+03  0.40024970956E+03  0.00000000000E+00 0. -1.
          1   -1    0    0  501    0 -0.00000000000E+00 -0.00000000000E+00 -0.21681515770E+03  0.21681515770E+03  0.00000000000E+00 0.  1.
          2    1    1    2  501    0 -0.19789015388E+02 -0.33609923308E+02  0.34600003189E+03  0.34819140446E+03  0.00000000000E+00 0. -1.
          1    1    1    2  502    0  0.14167136513E+02  0.26555520091E+02 -0.13276931352E+03  0.13613814314E+03  0.00000000000E+00 0.  1.
         22    1    1    2    0    0 -0.10255805165E+02  0.83409871550E-01  0.50018239836E+02  0.51058915118E+02  0.00000000000E+00 0.  1.
         22    1    1    2    0    0  0.15877684040E+02  0.69709933453E+01 -0.79814406344E+02  0.81676404541E+02  0.00000000000E+00 0.  1.
</event>
<event>
 6    1  0.2144783E-005  0.1683479E+03  0.7818608E-02  0.1284068E+00
          2   -1    0    0  502    0  0.00000000000E+00  0.00000000000E+00  0.14648904053E+03  0.14648904053E+03  0.00000000000E+00 0. -1.
          1   -1    0    0  501    0 -0.00000000000E+00 -0.00000000000E+00 -0.17931987280E+03  0.17931987280E+03  0.00000000000E+00 0. -1.
          2    1    1    2  501    0 -0.78036789165E+02  0.73151904788E+02 -0.18148315234E+02  0.10849102720E+03  0.00000000000E+00 0. -1.
          1    1    1    2  502    0  0.14726632517E+02  0.18373545252E+02  0.34958570746E+02  0.42149288713E+02  0.00000000000E+00 0. -1.
         22    1    1    2    0    0  0.63215774898E+02 -0.72013359186E+02 -0.89291206326E+02  0.13097739356E+03  0.00000000000E+00 0. -1.
         22    1    1    2    0    0  0.94381749237E-01 -0.19512090854E+02  0.39650118541E+02  0.44191203850E+02  0.00000000000E+00 0. -1.
</event>
<event>
 6    1  0.2144783E-005  0.7298666E+02  0.7818608E-02  0.1397995E+00
          2   -1    0    0  502    0  0.00000000000E+00  0.00000000000E+00  0.34193931437E+03  0.34193931437E+03  0.00000000000E+00 0. -1.
          1   -1    0    0  501    0 -0.00000000000E+00 -0.00000000000E+00 -0.17527417277E+03  0.17527417277E+03  0.00000000000E+00 0.  1.
          2    1    1    2  501    0 -0.12828273420E+03  0.86106372651E+02  0.72143582628E+01  0.15467001736E+03  0.00000000000E+00 0. -1.
          1    1    1    2  502    0  0.15643681691E+03 -0.11158620960E+03  0.12646959013E+03  0.23004025102E+03  0.00000000000E+00 0.  1.
         22    1    1    2    0    0 -0.14073620577E+02  0.27933806927E+02  0.78654553516E+02  0.84645750953E+02  0.00000000000E+00 0. -1.
         22    1    1    2    0    0 -0.14080462135E+02 -0.24539699808E+01 -0.45673360317E+02  0.47857467811E+02  0.00000000000E+00 0.  1.
</event>
<event>
 6    1  0.2144783E-005  0.6950515E+02  0.7818608E-02  0.1443560E+00
          2   -1    0    0  502    0  0.00000000000E+00  0.00000000000E+00  0.13074187235E+03  0.13074187235E+03  0.00000000000E+00 0.  1.
          1   -1    0    0  501    0 -0.00000000000E+00 -0.00000000000E+00 -0.89804483473E+02  0.89804483473E+02  0.00000000000E+00 0. -1.
          2    1    1    2  501    0  0.35923301114E+02 -0.23651345504E+02  0.41283098062E+02  0.59616808811E+02  0.00000000000E+00 0.  1.
          1    1    1    2  502    0 -0.28089871933E+02  0.90481788893E+01 -0.48207862076E+01  0.29902348170E+02  0.00000000000E+00 0. -1.
         22    1    1    2    0    0 -0.25811903758E+02  0.21088575876E+02 -0.57340546537E+02  0.66324359667E+02  0.00000000000E+00 0. -1.
         22    1    1    2    0    0  0.17978474576E+02 -0.64854092610E+01  0.61815623556E+02  0.64702839172E+02  0.00000000000E+00 0.  1.
</event>
<event>
 6    1  0.2144783E-005  0.3110906E+02  0.7818608E-02  0.1595267E+00
          2   -1    0    0  502    0  0.00000000000E+00  0.00000000000E+00  0.12642301522E+03  0.12642301522E+03  0.00000000000E+00 0.  1.
          1   -1    0    0  501    0 -0.00000000000E+00 -0.00000000000E+00 -0.17957838753E+03  0.17957838753E+03  0.00000000000E+00 0.  1.
          2    1    1    2  501    0  0.28867614555E+02  0.40365285506E+02  0.65095027496E+02  0.81853882307E+02  0.00000000000E+00 0.  1.
          1    1    1    2  502    0 -0.39977388553E+02 -0.28506477098E+02 -0.74883741141E+02  0.89545438295E+02  0.00000000000E+00 0.  1.
         22    1    1    2    0    0  0.16514072583E+02  0.18888479880E+01  0.43458798895E+02  0.46529018272E+02  0.00000000000E+00 0.  1.
         22    1    1    2    0    0 -0.54042985845E+01 -0.13747656396E+02 -0.86825457565E+02  0.88073063878E+02  0.00000000000E+00 0.  1.
</event>
<event>
 6    1  0.2144783E-005  0.1091954E+03  0.7818608E-02  0.1262720E+00
          2   -1    0    0  502    0  0.00000000000E+00  0.00000000000E+00  0.48899173261E+03  0.48899173261E+03  0.00000000000E+00 0. -1.
          1   -1    0    0  501    0 -0.00000000000E+00 -0.00000000000E+00 -0.23178795717E+03  0.23178795717E+03  0.00000000000E+00 0. -1.
          2    1    1    2  501    0  0.81421066240E+02  0.34444935042E+02  0.35915080280E+03  0.36987179228E+03  0.00000000000E+00 0. -1.
          1    1    1    2  502    0 -0.82322614388E+02 -0.37248583209E+02 -0.18271414224E+03  0.20383554048E+03  0.00000000000E+00 0. -1.
         22    1    1    2    0    0 -0.11401166545E+02 -0.13027126625E+02 -0.29929077734E+02  0.34575169135E+02  0.00000000000E+00 0. -1.
         22    1    1    2    0    0  0.12302714693E+02  0.15830774792E+02  0.11069619261E+03  0.11249718787E+03  0.00000000000E+00 0. -1.
</event>
<event>
 6    1  0.2144783E-005  0.6208162E+02  0.7818608E-02  0.1508227E+00
          2   -1    0    0  502    0  0.00000000000E+00  0.00000000000E+00  0.21156380982E+03  0.21156380982E+03  0.00000000000E+00 0. -1.
          1   -1    0    0  501    0 -0.00000000000E+00 -0.00000000000E+00 -0.59442691189E+03  0.59442691189E+03  0.00000000000E+00 0.  1.
          2    1    1    2  501    0  0.11846774942E+02  0.19467300185E+02  0.90057006944E+02  0.92895566916E+02  0.00000000000E+00 0. -1.
          1    1    1    2  502    0 -0.56346989597E+02 -0.20568861412E+02 -0.55303339793E+03  0.55627690993E+03  0.00000000000E+00 0.  1.
         22    1    1    2    0    0  0.37595131404E+02  0.92712576520E+01  0.11446634501E+03  0.12083829800E+03  0.00000000000E+00 0. -1.
         22    1    1    2    0    0  0.69050832513E+01 -0.81696964253E+01 -0.34353056087E+02  0.35979946872E+02  0.00000000000E+00 0.  1.
</event>
<event>
 6    1  0.2144783E-005  0.1683787E+03  0.7818608E-02  0.1299306E+00
          2   -1    0    0  502    0  0.00000000000E+00  0.00000000000E+00  0.60005432220E+02  0.60005432220E+02  0.00000000000E+00 0. -1.
          1   -1    0    0  501    0 -0.00000000000E+00 -0.00000000000E+00 -0.65018689971E+03  0.65018689971E+03  0.00000000000E+00 0. -1.
          2    1    1    2  501    0 -0.15185522642E+03 -0.70503259560E+01 -0.15499224257E+03  0.21709977463E+03  0.00000000000E+00 0. -1.
          1    1    1    2  502    0  0.93065190922E+02 -0.11509678845E+02 -0.20030710394E+03  0.22117083523E+03  0.00000000000E+00 0. -1.
         22    1    1    2    0    0  0.72586899471E+02  0.23547210910E+02 -0.24331441317E+03  0.25500045641E+03  0.00000000000E+00 0. -1.
         22    1    1    2    0    0 -0.13796863974E+02 -0.49872061087E+01  0.84322921776E+01  0.16921265664E+02  0.00000000000E+00 0. -1.
</event>
<event>
 6    1  0.2144783E-005  0.1264610E+03  0.7818608E-02  0.1269527E+00
          2   -1    0    0  502    0  0.00000000000E+00  0.00000000000E+00  0.13149126529E+04  0.13149126529E+04  0.00000000000E+00 0.  1.
          1   -1    0    0  501    0 -0.00000000000E+00 -0.00000000000E+00 -0.34645687914E+02  0.34645687914E+02  0.00000000000E+00 0. -1.
          2    1    1    2  501    0 -0.11997277449E+03 -0.63923503384E+02  0.95879423205E+03  0.96838321976E+03  0.00000000000E+00 0.  1.
          1    1    1    2  502    0  0.45046926231E+02  0.40813726476E+01  0.81964454920E+02  0.93616531851E+02  0.00000000000E+00 0. -1.
         22    1    1    2    0    0  0.15994475527E+01  0.60773991284E+02  0.18894281514E+03  0.19848280440E+03  0.00000000000E+00 0. -1.
         22    1    1    2    0    0  0.73326400707E+02 -0.93186054753E+00  0.50565462909E+02  0.89075784835E+02  0.00000000000E+00 0. -1.
</event>
<event>
 6    1  0.2144783E-005  0.4189853E+02  0.7818608E-02  0.1593564E+00
          2   -1    0    0  502    0  0.00000000000E+00  0.00000000000E+00  0.38173628564E+03  0.38173628564E+03  0.00000000000E+00 0.  1.
          1   -1    0    0  501    0 -0.00000000000E+00 -0.00000000000E+00 -0.33376580987E+03  0.33376580987E+03  0.00000000000E+00 0. -1.
          2    1    1    2  501    0 -0.19738913561E+02  0.55576512633E+01  0.33029872626E+03  0.33093467749E+03  0.00000000000E+00 0.  1.
          1    1    1    2  502    0  0.40882056468E+02  0.17629667027E+02 -0.24217511973E+03  0.24623349958E+03  0.00000000000E+00 0. -1.
         22    1    1    2    0    0  0.64483220366E+00  0.11614337784E+02  0.43563863018E+02  0.45090118782E+02  0.00000000000E+00 0. -1.
         22    1    1    2    0    0 -0.21787975110E+02 -0.34801656074E+02 -0.83716993793E+02  0.93243799658E+02  0.00000000000E+00 0. -1.
</event>
<event>
 6    1  0.2144783E-005  0.1944267E+03  0.7818608E-02  0.1176088E+00
          2   -1    0    0  502    0  0.00000000000E+00  0.00000000000E+00  0.72390535478E+03  0.72390535478E+03  0.00000000000E+00 0.  1.
          1   -1    0    0  501    0 -0.00000000000E+00 -0.00000000000E+00 -0.32356637277E+03  0.32356637277E+03  0.00000000000E+00 0.  1.
          2    1    1    2  501    0 -0.24500528572E+03 -0.63800603084E+02  0.49506435582E+03  0.55604570261E+03  0.00000000000E+00 0.  1.
          1    1    1    2  502    0  0.14093498870E+03  0.11159645609E+03 -0.21895412670E+03  0.28329728140E+03  0.00000000000E+00 0.  1.
         22    1    1    2    0    0  0.10210468560E+03 -0.59644113140E+02  0.14317720909E+03  0.18569464251E+03  0.00000000000E+00 0. -1.
         22    1    1    2    0    0  0.19656114205E+01  0.11848260135E+02 -0.18948456208E+02  0.22434101033E+02  0.00000000000E+00 0. -1.
</event>
<event>
 6    1  0.2144783E-005  0.1562617E+03  0.7818608E-02  0.1208552E+00
          2   -1    0    0  502    0  0.00000000000E+00  0.00000000000E+00  0.96489849019E+03  0.96489849019E+03  0.00000000000E+00 0.  1.
          1   -1    0    0  501    0 -0.00000000000E+00 -0.00000000000E+00 -0.11989061323E+03  0.11989061323E+03  0.00000000000E+00 0. -1.
          2    1    1    2  501    0 -0.52415137011E+02  0.71783009313E+02  0.61215616074E+03  0.61857522755E+03  0.00000000000E+00 0.  1.
          1    1    1    2  502    0  0.19800763537E+03 -0.34098823741E+02  0.15193716255E+03  0.25190207385E+03  0.00000000000E+00 0. -1.
         22    1    1    2    0    0 -0.13572311724E+03 -0.53786966812E+02  0.16189360987E+02  0.14688736420E+03  0.00000000000E+00 0. -1.
         22    1    1    2    0    0 -0.98693811176E+01  0.16102781239E+02  0.64725192686E+02  0.67424437821E+02  0.00000000000E+00 0.  1.
</event>
<event>
 6    1  0.2144783E-005  0.1598481E+03  0.7818608E-02  0.1237433E+00
          2   -1    0    0  502    0  0.00000000000E+00  0.00000000000E+00  0.78768699777E+03  0.78768699777E+03  0.00000000000E+00 0. -1.
          1   -1    0    0  501    0 -0.00000000000E+00 -0.00000000000E+00 -0.11193661477E+03  0.11193661477E+03  0.00000000000E+00 0. -1.
          2    1    1    2  501    0 -0.12054069783E+03  0.38499382801E+02  0.51914687657E+03  0.53434608800E+03  0.00000000000E+00 0. -1.
          1    1    1    2  502    0  0.81923104850E+02 -0.80662385104E+02 -0.42939920817E+02  0.12272592342E+03  0.00000000000E+00 0. -1.
         22    1    1    2    0    0 -0.17605744442E+02  0.33056369537E+02  0.17761390635E+03  0.18151965605E+03  0.00000000000E+00 0.  1.
         22    1    1    2    0    0  0.56223337426E+02  0.91066327673E+01  0.21929520909E+02  0.61031945070E+02  0.00000000000E+00 0.  1.
</event>
<event>
 6    1  0.2144783E-005  0.4700921E+02  0.7818608E-02  0.1512631E+00
          2   -1    0    0  502    0  0.00000000000E+00  0.00000000000E+00  0.17838035557E+03  0.17838035557E+03  0.00000000000E+00 0.  1.
          1   -1    0    0  501    0 -0.00000000000E+00 -0.00000000000E+00 -0.15209807307E+03  0.15209807307E+03  0.00000000000E+00 0.  1.
          2    1    1    2  501    0  0.29136299495E+02 -0.22549099332E+02  0.73265266131E+02  0.82007225598E+02  0.00000000000E+00 0.  1.
          1    1    1    2  502    0 -0.32308814280E+02  0.11382428965E+02 -0.10542155604E+03  0.11084729878E+03  0.00000000000E+00 0.  1.
         22    1    1    2    0    0  0.14401470725E+02  0.18202346808E+02  0.95492000685E+02  0.98272325622E+02  0.00000000000E+00 0.  1.
         22    1    1    2    0    0 -0.11228955940E+02 -0.70356764405E+01 -0.37053428272E+02  0.39351578637E+02  0.00000000000E+00 0.  1.
</event>
<event>
 6    1  0.2144783E-005  0.8750131E+02  0.7818608E-02  0.1346836E+00
          2   -1    0    0  502    0  0.00000000000E+00  0.00000000000E+00  0.84413920045E+02  0.84413920045E+02  0.00000000000E+00 0. -1.
          1   -1    0    0  501    0 -0.00000000000E+00 -0.00000000000E+00 -0.20225471961E+03  0.20225471961E+03  0.00000000000E+00 0.  1.
          2    1    1    2  501    0 -0.63751240708E+02  0.15359488186E+02 -0.18536674936E+02  0.68145013661E+02  0.00000000000E+00 0. -1.
          1    1    1    2  502    0  0.43121800794E+02 -0.45137530858E+02 -0.57064377825E+02  0.84576767568E+02  0.00000000000E+00 0.  1.
         22    1    1    2    0    0 -0.38228374120E+01  0.44719390590E+02  0.31501053687E+02  0.54833879710E+02  0.00000000000E+00 0. -1.
         22    1    1    2    0    0  0.24452277327E+02 -0.14941347918E+02 -0.73740800487E+02  0.79112978711E+02  0.00000000000E+00 0.  1.
</event>
<event>
 6    1  0.2144783E-005  0.6646730E+02  0.7818608E-02  0.1477194E+00
          2   -1    0    0  502    0  0.00000000000E+00  0.00000000000E+00  0.10967885797E+03  0.10967885797E+03  0.00000000000E+00 0.  1.
          1   -1    0    0  501    0 -0.00000000000E+00 -0.00000000000E+00 -0.32071107041E+03  0.32071107041E+03  0.00000000000E+00 0.  1.
          2    1    1    2  501    0 -0.23300104791E+02 -0.47986983159E+02  0.71318945907E+02  0.89061986735E+02  0.00000000000E+00 0.  1.
          1    1    1    2  502    0  0.27368959317E+02 -0.25145726227E+00 -0.14132802280E+03  0.14395392733E+03  0.00000000000E+00 0.  1.
         22    1    1    2    0    0 -0.11144734296E+02  0.36847361199E+02 -0.16525476163E+03  0.16967931333E+03  0.00000000000E+00 0. -1.
         22    1    1    2    0    0  0.70758797703E+01  0.11391079223E+02  0.24231626076E+02  0.27694700986E+02  0.00000000000E+00 0.  1.
</event>
<event>
 6    1  0.2144783E-005  0.9417451E+02  0.7818608E-02  0.1417906E+00
          2   -1    0    0  502    0  0.00000000000E+00  0.00000000000E+00  0.34806540281E+02  0.34806540281E+02  0.00000000000E+00 0.  1.
          1   -1    0    0  501    0 -0.00000000000E+00 -0.00000000000E+00 -0.12660437573E+04  0.12660437573E+04  0.00000000000E+00 0.  1.
          2    1    1    2  501    0 -0.12603599215E+03  0.65748959531E+02 -0.64143011807E+03  0.65699360223E+03  0.00000000000E+00 0.  1.
          1    1    1    2  502    0  0.94751225306E+02  0.78558988620E+01 -0.13896671453E+03  0.16837831687E+03  0.00000000000E+00 0.  1.
         22    1    1    2    0    0 -0.16522953118E+01  0.10537948695E+02  0.42662110077E+01  0.11488211299E+02  0.00000000000E+00 0. -1.
         22    1    1    2    0    0  0.32937062154E+02 -0.84142807088E+02 -0.45510659540E+03  0.46399016717E+03  0.00000000000E+00 0.  1.
</event>
<event>
 6    1  0.2144783E-005  0.7844813E+02  0.7818608E-02  0.1456631E+00
          2   -1    0    0  502    0  0.00000000000E+00  0.00000000000E+00  0.12539606704E+03  0.12539606704E+03  0.00000000000E+00 0.  1.
          1   -1    0    0  501    0 -0.00000000000E+00 -0.00000000000E+00 -0.21875316370E+03  0.21875316370E+03  0.00000000000E+00 0.  1.
          2    1    1    2  501    0  0.64098785367E+02 -0.11100496748E+02  0.55109335326E+02  0.85257927219E+02  0.00000000000E+00 0.  1.
          1    1    1    2  502    0 -0.56867610590E+02  0.46804178011E+01 -0.12135833655E+03  0.13410323372E+03  0.00000000000E+00 0.  1.
         22    1    1    2    0    0  0.95433226563E+01 -0.53988575180E+01  0.46808758578E+02  0.48075800039E+02  0.00000000000E+00 0.  1.
         22    1    1    2    0    0 -0.16774497433E+02  0.11818936465E+02 -0.73916854017E+02  0.76712269756E+02  0.00000000000E+00 0. -1.
</event>
<event>
 6    1  0.2144783E-005  0.2486135E+03  0.7818608E-02  0.1220057E+00
          2   -1    0    0  502    0  0.00000000000E+00  0.00000000000E+00  0.16478254033E+03  0.16478254033E+03  0.00000000000E+00 0.  1.
          1   -1    0    0  501    0 -0.00000000000E+00 -0.00000000000E+00 -0.12525588813E+04  0.12525588813E+04  0.00000000000E+00 0.  1.
          2    1    1    2  501    0 -0.21418837826E+03  0.11381521156E+03 -0.95135388600E+02  0.26054041131E+03  0.00000000000E+00 0.  1.
          1    1    1    2  502    0  0.19348659287E+03 -0.13335896801E+03 -0.99852078190E+03  0.10257998966E+04  0.00000000000E+00 0.  1.
         22    1    1    2    0    0  0.62645118358E+01  0.20764845764E+02  0.65837270968E+02  0.69317884970E+02  0.00000000000E+00 0. -1.
         22    1    1    2    0    0  0.14437273551E+02 -0.12210893191E+01 -0.59957441452E+02  0.61683228775E+02  0.00000000000E+00 0. -1.
</event>
<event>
 6    1  0.2144783E-005  0.3332171E+02  0.7818608E-02  0.1566481E+00
          2   -1    0    0  502    0  0.00000000000E+00  0.00000000000E+00  0.76043842340E+03  0.76043842340E+03  0.00000000000E+00 0. -1.
          1   -1    0    0  501    0 -0.00000000000E+00 -0.00000000000E+00 -0.78730129810E+02  0.78730129810E+02  0.00000000000E+00 0.  1.
          2    1    1    2  501    0  0.42200839938E+01 -0.34174221826E+02  0.64898661537E+03  0.64989946413E+03  0.00000000000E+00 0. -1.
          1    1    1    2  502    0 -0.23461726863E+01  0.47926784324E+02 -0.23303023046E+02  0.53343341337E+02  0.00000000000E+00 0.  1.
         22    1    1    2    0    0 -0.22388339586E+02 -0.52486411192E+01 -0.35195265744E+02  0.42041559365E+02  0.00000000000E+00 0.  1.
         22    1    1    2    0    0  0.20514428279E+02 -0.85039213787E+01  0.91219967006E+02  0.93884188376E+02  0.00000000000E+00 0. -1.
</event>
<event>
 6    1  0.2144783E-005  0.4397507E+02  0.7818608E-02  0.1500985E+00
          2   -1    0    0  502    0  0.00000000000E+00  0.00000000000E+00  0.11409380585E+03  0.11409380585E+03  0.00000000000E+00 0. -1.
          1   -1    0    0  501    0 -0.00000000000E+00 -0.00000000000E+00 -0.52340902380E+03  0.52340902380E+03  0.00000000000E+00 0. -1.
          2    1    1    2  501    0  0.56196430188E+02  0.41978754046E+02  0.25199722861E+02  0.74533754698E+02  0.00000000000E+00 0. -1.
          1    1    1    2  502    0 -0.65724321048E+02 -0.35119241913E+02 -0.43572596888E+03  0.44205222258E+03  0.00000000000E+00 0. -1.
         22    1    1    2    0    0  0.42356167026E+01 -0.23745317027E+02 -0.56030963782E+02  0.61002044490E+02  0.00000000000E+00 0.  1.
         22    1    1    2    0    0  0.52922741573E+01  0.16885804894E+02  0.57241991852E+02  0.59914807885E+02  0.00000000000E+00 0.  1.
</event>
<event>
 6    1  0.2144783E-005  0.1158634E+03  0.7818608E-02  0.1370468E+00
          2   -1    0    0  502    0  0.00000000000E+00  0.00000000000E+00  0.80910761185E+02  0.80910761185E+02  0.00000000000E+00 0.  1.
          1   -1    0    0  501    0 -0.00000000000E+00 -0.00000000000E+00 -0.35909021528E+03  0.35909021528E+03  0.00000000000E+00 0. -1.
          2    1    1    2  501    0  0.10540288353E+03  0.17650366321E+02 -0.75773748177E+01  0.10713878801E+03  0.00000000000E+00 0.  1.
          1    1    1    2  502    0 -0.50834816615E+02  0.76765156297E+01 -0.11100969362E+03  0.12233666478E+03  0.00000000000E+00 0. -1.
         22    1    1    2    0    0  0.87750393648E+01 -0.95706373380E+01  0.17497554680E+02  0.21789053093E+02  0.00000000000E+00 0.  1.
         22    1    1    2    0    0 -0.63343106279E+02 -0.15756244613E+02 -0.17708994034E+03  0.18873647058E+03  0.00000000000E+00 0. -1.
</event>
<event>
 6    1  0.2144783E-005  0.1136531E+03  0.7818608E-02  0.1294837E+00
          2   -1    0    0  502    0  0.00000000000E+00  0.00000000000E+00  0.76051592978E+02  0.76051592978E+02  0.00000000000E+00 0.  1.
          1   -1    0    0  501    0 -0.00000000000E+00 -0.00000000000E+00 -0.44170974319E+03  0.44170974319E+03  0.00000000000E+00 0.  1.
          2    1    1    2  501    0  0.89900385359E+02 -0.10942927714E+03 -0.81347310695E+02  0.16332247531E+03  0.00000000000E+00 0.  1.
          1    1    1    2  502    0 -0.35028755780E+02  0.37121984969E+02 -0.11128503149E+03  0.12243126126E+03  0.00000000000E+00 0.  1.
         22    1    1    2    0    0 -0.48369452680E+02  0.18597270081E+02 -0.11675357826E+01  0.51834597971E+02  0.00000000000E+00 0.  1.
         22    1    1    2    0    0 -0.65021768997E+01  0.53710022092E+02 -0.17185827225E+03  0.18017300163E+03  0.00000000000E+00 0.  1.
</event>
<event>
 6    1  0.2144783E-005  0.8882260E+02  0.7818608E-02  0.1306260E+00
          2   -1    0    0  502    0  0.00000000000E+00  0.00000000000E+00  0.36957775516E+03  0.36957775516E+03  0.00000000000E+00 0. -1.
          1   -1    0    0  501    0 -0.00000000000E+00 -0.00000000000E+00 -0.17888924838E+03  0.17888924838E+03  0.00000000000E+00 0.  1.
          2    1    1    2  501    0 -0.74568881757E+02  0.14943810921E+02  0.28750556015E+03  0.29739415383E+03  0.00000000000E+00 0. -1.
          1    1    1    2  502    0  0.56080961605E+02 -0.36848696781E+01 -0.10768349513E+03  0.12146764031E+03  0.00000000000E+00 0.  1.
         22    1    1    2    0    0 -0.10224803452E+02  0.39245825287E+01  0.65303066433E+02  0.66215099783E+02  0.00000000000E+00 0.  1.
         22    1    1    2    0    0  0.28712723604E+02 -0.15183523771E+02 -0.54436624678E+02  0.63390109617E+02  0.00000000000E+00 0. -1.
</event>
<event>
 6    1  0.2144783E-005  0.6793152E+02  0.7818608E-02  0.1420873E+00
          2   -1    0    0  502    0  0.00000000000E+00  0.00000000000E+00  0.27062538400E+02  0.27062538400E+02  0.00000000000E+00 0. -1.
          1   -1    0    0  501    0 -0.00000000000E+00 -0.00000000000E+00 -0.43370734164E+03  0.43370734164E+03  0.00000000000E+00 0.  1.
          2    1    1    2  501    0 -0.35309296128E+02 -0.32706300642E+02 -0.73050345290E+02  0.87480291733E+02  0.00000000000E+00 0. -1.
          1    1    1    2  502    0  0.29035310379E+02  0.18362259492E+02 -0.10686395120E+03  0.11225028236E+03  0.00000000000E+00 0.  1.
         22    1    1    2    0    0  0.34371888402E+02  0.20865576460E+02 -0.22862344533E+03  0.23213245949E+03  0.00000000000E+00 0. -1.
         22    1    1    2    0    0 -0.28097902652E+02 -0.65215353105E+01  0.18929385781E+01  0.28906846468E+02  0.00000000000E+00 0. -1.
</event>
<event>
 6    1  0.2144783E-005  0.8854300E+02  0.7818608E-02  0.1321133E+00
          2   -1    0    0  502    0  0.00000000000E+00  0.00000000000E+00  0.49259593124E+03  0.49259593124E+03  0.00000000000E+00 0. -1.
          1   -1    0    0  501    0 -0.00000000000E+00 -0.00000000000E+00 -0.68846367801E+02  0.68846367801E+02  0.00000000000E+00 0.  1.
          2    1    1    2  501    0 -0.58912046684E+02 -0.34431601378E+02  0.27531707380E+02  0.73580971244E+02  0.00000000000E+00 0. -1.
          1    1    1    2  502    0  0.29119966423E+02 -0.39249765579E+02 -0.14507817007E+02  0.50980322643E+02  0.00000000000E+00 0.  1.
         22    1    1    2    0    0 -0.36744774811E+01 -0.17221106788E+02  0.30697915716E+01  0.17874337024E+02  0.00000000000E+00 0. -1.
         22    1    1    2    0    0  0.33466557742E+02  0.90902473745E+02  0.40765588150E+03  0.41900666813E+03  0.00000000000E+00 0. -1.
</event>
<event>
 6    1  0.2144783E-005  0.1377118E+03  0.7818608E-02  0.1274618E+00
          2   -1    0    0  502    0  0.00000000000E+00  0.00000000000E+00  0.26899581473E+02  0.26899581473E+02  0.00000000000E+00 0. -1.
          1   -1    0    0  501    0 -0.00000000000E+00 -0.00000000000E+00 -0.62810494913E+03  0.62810494913E+03  0.00000000000E+00 0. -1.
          2    1    1    2  501    0  0.18837359544E+02  0.57627129222E+02 -0.97019476320E+02  0.11440503014E+03  0.00000000000E+00 0. -1.
          1    1    1    2  502    0 -0.51603147919E+02 -0.39707988456E+02 -0.21455033201E+03  0.22421296614E+03  0.00000000000E+00 0. -1.
         22    1    1    2    0    0 -0.36214948897E+02  0.22581501831E+02 -0.63406339414E+02  0.76431738345E+02  0.00000000000E+00 0. -1.
         22    1    1    2    0    0  0.68980737271E+02 -0.40500642597E+02 -0.22622921992E+03  0.23995479597E+03  0.00000000000E+00 0. -1.
</event>
<event>
 6    1  0.2144783E-005  0.7023230E+02  0.7818608E-02  0.1404531E+00
          2   -1    0    0  502    0  0.00000000000E+00  0.00000000000E+00  0.16716409199E+04  0.16716409199E+04  0.00000000000E+00 0. -1.
          1   -1    0    0  501    0 -0.00000000000E+00 -0.00000000000E+00 -0.65834904854E+02  0.65834904854E+02  0.00000000000E+00 0.  1.
          2    1    1    2  501    0 -0.16286421395E+02  0.37198277609E+02  0.15664607468E+04  0.15669869912E+04  0.00000000000E+00 0. -1.
          1    1    1    2  502    0  0.53268864474E+01 -0.34957259020E+02 -0.10628094234E+02  0.36923462249E+02  0.00000000000E+00 0.  1.
         22    1    1    2    0    0  0.15297889795E+02  0.29972992119E+02  0.81567241867E+02  0.88236163984E+02  0.00000000000E+00 0.  1.
         22    1    1    2    0    0 -0.43383548470E+01 -0.32214010708E+02 -0.31593879462E+02  0.45329207230E+02  0.00000000000E+00 0.  1.
</event>
<event>
 6    1  0.2144783E-005  0.3739472E+02  0.7818608E-02  0.1568152E+00
          2   -1    0    0  502    0  0.00000000000E+00  0.00000000000E+00  0.76525932624E+02  0.76525932624E+02  0.00000000000E+00 0.  1.
          1   -1    0    0  501    0 -0.00000000000E+00 -0.00000000000E+00 -0.32336194901E+03  0.32336194901E+03  0.00000000000E+00 0. -1.
          2    1    1    2  501    0 -0.41108003740E+00  0.28626261508E+02 -0.85297770848E+02  0.89974115979E+02  0.00000000000E+00 0.  1.
          1    1    1    2  502    0 -0.10667563915E+02 -0.27866865550E+02 -0.18274648943E+03  0.18516651564E+03  0.00000000000E+00 0. -1.
         22    1    1    2    0    0  0.20333944703E+02  0.93614860792E+01  0.70298815788E+02  0.73776894960E+02  0.00000000000E+00 0.  1.
         22    1    1    2    0    0 -0.92553007513E+01 -0.10120882037E+02 -0.49090571899E+02  0.50970355056E+02  0.00000000000E+00 0.  1.
</event>
<event>
 6    1  0.2144783E-005  0.7838587E+02  0.7818608E-02  0.1335502E+00
          2   -1    0    0  502    0  0.00000000000E+00  0.00000000000E+00  0.24176902995E+03  0.24176902995E+03  0.00000000000E+00 0. -1.
          1   -1    0    0  501    0 -0.00000000000E+00 -0.00000000000E+00 -0.62807871953E+03  0.62807871953E+03  0.00000000000E+00 0.  1.
          2    1    1    2  501    0 -0.11152458421E+03 -0.15683959265E+03  0.13395266515E+03  0.23447751962E+03  0.00000000000E+00 0. -1.
          1    1    1    2  502    0  0.67557638390E+02  0.19524866931E+03 -0.40728547072E+03  0.45669194434E+03  0.00000000000E+00 0.  1.
         22    1    1    2    0    0  0.13379591495E+02 -0.29750085874E+02 -0.13572381579E+03  0.13958880775E+03  0.00000000000E+00 0. -1.
         22    1    1    2    0    0  0.30587354330E+02 -0.86589907822E+01  0.22746931775E+02  0.39089477758E+02  0.00000000000E+00 0. -1.
</event>
<event>
 6    1  0.2144783E-005  0.9346277E+02  0.7818608E-02  0.1314276E+00
          2   -1    0    0  502    0  0.00000000000E+00  0.00000000000E+00  0.52561175549E+03  0.52561175549E+03  0.00000000000E+00 0. -1.
          1   -1    0    0  501    0 -0.00000000000E+00 -0.00000000000E+00 -0.21878363704E+03  0.21878363704E+03  0.00000000000E+00 0. -1.
          2    1    1    2  501    0  0.18022767985E+03  0.13996320614E+03  0.15015239094E+03  0.27316195958E+03  0.00000000000E+00 0. -1.
          1    1    1    2  502    0 -0.14450815052E+03 -0.12143596650E+03 -0.78209787396E+02  0.20431855122E+03  0.00000000000E+00 0. -1.
         22    1    1    2    0    0 -0.15186149617E+02 -0.41028377426E+02  0.23225531026E+03  0.23633974706E+03  0.00000000000E+00 0. -1.
         22    1    1    2    0    0 -0.20533379709E+02  0.22501137786E+02  0.26302046375E+01  0.30575134675E+02  0.00000000000E+00 0.  1.
</event>
<event>
 6    1  0.2144783E-005  0.5405708E+02  0.7818608E-02  0.1481847E+00
          2   -1    0    0  502    0  0.00000000000E+00  0.00000000000E+00  0.54750774186E+02  0.54750774186E+02  0.00000000000E+00 0.  1.
          1   -1    0    0  501    0 -0.00000000000E+00 -0.00000000000E+00 -0.40706438240E+03  0.40706438240E+03  0.00000000000E+00 0.  1.
          2    1    1    2  501    0  0.75406751714E+02  0.20591882610E+02 -0.10536800484E+03  0.13119687602E+03  0.00000000000E+00 0.  1.
          1    1    1    2  502    0 -0.89460642111E+02 -0.12404785031E+01 -0.13502052875E+03  0.16197311029E+03  0.00000000000E+00 0.  1.
         22    1    1    2    0    0  0.22433498677E+01  0.15058668862E+02  0.23731286401E+02  0.28195213792E+02  0.00000000000E+00 0.  1.
         22    1    1    2    0    0  0.11810540529E+02 -0.34410072970E+02 -0.13565636102E+03  0.14044995648E+03  0.00000000000E+00 0.  1.
</event>
<event>
 6    1  0.2144783E-005  0.5145448E+02  0.7818608E-02  0.1509238E+00
          2   -1    0    0  502    0  0.00000000000E+00  0.00000000000E+00  0.82840344516E+02  0.82840344516E+02  0.00000000000E+00 0.  1.
          1   -1    0    0  501    0 -0.00000000000E+00 -0.00000000000E+00 -0.23663199928E+03  0.23663199928E+03  0.00000000000E+00 0.  1.
          2    1    1    2  501    0 -0.77791597558E+02  0.16439717229E+02 -0.41448643652E+02  0.89664859414E+02  0.00000000000E+00 0.  1.
          1    1    1    2  502    0  0.19306060063E+02 -0.21449428974E+02 -0.88451898471E+02  0.93040530424E+02  0.00000000000E+00 0.  1.
         22    1    1    2    0    0  0.12193329159E+02  0.13955232545E+02 -0.69042147539E+02  0.71485970149E+02  0.00000000000E+00 0.  1.
         22    1    1    2    0    0  0.46292208336E+02 -0.89455208001E+01  0.45151034897E+02  0.65280983810E+02  0.00000000000E+00 0.  1.
</event>
<event>
 6    1  0.2144783E-005  0.5469450E+02  0.7818608E-02  0.1422799E+00
          2   -1    0    0  502    0  0.00000000000E+00  0.00000000000E+00  0.31998841200E+03  0.31998841200E+03  0.00000000000E+00 0. -1.
          1   -1    0    0  501    0 -0.00000000000E+00 -0.00000000000E+00 -0.17954916780E+03  0.17954916780E+03  0.00000000000E+00 0.  1.
          2    1    1    2  501    0 -0.34853799407E+01  0.42986083465E+02  0.26532597825E+03  0.26880815832E+03  0.00000000000E+00 0. -1.
          1    1    1    2  502    0 -0.82197693667E+01 -0.37644371695E+02 -0.10030584275E+03  0.10745196796E+03  0.00000000000E+00 0.  1.
         22    1    1    2    0    0  0.69038959199E+01  0.75626833740E+01  0.48164250758E+02  0.49240765731E+02  0.00000000000E+00 0. -1.
         22    1    1    2    0    0  0.48012533875E+01 -0.12904395144E+02 -0.72745142042E+02  0.74036687789E+02  0.00000000000E+00 0. -1.
</event>
<event>
 6    1  0.2144783E-005  0.1640731E+02  0.7818608E-02  0.1850700E+00
          2   -1    0    0  502    0  0.00000000000E+00  0.00000000000E+00  0.56255152756E+02  0.56255152756E+02  0.00000000000E+00 0.  1.
          1   -1    0    0  501    0 -0.00000000000E+00 -0.00000000000E+00 -0.16332177769E+03  0.16332177769E+03  0.00000000000E+00 0.  1.
          2    1    1    2  501    0  0.20831334222E+02  0.11635817786E+02 -0.12059510621E+02  0.26735155460E+02  0.00000000000E+00 0.  1.
          1    1    1    2  502    0  0.40741864024E+01 -0.20374210808E+02 -0.58942669667E+02  0.62497566100E+02  0.00000000000E+00 0.  1.
         22    1    1    2    0    0 -0.11637335383E+02  0.36487164711E+01  0.45727995569E+02  0.47326422699E+02  0.00000000000E+00 0.  1.
         22    1    1    2    0    0 -0.13268185242E+02  0.50896765515E+01 -0.81792440214E+02  0.83017786186E+02  0.00000000000E+00 0.  1.
</event>
<event>
 6    1  0.2144783E-005  0.8103459E+02  0.7818608E-02  0.1326476E+00
          2   -1    0    0  502    0  0.00000000000E+00  0.00000000000E+00  0.13323017307E+03  0.13323017307E+03  0.00000000000E+00 0.  1.
          1   -1    0    0  501    0 -0.00000000000E+00 -0.00000000000E+00 -0.26923049309E+03  0.26923049309E+03  0.00000000000E+00 0. -1.
          2    1    1    2  501    0  0.56294386261E+02  0.34975643955E+02  0.80901614481E+02  0.10458214389E+03  0.00000000000E+00 0.  1.
          1    1    1    2  502    0 -0.43964363293E+02 -0.11409780021E+02 -0.13676497073E+03  0.14411004662E+03  0.00000000000E+00 0. -1.
         22    1    1    2    0    0 -0.23190243389E+02 -0.26992038503E+02 -0.11327240826E+03  0.11873077109E+03  0.00000000000E+00 0. -1.
         22    1    1    2    0    0  0.10860220420E+02  0.34261745691E+01  0.33135444486E+02  0.35037704563E+02  0.00000000000E+00 0. -1.
</event>
<event>
 6    1  0.2144783E-005  0.5252804E+03  0.7818608E-02  0.1149347E+00
          2   -1    0    0  502    0  0.00000000000E+00  0.00000000000E+00  0.70845775924E+03  0.70845775924E+03  0.00000000000E+00 0. -1.
          1   -1    0    0  501    0 -0.00000000000E+00 -0.00000000000E+00 -0.19293646218E+03  0.19293646218E+03  0.00000000000E+00 0. -1.
          2    1    1    2  501    0  0.19193236973E+03 -0.30136031657E+02  0.14164657016E+03  0.24043703083E+03  0.00000000000E+00 0. -1.
          1    1    1    2  502    0 -0.59580485598E+02  0.18125221657E+03  0.37678398566E+03  0.42233679939E+03  0.00000000000E+00 0. -1.
         22    1    1    2    0    0 -0.14348473705E+03 -0.15065430754E+03 -0.29178589274E+02  0.21008564973E+03  0.00000000000E+00 0. -1.
         22    1    1    2    0    0  0.11132852919E+02 -0.46187736994E+00  0.26269330519E+02  0.28534741470E+02  0.00000000000E+00 0. -1.
</event>
<event>
 6    1  0.2144783E-005  0.8281521E+02  0.7818608E-02  0.1375650E+00
          2   -1    0    0  502    0  0.00000000000E+00  0.00000000000E+00  0.11187256451E+03  0.11187256451E+03  0.00000000000E+00 0. -1.
          1   -1    0    0  501    0 -0.00000000000E+00 -0.00000000000E+00 -0.36689575170E+03  0.36689575170E+03  0.00000000000E+00 0.  1.
          2    1    1    2  501    0 -0.10450191565E+03  0.73721645947E+02 -0.58840566382E+02  0.14077550819E+03  0.00000000000E+00 0. -1.
          1    1    1    2  502    0  0.10138416577E+03 -0.10684024375E+03 -0.12446743342E+03  0.19283601514E+03  0.00000000000E+00 0.  1.
         22    1    1    2    0    0  0.10631111546E+02  0.51926749148E+02 -0.98333748011E+02  0.11170914827E+03  0.00000000000E+00 0.  1.
         22    1    1    2    0    0 -0.75133616669E+01 -0.18808151350E+02  0.26618560613E+02  0.33447644609E+02  0.00000000000E+00 0. -1.
</event>
<event>
 6    1  0.2144783E-005  0.2451729E+02  0.7818608E-02  0.1687903E+00
          2   -1    0    0  502    0  0.00000000000E+00  0.00000000000E+00  0.15757783805E+03  0.15757783805E+03  0.00000000000E+00 0. -1.
          1   -1    0    0  501    0 -0.00000000000E+00 -0.00000000000E+00 -0.96075135910E+02  0.96075135910E+02  0.00000000000E+00 0.  1.
          2    1    1    2  501    0 -0.44043897160E+02 -0.10385856663E+02  0.88198505903E+02  0.99129750021E+02  0.00000000000E+00 0. -1.
          1    1    1    2  502    0  0.27908594875E+02  0.12733019572E+02 -0.45359260411E+01  0.31009580461E+02  0.00000000000E+00 0.  1.
         22    1    1    2    0    0  0.68662002662E+01  0.11406606873E+02  0.48829762245E+02  0.50612262026E+02  0.00000000000E+00 0. -1.
         22    1    1    2    0    0  0.92691020193E+01 -0.13753769783E+02 -0.70989639966E+02  0.72901381454E+02  0.00000000000E+00 0.  1.
</event>
<event>
 6    1  0.2144783E-005  0.7406903E+02  0.7818608E-02  0.1419560E+00
          2   -1    0    0  502    0  0.00000000000E+00  0.00000000000E+00  0.37813619142E+02  0.37813619142E+02  0.00000000000E+00 0.  1.
          1   -1    0    0  501    0 -0.00000000000E+00 -0.00000000000E+00 -0.80902269863E+03  0.80902269863E+03  0.00000000000E+00 0.  1.
          2    1    1    2  501    0 -0.29294606030E+02  0.25434598852E+02 -0.43060815906E+02  0.57959698306E+02  0.00000000000E+00 0.  1.
          1    1    1    2  502    0 -0.12772753182E+02 -0.87765974892E+02 -0.55338137028E+03  0.56044353021E+03  0.00000000000E+00 0.  1.
         22    1    1    2    0    0  0.49171248181E+02  0.40765214718E+02 -0.19042508771E+03  0.20085150836E+03  0.00000000000E+00 0.  1.
         22    1    1    2    0    0 -0.71038889692E+01  0.21566161322E+02  0.15658194417E+02  0.27581580902E+02  0.00000000000E+00 0.  1.
</event>
<event>
 6    1  0.2144783E-005  0.5102783E+02  0.7818608E-02  0.1516546E+00
          2   -1    0    0  502    0  0.00000000000E+00  0.00000000000E+00  0.20609173643E+03  0.20609173643E+03  0.00000000000E+00 0.  1.
          1   -1    0    0  501    0 -0.00000000000E+00 -0.00000000000E+00 -0.10415757273E+03  0.10415757273E+03  0.00000000000E+00 0.  1.
          2    1    1    2  501    0  0.59128311249E+02  0.36573330176E+01  0.29001264461E+02  0.65959128378E+02  0.00000000000E+00 0.  1.
          1    1    1    2  502    0 -0.38851059936E+02  0.26436217773E+02 -0.45371447323E+02  0.65321104556E+02  0.00000000000E+00 0.  1.
         22    1    1    2    0    0 -0.21400809527E+02 -0.47232425556E+02  0.14115778911E+03  0.15038091002E+03  0.00000000000E+00 0.  1.
         22    1    1    2    0    0  0.11235582128E+01  0.17138874766E+02 -0.22853442540E+02  0.28588166209E+02  0.00000000000E+00 0.  1.
</event>
<event>
 6    1  0.2144783E-005  0.8232742E+02  0.7818608E-02  0.1355736E+00
          2   -1    0    0  502    0  0.00000000000E+00  0.00000000000E+00  0.15283773116E+03  0.15283773116E+03  0.00000000000E+00 0. -1.
          1   -1    0    0  501    0 -0.00000000000E+00 -0.00000000000E+00 -0.10879962220E+03  0.10879962220E+03  0.00000000000E+00 0. -1.
          2    1    1    2  501    0  0.46588074954E+02  0.84357142500E+01  0.26170290257E+02  0.54097080282E+02  0.00000000000E+00 0. -1.
          1    1    1    2  502    0 -0.66247221036E+02 -0.23991239909E+02 -0.26908176514E+02  0.75420977524E+02  0.00000000000E+00 0. -1.
         22    1    1    2    0    0  0.34394902430E+02  0.31007355036E+02  0.79121946944E+02  0.91677411982E+02  0.00000000000E+00 0. -1.
         22    1    1    2    0    0 -0.14735756348E+02 -0.15451829376E+02 -0.34345951737E+02  0.40441883573E+02  0.00000000000E+00 0.  1.
</event>
<event>
 6    1  0.2144783E-005  0.1142635E+03  0.7818608E-02  0.1330382E+00
          2   -1    0    0  502    0  0.00000000000E+00  0.00000000000E+00  0.13719125067E+03  0.13719125067E+03  0.00000000000E+00 0.  1.
          1   -1    0    0  501    0 -0.00000000000E+00 -0.00000000000E+00 -0.19525507199E+03  0.19525507199E+03  0.00000000000E+00 0.  1.
          2    1    1    2  501    0  0.52700567663E+02  0.80121550470E+02 -0.10979284701E+02  0.96526459452E+02  0.00000000000E+00 0.  1.
          1    1    1    2  502    0 -0.24724491585E+01 -0.73369743375E+02 -0.64951511558E+02  0.98020054588E+02  0.00000000000E+00 0.  1.
         22    1    1    2    0    0 -0.35313524068E+02 -0.29043092341E+02 -0.48296797514E+02  0.66506592492E+02  0.00000000000E+00 0. -1.
         22    1    1    2    0    0 -0.14914594437E+02  0.22291285245E+02  0.66163772448E+02  0.71393216132E+02  0.00000000000E+00 0.  1.
</event>
<event>
 6    1  0.2144783E-005  0.6370898E+02  0.7818608E-02  0.1471861E+00
          2   -1    0    0  502    0  0.00000000000E+00  0.00000000000E+00  0.89157093364E+02  0.89157093364E+02  0.00000000000E+00 0.  1.
          1   -1    0    0  501    0 -0.00000000000E+00 -0.00000000000E+00 -0.32042841901E+03  0.32042841901E+03  0.00000000000E+00 0.  1.
          2    1    1    2  501    0 -0.47270529879E+02  0.10781593025E+03 -0.36196217146E+02  0.12316226673E+03  0.00000000000E+00 0.  1.
          1    1    1    2  502    0  0.43148472437E+02 -0.54612829535E+02 -0.63873024323E+02  0.94467534422E+02  0.00000000000E+00 0.  1.
         22    1    1    2    0    0  0.58292006056E+01 -0.97246993578E+01  0.26254281698E+02  0.28597843709E+02  0.00000000000E+00 0.  1.
         22    1    1    2    0    0 -0.17071431641E+01 -0.43478401361E+02 -0.15745636588E+03  0.16335786751E+03  0.00000000000E+00 0.  1.
</event>
<event>
 6    1  0.2144783E-005  0.3477206E+02  0.7818608E-02  0.1564867E+00
          2   -1    0    0  502    0  0.00000000000E+00  0.00000000000E+00  0.44322047930E+02  0.44322047930E+02  0.00000000000E+00 0.  1.
          1   -1    0    0  501    0 -0.00000000000E+00 -0.00000000000E+00 -0.28247286964E+03  0.28247286964E+03  0.00000000000E+00 0.  1.
          2    1    1    2  501    0 -0.24937072157E+02 -0.37939385953E+02 -0.64033371854E+02  0.78495396586E+02  0.00000000000E+00 0.  1.
          1    1    1    2  502    0  0.42548141822E+02 -0.75389401878E+01 -0.59266254653E+02  0.73346226435E+02  0.00000000000E+00 0.  1.
         22    1    1    2    0    0  0.10027621017E+02  0.27228201015E+02  0.20552666973E+02  0.35557562254E+02  0.00000000000E+00 0.  1.
         22    1    1    2    0    0 -0.27638690682E+02  0.18250125126E+02 -0.13540386218E+03  0.13939573230E+03  0.00000000000E+00 0. -1.
</event>
<event>
 6    1  0.2144783E-005  0.2220687E+02  0.7818608E-02  0.1718752E+00
          2   -1    0    0  502    0  0.00000000000E+00  0.00000000000E+00  0.93964229120E+02  0.93964229120E+02  0.00000000000E+00 0. -1.
          1   -1    0    0  501    0 -0.00000000000E+00 -0.00000000000E+00 -0.19443789794E+03  0.19443789794E+03  0.00000000000E+00 0. -1.
          2    1    1    2  501    0 -0.15750428257E+02 -0.19380988550E+02 -0.65477763794E+01  0.25818057304E+02  0.00000000000E+00 0. -1.
          1    1    1    2  502    0  0.12409783259E+02  0.19460384486E+02 -0.12758127200E+03  0.12965218953E+03  0.00000000000E+00 0. -1.
         22    1    1    2    0    0  0.21282312785E+02  0.66681849188E+01  0.79856362080E+02  0.82912243319E+02  0.00000000000E+00 0. -1.
         22    1    1    2    0    0 -0.17941667787E+02 -0.67475808549E+01 -0.46200982521E+02  0.50019636907E+02  0.00000000000E+00 0. -1.
</event>
<event>
 6    1  0.2144783E-005  0.9741476E+02  0.7818608E-02  0.1391167E+00
          2   -1    0    0  502    0  0.00000000000E+00  0.00000000000E+00  0.65676987787E+02  0.65676987787E+02  0.00000000000E+00 0. -1.
          1   -1    0    0  501    0 -0.00000000000E+00 -0.00000000000E+00 -0.25838577329E+03  0.25838577329E+03  0.00000000000E+00 0. -1.
          2    1    1    2  501    0  0.56018698381E+02 -0.61195817330E+02 -0.72949851362E+02  0.11047489960E+03  0.00000000000E+00 0. -1.
          1    1    1    2  502    0 -0.24778105616E+02  0.34460958504E+02 -0.34605126502E+02  0.54763372424E+02  0.00000000000E+00 0. -1.
         22    1    1    2    0    0  0.34808558948E+01 -0.15199935098E+02  0.28677816563E+02  0.32643093413E+02  0.00000000000E+00 0. -1.
         22    1    1    2    0    0 -0.34721448660E+02  0.41934793923E+02 -0.11383162420E+03  0.12618139564E+03  0.00000000000E+00 0. -1.
</event>
<event>
 6    1  0.2144783E-005  0.6454741E+02  0.7818608E-02  0.1434321E+00
          2   -1    0    0  502    0  0.00000000000E+00  0.00000000000E+00  0.31951099166E+03  0.31951099166E+03  0.00000000000E+00 0. -1.
          1   -1    0    0  501    0 -0.00000000000E+00 -0.00000000000E+00 -0.11071065313E+03  0.11071065313E+03  0.00000000000E+00 0. -1.
          2    1    1    2  501    0 -0.12252819872E+01 -0.10616187311E+03  0.21079687451E+02  0.10824138691E+03  0.00000000000E+00 0. -1.
          1    1    1    2  502    0  0.40432971386E+02  0.12079884139E+03  0.81664998905E+02  0.15131542321E+03  0.00000000000E+00 0. -1.
         22    1    1    2    0    0 -0.11497322343E+02  0.11307782756E+02 -0.27466938664E+02  0.31851013979E+02  0.00000000000E+00 0.  1.
         22    1    1    2    0    0 -0.27710367056E+02 -0.25944751038E+02  0.13352259084E+03  0.13881382068E+03  0.00000000000E+00 0. -1.
</event>
<event>
 6    1  0.2144783E-005  0.2547954E+02  0.7818608E-02  0.1714508E+00
          2   -1    0    0  502    0  0.00000000000E+00  0.00000000000E+00  0.97432700483E+02  0.97432700483E+02  0.00000000000E+00 0.  1.
          1   -1    0    0  501    0 -0.00000000000E+00 -0.00000000000E+00 -0.85063164161E+03  0.85063164161E+03  0.00000000000E+00 0.  1.
          2    1    1    2  501    0  0.73047138643E+01  0.29323354406E+02 -0.51261412317E+02  0.59505885012E+02  0.00000000000E+00 0.  1.
          1    1    1    2  502    0 -0.15856091056E+02 -0.24021944224E+02 -0.75527555357E+03  0.75582380966E+03  0.00000000000E+00 0.  1.
         22    1    1    2    0    0 -0.10347745545E+02  0.18954463638E+01 -0.37873884679E+02  0.39307756174E+02  0.00000000000E+00 0.  1.
         22    1    1    2    0    0  0.18899122736E+02 -0.71968565458E+01  0.91211909440E+02  0.93426891247E+02  0.00000000000E+00 0.  1.
</event>
<event>
 6    1  0.2144783E-005  0.1117003E+03  0.7818608E-02  0.1314736E+00
          2   -1    0    0  502    0  0.00000000000E+00  0.00000000000E+00  0.17344496964E+03  0.17344496964E+03  0.00000000000E+00 0. -1.
          1   -1    0    0  501    0 -0.00000000000E+00 -0.00000000000E+00 -0.17599567088E+03  0.17599567088E+03  0.00000000000E+00 0.  1.
          2    1    1    2  501    0  0.32994071703E+02  0.10961589857E+02 -0.34694434135E+00  0.34769032056E+02  0.00000000000E+00 0. -1.
          1    1    1    2  502    0 -0.77233829727E+02 -0.32109254292E+01 -0.11743185015E+03  0.14059023411E+03  0.00000000000E+00 0.  1.
         22    1    1    2    0    0  0.20264996349E+02 -0.32060255986E+02  0.13106624500E+03  0.13644372712E+03  0.00000000000E+00 0. -1.
         22    1    1    2    0    0  0.23974761675E+02  0.24309591559E+02 -0.15838151749E+02  0.37637647243E+02  0.00000000000E+00 0. -1.
</event>
<event>
 6    1  0.2144783E-005  0.5711862E+02  0.7818608E-02  0.1430866E+00
          2   -1    0    0  502    0  0.00000000000E+00  0.00000000000E+00  0.16824440980E+03  0.16824440980E+03  0.00000000000E+00 0. -1.
          1   -1    0    0  501    0 -0.00000000000E+00 -0.00000000000E+00 -0.13615746800E+03  0.13615746800E+03  0.00000000000E+00 0.  1.
          2    1    1    2  501    0  0.28072937066E+01  0.27959450617E+02  0.70729155865E+02  0.76106670313E+02  0.00000000000E+00 0. -1.
          1    1    1    2  502    0  0.19683119629E+02 -0.38617330508E+02 -0.86086992443E+02  0.96383057026E+02  0.00000000000E+00 0.  1.
         22    1    1    2    0    0 -0.36141407403E+02  0.20728618996E+02  0.82803531108E+02  0.92694669417E+02  0.00000000000E+00 0. -1.
         22    1    1    2    0    0  0.13650994067E+02 -0.10070739105E+02 -0.35358752731E+02  0.39217481049E+02  0.00000000000E+00 0. -1.
</event>
<event>
 6    1  0.2144783E-005  0.5881631E+02  0.7818608E-02  0.1466822E+00
          2   -1    0    0  502    0  0.00000000000E+00  0.00000000000E+00  0.44066977228E+02  0.44066977228E+02  0.00000000000E+00 0.  1.
          1   -1    0    0  501    0 -0.00000000000E+00 -0.00000000000E+00 -0.49502034192E+03  0.49502034192E+03  0.00000000000E+00 0.  1.
          2    1    1    2  501    0 -0.94457773904E+01 -0.40291208128E+02 -0.28483728660E+02  0.50238699837E+02  0.00000000000E+00 0.  1.
          1    1    1    2  502    0  0.26073939980E+02  0.30883386280E+02 -0.33721470167E+03  0.33962830995E+03  0.00000000000E+00 0.  1.
         22    1    1    2    0    0  0.31865561440E+01  0.19948581258E+02 -0.11228450957E+03  0.11408729606E+03  0.00000000000E+00 0. -1.
         22    1    1    2    0    0 -0.19814718733E+02 -0.10540759410E+02  0.27029575209E+02  0.35133013298E+02  0.00000000000E+00 0.  1.
</event>
<event>
 6    1  0.2144783E-005  0.8262558E+02  0.7818608E-02  0.1375630E+00
          2   -1    0    0  502    0  0.00000000000E+00  0.00000000000E+00  0.11389093577E+04  0.11389093577E+04  0.00000000000E+00 0.  1.
          1   -1    0    0  501    0 -0.00000000000E+00 -0.00000000000E+00 -0.87905020454E+02  0.87905020454E+02  0.00000000000E+00 0.  1.
          2    1    1    2  501    0 -0.47515493307E+02 -0.65651379828E+01  0.96352822720E+03  0.96472144568E+03  0.00000000000E+00 0.  1.
          1    1    1    2  502    0  0.49899728856E+02 -0.36889866260E+01 -0.52138155442E+02  0.72263260480E+02  0.00000000000E+00 0.  1.
         22    1    1    2    0    0  0.30244553104E+02  0.61693271776E+01 -0.13160658161E+02  0.33555871520E+02  0.00000000000E+00 0.  1.
         22    1    1    2    0    0 -0.32628788653E+02  0.40847974312E+01  0.15277492369E+03  0.15627380052E+03  0.00000000000E+00 0.  1.
</event>
<event>
 6    1  0.2144783E-005  0.2636650E+02  0.7818608E-02  0.1701700E+00
          2   -1    0    0  502    0  0.00000000000E+00  0.00000000000E+00  0.92424800488E+02  0.92424800488E+02  0.00000000000E+00 0. -1.
          1   -1    0    0  501    0 -0.00000000000E+00 -0.00000000000E+00 -0.16296385310E+03  0.16296385310E+03  0.00000000000E+00 0. -1.
          2    1    1    2  501    0  0.19311787897E+02 -0.16484976973E+02  0.16757695912E+02  0.30422360031E+02  0.00000000000E+00 0. -1.
          1    1    1    2  502    0 -0.22948539852E+02 -0.61747555066E+00 -0.99967537143E+02  0.10256961168E+03  0.00000000000E+00 0. -1.
         22    1    1    2    0    0  0.20851340427E+01  0.30709420552E+02  0.63064542591E+02  0.70175158189E+02  0.00000000000E+00 0. -1.
         22    1    1    2    0    0  0.15516179124E+01 -0.13606968028E+02 -0.50393753972E+02  0.52221523690E+02  0.00000000000E+00 0. -1.
</event>
<event>
 6    1  0.2144783E-005  0.2507502E+02  0.7818608E-02  0.1685665E+00
          2   -1    0    0  502    0  0.00000000000E+00  0.00000000000E+00  0.76820919549E+02  0.76820919549E+02  0.00000000000E+00 0.  1.
          1   -1    0    0  501    0 -0.00000000000E+00 -0.00000000000E+00 -0.13750402774E+03  0.13750402774E+03  0.00000000000E+00 0.  1.
          2    1    1    2  501    0 -0.15605977517E+01  0.27545961681E+02  0.23487919694E+02  0.36233932188E+02  0.00000000000E+00 0.  1.
          1    1    1    2  502    0  0.13712947296E+02 -0.22812366720E+02 -0.36993377109E+02  0.45573665080E+02  0.00000000000E+00 0.  1.
         22    1    1    2    0    0 -0.65704306691E+01 -0.17296691986E+02 -0.87749870339E+02  0.89679350228E+02  0.00000000000E+00 0. -1.
         22    1    1    2    0    0 -0.55819188746E+01  0.12563097024E+02  0.40572219568E+02  0.42837999788E+02  0.00000000000E+00 0.  1.
</event>
<event>
 6    1  0.2144783E-005  0.7798068E+02  0.7818608E-02  0.1348837E+00
          2   -1    0    0  502    0  0.00000000000E+00  0.00000000000E+00  0.11979618087E+03  0.11979618087E+03  0.00000000000E+00 0.  1.
          1   -1    0    0  501    0 -0.00000000000E+00 -0.00000000000E+00 -0.84928416696E+03  0.84928416696E+03  0.00000000000E+00 0.  1.
          2    1    1    2  501    0  0.49977784549E+02 -0.18773985573E+03 -0.35066586128E+03  0.40088723932E+03  0.00000000000E+00 0.  1.
          1    1    1    2  502    0 -0.93066054140E+02  0.19846147113E+03 -0.37471127187E+03  0.43411609417E+03  0.00000000000E+00 0.  1.
         22    1    1    2    0    0  0.21338844256E+02  0.94240272707E+01 -0.63527536444E+02  0.67675006101E+02  0.00000000000E+00 0.  1.
         22    1    1    2    0    0  0.21749425335E+02 -0.20145642667E+02  0.59416683495E+02  0.66402008240E+02  0.00000000000E+00 0.  1.
</event>
<event>
 6    1  0.2144783E-005  0.1152694E+03  0.7818608E-02  0.1263426E+00
          2   -1    0    0  502    0  0.00000000000E+00  0.00000000000E+00  0.70466596282E+02  0.70466596282E+02  0.00000000000E+00 0.  1.
          1   -1    0    0  501    0 -0.00000000000E+00 -0.00000000000E+00 -0.13511657830E+04  0.13511657830E+04  0.00000000000E+00 0.  1.
          2    1    1    2  501    0 -0.64228436914E+02  0.26766628173E+02  0.19135676547E+02  0.72165910298E+02  0.00000000000E+00 0.  1.
          1    1    1    2  502    0  0.11321576641E+03  0.71213038628E+02 -0.99508363454E+03  0.10040321441E+04  0.00000000000E+00 0.  1.
         22    1    1    2    0    0 -0.20678915868E+02 -0.15313151246E+01  0.36601581245E+01  0.21056097572E+02  0.00000000000E+00 0.  1.
         22    1    1    2    0    0 -0.28308413632E+02 -0.96448351676E+02 -0.30841138689E+03  0.32437822736E+03  0.00000000000E+00 0.  1.
</event>
<event>
 6    1  0.2144783E-005  0.7020023E+02  0.7818608E-02  0.1436130E+00
          2   -1    0    0  502    0  0.00000000000E+00  0.00000000000E+00  0.45568601954E+03  0.45568601954E+03  0.00000000000E+00 0.  1.
          1   -1    0    0  501    0 -0.00000000000E+00 -0.00000000000E+00 -0.45515353215E+02  0.45515353215E+02  0.00000000000E+00 0. -1.
          2    1    1    2  501    0 -0.35103926234E+02  0.36177767377E+01  0.25336532856E+03  0.25581118752E+03  0.00000000000E+00 0.  1.
          1    1    1    2  502    0  0.45737592951E+02  0.18145550587E+02  0.96349288051E+01  0.50140006662E+02  0.00000000000E+00 0. -1.
         22    1    1    2    0    0 -0.30937384104E+02 -0.17583487033E+02  0.16445441930E+03  0.16826038387E+03  0.00000000000E+00 0. -1.
         22    1    1    2    0    0  0.20303717388E+02 -0.41798402918E+01 -0.17284010341E+02  0.26989794703E+02  0.00000000000E+00 0. -1.
</event>
<event>
 6    1  0.2144783E-005  0.4583184E+02  0.7818608E-02  0.1482128E+00
          2   -1    0    0  502    0  0.00000000000E+00  0.00000000000E+00  0.15629468053E+03  0.15629468053E+03  0.00000000000E+00 0. -1.
          1   -1    0    0  501    0 -0.00000000000E+00 -0.00000000000E+00 -0.91039670625E+03  0.91039670625E+03  0.00000000000E+00 0.  1.
          2    1    1    2  501    0  0.86801081342E+02  0.90587824186E+02  0.55667165136E+02  0.13725674806E+03  0.00000000000E+00 0. -1.
          1    1    1    2  502    0 -0.10980574724E+03 -0.71882854393E+02 -0.78434758273E+03  0.79525189558E+03  0.00000000000E+00 0.  1.
         22    1    1    2    0    0  0.13507385799E+02 -0.90451278425E+01  0.52568621932E+02  0.55024756434E+02  0.00000000000E+00 0. -1.
         22    1    1    2    0    0  0.94972801038E+01 -0.96598419505E+01 -0.77990230054E+02  0.79157986709E+02  0.00000000000E+00 0.  1.
</event>
<event>
 6    1  0.2144783E-005  0.1412743E+03  0.7818608E-02  0.1248249E+00
          2   -1    0    0  502    0  0.00000000000E+00  0.00000000000E+00  0.81156351037E+02  0.81156351037E+02  0.00000000000E+00 0.  1.
          1   -1    0    0  501    0 -0.00000000000E+00 -0.00000000000E+00 -0.30951701149E+03  0.30951701149E+03  0.00000000000E+00 0.  1.
          2    1    1    2  501    0 -0.10413237982E+03 -0.36334129234E+02 -0.62153712326E+02  0.12659701983E+03  0.00000000000E+00 0.  1.
          1    1    1    2  502    0  0.63899014929E+02  0.24034946901E+02 -0.26475803060E+02  0.73223841261E+02  0.00000000000E+00 0.  1.
         22    1    1    2    0    0 -0.23002800808E+02  0.32222220208E+02 -0.11234844502E+03  0.11911999588E+03  0.00000000000E+00 0.  1.
         22    1    1    2    0    0  0.63236165700E+02 -0.19923037875E+02 -0.27382700039E+02  0.71732505547E+02  0.00000000000E+00 0.  1.
</event>
<event>
 6    1  0.2144783E-005  0.7517011E+02  0.7818608E-02  0.1409236E+00
          2   -1    0    0  502    0  0.00000000000E+00  0.00000000000E+00  0.88286490324E+02  0.88286490324E+02  0.00000000000E+00 0. -1.
          1   -1    0    0  501    0 -0.00000000000E+00 -0.00000000000E+00 -0.13616782742E+03  0.13616782742E+03  0.00000000000E+00 0. -1.
          2    1    1    2  501    0 -0.60454003057E+02 -0.15076725375E+02  0.95675021236E+00  0.62312996274E+02  0.00000000000E+00 0. -1.
          1    1    1    2  502    0  0.21599668720E+02  0.42869745989E+01 -0.19565931497E+02  0.29457588417E+02  0.00000000000E+00 0. -1.
         22    1    1    2    0    0 -0.94885081364E+01 -0.23662611457E+02  0.36219144837E+02  0.44291956610E+02  0.00000000000E+00 0.  1.
         22    1    1    2    0    0  0.48342842474E+02  0.34452362233E+02 -0.65491300648E+02  0.88391776441E+02  0.00000000000E+00 0. -1.
</event>
<event>
 6    1  0.2144783E-005  0.6087588E+02  0.7818608E-02  0.1470442E+00
          2   -1    0    0  502    0  0.00000000000E+00  0.00000000000E+00  0.15110228554E+03  0.15110228554E+03  0.00000000000E+00 0. -1.
          1   -1    0    0  501    0 -0.00000000000E+00 -0.00000000000E+00 -0.58479917268E+02  0.58479917268E+02  0.00000000000E+00 0. -1.
          2    1    1    2  501    0  0.49031622500E+01  0.27279953514E+02  0.22629331823E+02  0.35781608719E+02  0.00000000000E+00 0. -1.
          1    1    1    2  502    0  0.15355901121E+02 -0.18849882599E+02 -0.92649903453E+01  0.26018489951E+02  0.00000000000E+00 0. -1.
         22    1    1    2    0    0 -0.35934312307E+02 -0.19547445163E+02 -0.20802750513E+02  0.45892612066E+02  0.00000000000E+00 0. -1.
         22    1    1    2    0    0  0.15675248936E+02  0.11117374248E+02  0.10006077731E+03  0.10188949207E+03  0.00000000000E+00 0. -1.
</event>
<event>
 6    1  0.2144783E-005  0.6162657E+02  0.7818608E-02  0.1424259E+00
          2   -1    0    0  502    0  0.00000000000E+00  0.00000000000E+00  0.95497669435E+02  0.95497669435E+02  0.00000000000E+00 0. -1.
          1   -1    0    0  501    0 -0.00000000000E+00 -0.00000000000E+00 -0.39198013787E+03  0.39198013787E+03  0.00000000000E+00 0. -1.
          2    1    1    2  501    0 -0.61669833539E+02  0.51449151761E+02 -0.22758864861E+03  0.24134368970E+03  0.00000000000E+00 0. -1.
          1    1    1    2  502    0  0.28894897945E+02 -0.22027891854E+02 -0.99711913035E+02  0.10612543874E+03  0.00000000000E+00 0. -1.
         22    1    1    2    0    0  0.19367687375E+02 -0.31151749146E+02  0.80530364559E+02  0.88491120487E+02  0.00000000000E+00 0. -1.
         22    1    1    2    0    0  0.13407248219E+02  0.17304892385E+01 -0.49712271357E+02  0.51517558378E+02  0.00000000000E+00 0. -1.
</event>
<event>
 6    1  0.2144783E-005  0.5651266E+02  0.7818608E-02  0.1420864E+00
          2   -1    0    0  502    0  0.00000000000E+00  0.00000000000E+00  0.11065345050E+03  0.11065345050E+03  0.00000000000E+00 0. -1.
          1   -1    0    0  501    0 -0.00000000000E+00 -0.00000000000E+00 -0.18972146610E+03  0.18972146610E+03  0.00000000000E+00 0. -1.
          2    1    1    2  501    0 -0.10521176760E+02 -0.36247481748E+02 -0.86094610112E+02  0.94004558314E+02  0.00000000000E+00 0. -1.
          1    1    1    2  502    0  0.44177431631E+02  0.44165096900E+02 -0.32209983399E+02  0.70282887535E+02  0.00000000000E+00 0. -1.
         22    1    1    2    0    0 -0.45381466787E+02 -0.21244906400E+02  0.78425041156E+02  0.93066162788E+02  0.00000000000E+00 0. -1.
         22    1    1    2    0    0  0.11725211916E+02  0.13327291248E+02 -0.39188463248E+02  0.43021307956E+02  0.00000000000E+00 0.  1.
</event>
<event>
 6    1  0.2144783E-005  0.2186652E+03  0.7818608E-02  0.1238069E+00
          2   -1    0    0  502    0  0.00000000000E+00  0.00000000000E+00  0.41937295507E+02  0.41937295507E+02  0.00000000000E+00 0. -1.
          1   -1    0    0  501    0 -0.00000000000E+00 -0.00000000000E+00 -0.14222911904E+04  0.14222911904E+04  0.00000000000E+00 0. -1.
          2    1    1    2  501    0  0.17557148195E+03  0.25998690132E+02 -0.29213397378E+03  0.34182383738E+03  0.00000000000E+00 0. -1.
          1    1    1    2  502    0 -0.70398536415E+02  0.32783524684E+02 -0.58582819478E+03  0.59095294840E+03  0.00000000000E+00 0. -1.
         22    1    1    2    0    0 -0.12439021880E+03 -0.48149217588E+02 -0.48620306565E+03  0.50416732811E+03  0.00000000000E+00 0. -1.
         22    1    1    2    0    0  0.19217273266E+02 -0.10632997227E+02 -0.16188660670E+02  0.27284372013E+02  0.00000000000E+00 0. -1.
</event>
<event>
 6    1  0.2144783E-005  0.1033013E+03  0.7818608E-02  0.1284115E+00
          2   -1    0    0  502    0  0.00000000000E+00  0.00000000000E+00  0.66264032645E+03  0.66264032645E+03  0.00000000000E+00 0. -1.
          1   -1    0    0  501    0 -0.00000000000E+00 -0.00000000000E+00 -0.26051628445E+03  0.26051628445E+03  0.00000000000E+00 0. -1.
          2    1    1    2  501    0 -0.50977867358E+02  0.18673925244E+03  0.33625994053E+03  0.38799618421E+03  0.00000000000E+00 0. -1.
          1    1    1    2  502    0  0.11617493197E+03 -0.23306825553E+03 -0.13016599681E+03  0.29113676044E+03  0.00000000000E+00 0. -1.
         22    1    1    2    0    0 -0.43046914767E+02  0.14852741898E+02  0.13309575919E+01  0.45556692823E+02  0.00000000000E+00 0.  1.
         22    1    1    2    0    0 -0.22150149849E+02  0.31476261198E+02  0.19469914068E+03  0.19846697342E+03  0.00000000000E+00 0. -1.
</event>
<event>
 6    1  0.2144783E-005  0.1117196E+03  0.7818608E-02  0.1323838E+00
          2   -1    0    0  502    0  0.00000000000E+00  0.00000000000E+00  0.82443975965E+02  0.82443975965E+02  0.00000000000E+00 0. -1.
          1   -1    0    0  501    0 -0.00000000000E+00 -0.00000000000E+00 -0.48793426896E+03  0.48793426896E+03  0.00000000000E+00 0.  1.
          2    1    1    2  501    0  0.11649606346E+03  0.23010629665E+01 -0.10221143991E+03  0.15499614879E+03  0.00000000000E+00 0. -1.
          1    1    1    2  502    0 -0.90923056253E+02  0.22006443534E+02 -0.26488435289E+03  0.28091814844E+03  0.00000000000E+00 0.  1.
         22    1    1    2    0    0 -0.12522972086E+02  0.51432775311E+01 -0.80398385031E+02  0.81530230278E+02  0.00000000000E+00 0. -1.
         22    1    1    2    0    0 -0.13050035124E+02 -0.29450784032E+02  0.42003884842E+02  0.52933717408E+02  0.00000000000E+00 0. -1.
</event>
<event>
 6    1  0.2144783E-005  0.1049130E+03  0.7818608E-02  0.1300488E+00
          2   -1    0    0  502    0  0.00000000000E+00  0.00000000000E+00  0.16175739665E+04  0.16175739665E+04  0.00000000000E+00 0. -1.
          1   -1    0    0  501    0 -0.00000000000E+00 -0.00000000000E+00 -0.56618979880E+02  0.56618979880E+02  0.00000000000E+00 0. -1.
          2    1    1    2  501    0 -0.96232912308E+02  0.51635014544E+02  0.14464932633E+04  0.14506101161E+04  0.00000000000E+00 0. -1.
          1    1    1    2  502    0  0.13061022995E+02 -0.23120196883E+02 -0.56818686085E+01  0.27155431436E+02  0.00000000000E+00 0. -1.
         22    1    1    2    0    0  0.88227720616E+02  0.35272095679E+01  0.13454851061E+03  0.16093437669E+03  0.00000000000E+00 0.  1.
         22    1    1    2    0    0 -0.50558313026E+01 -0.32042027228E+02 -0.14404918693E+02  0.35493022154E+02  0.00000000000E+00 0. -1.
</event>
<event>
 6    1  0.2144783E-005  0.4721095E+02  0.7818608E-02  0.1537140E+00
          2   -1    0    0  502    0  0.00000000000E+00  0.00000000000E+00  0.72617288180E+02  0.72617288180E+02  0.00000000000E+00 0.  1.
          1   -1    0    0  501    0 -0.00000000000E+00 -0.00000000000E+00 -0.21076871477E+03  0.21076871477E+03  0.00000000000E+00 0. -1.
          2    1    1    2  501    0 -0.18020137392E+02  0.43139915638E+02  0.11925836228E+02  0.48249385930E+02  0.00000000000E+00 0.  1.
          1    1    1    2  502    0  0.75590538398E+01 -0.27624696184E+02 -0.98192341020E+02  0.10228391354E+03  0.00000000000E+00 0. -1.
         22    1    1    2    0    0  0.16496803629E+02  0.12738200407E+01  0.37877902087E+02  0.41334036991E+02  0.00000000000E+00 0.  1.
         22    1    1    2    0    0 -0.60357200766E+01 -0.16789039495E+02 -0.89762823889E+02  0.91518666493E+02  0.00000000000E+00 0. -1.
</event>
<event>
 6    1  0.2144783E-005  0.1439305E+03  0.7818608E-02  0.1301420E+00
          2   -1    0    0  502    0  0.00000000000E+00  0.00000000000E+00  0.97025679454E+02  0.97025679454E+02  0.00000000000E+00 0.  1.
          1   -1    0    0  501    0 -0.00000000000E+00 -0.00000000000E+00 -0.61335633925E+03  0.61335633925E+03  0.00000000000E+00 0.  1.
          2    1    1    2  501    0  0.11143039000E+03 -0.43831561461E+02 -0.41776137068E+02  0.12681949071E+03  0.00000000000E+00 0.  1.
          1    1    1    2  502    0 -0.12537727474E+03  0.23057180662E+02 -0.42264497605E+03  0.44145200235E+03  0.00000000000E+00 0.  1.
         22    1    1    2    0    0 -0.83352622249E+01  0.17052336410E+02 -0.93162848623E+02  0.95076680300E+02  0.00000000000E+00 0. -1.
         22    1    1    2    0    0  0.22282146961E+02  0.37220443885E+01  0.41253301936E+02  0.47033845349E+02  0.00000000000E+00 0. -1.
</event>
<event>
 6    1  0.2144783E-005  0.3775068E+02  0.7818608E-02  0.1534307E+00
          2   -1    0    0  502    0  0.00000000000E+00  0.00000000000E+00  0.95910067529E+02  0.95910067529E+02  0.00000000000E+00 0.  1.
          1   -1    0    0  501    0 -0.00000000000E+00 -0.00000000000E+00 -0.30863745070E+03  0.30863745070E+03  0.00000000000E+00 0. -1.
          2    1    1    2  501    0 -0.46533028016E+02 -0.10103546488E+02 -0.84869602665E+01  0.48367683866E+02  0.00000000000E+00 0.  1.
          1    1    1    2  502    0  0.33457895624E+02  0.30179628353E+02 -0.22620119435E+03  0.23064522773E+03  0.00000000000E+00 0. -1.
         22    1    1    2    0    0 -0.88265576464E+01 -0.23375549400E+02  0.69085062942E+02  0.73464755845E+02  0.00000000000E+00 0.  1.
         22    1    1    2    0    0  0.21901690038E+02  0.32994675353E+01 -0.47124291499E+02  0.52069850795E+02  0.00000000000E+00 0. -1.
</event>
<event>
 6    1  0.2144783E-005  0.6565231E+02  0.7818608E-02  0.1447992E+00
          2   -1    0    0  502    0  0.00000000000E+00  0.00000000000E+00  0.15610407185E+03  0.15610407185E+03  0.00000000000E+00 0.  1.
          1   -1    0    0  501    0 -0.00000000000E+00 -0.00000000000E+00 -0.35849841842E+03  0.35849841842E+03  0.00000000000E+00 0.  1.
          2    1    1    2  501    0 -0.75437327185E+02  0.57302088348E+01  0.10921543301E+03  0.13285946121E+03  0.00000000000E+00 0.  1.
          1    1    1    2  502    0  0.38442322854E+02 -0.10857951591E+02 -0.21150162236E+03  0.21524089658E+03  0.00000000000E+00 0.  1.
         22    1    1    2    0    0  0.19123315388E+02  0.16599352058E+02 -0.12854225868E+03  0.13101279306E+03  0.00000000000E+00 0. -1.
         22    1    1    2    0    0  0.17871688944E+02 -0.11471609301E+02  0.28434101468E+02  0.35489339412E+02  0.00000000000E+00 0. -1.
</event>
<event>
 6    1  0.2144783E-005  0.1875119E+03  0.7818608E-02  0.1260747E+00
          2   -1    0    0  502    0  0.00000000000E+00  0.00000000000E+00  0.56699865615E+03  0.56699865615E+03  0.00000000000E+00 0. -1.
          1   -1    0    0  501    0 -0.00000000000E+00 -0.00000000000E+00 -0.58923784553E+03  0.58923784553E+03  0.00000000000E+00 0. -1.
          2    1    1    2  501    0 -0.11579865421E+03 -0.24956255080E+03 -0.12813706641E+03  0.30349613320E+03  0.00000000000E+00 0. -1.
          1    1    1    2  502    0  0.72179305989E+02  0.34190741264E+03 -0.27188339285E+03  0.44275400658E+03  0.00000000000E+00 0. -1.
         22    1    1    2    0    0  0.55245831320E+02 -0.98908711283E+02  0.37993137534E+03  0.39646296802E+03  0.00000000000E+00 0. -1.
         22    1    1    2    0    0 -0.11626483099E+02  0.65638494394E+01 -0.21501054517E+01  0.13523393885E+02  0.00000000000E+00 0. -1.
</event>
<event>
 6    1  0.2144783E-005  0.4869304E+02  0.7818608E-02  0.1485983E+00
          2   -1    0    0  502    0  0.00000000000E+00  0.00000000000E+00  0.14373066490E+03  0.14373066490E+03  0.00000000000E+00 0.  1.
          1   -1    0    0  501    0 -0.00000000000E+00 -0.00000000000E+00 -0.96078620773E+02  0.96078620773E+02  0.00000000000E+00 0.  1.
          2    1    1    2  501    0 -0.51792617381E+02 -0.28707755088E+02 -0.18367547154E+02  0.61999816175E+02  0.00000000000E+00 0.  1.
          1    1    1    2  502    0  0.97271930473E+01  0.19685501641E+02 -0.12250777846E+02  0.25143961845E+02  0.00000000000E+00 0.  1.
         22    1    1    2    0    0  0.12813430201E+02  0.16255686988E+02 -0.32133706066E+02  0.38223113668E+02  0.00000000000E+00 0.  1.
         22    1    1    2    0    0  0.29251994132E+02 -0.72334335417E+01  0.11040407519E+03  0.11444239398E+03  0.00000000000E+00 0.  1.
</event>
<event>
 6    1  0.2144783E-005  0.3518529E+02  0.7818608E-02  0.1591024E+00
          2   -1    0    0  502    0  0.00000000000E+00  0.00000000000E+00  0.21951383026E+03  0.21951383026E+03  0.00000000000E+00 0. -1.
          1   -1    0    0  501    0 -0.00000000000E+00 -0.00000000000E+00 -0.96600034769E+02  0.96600034769E+02  0.00000000000E+00 0. -1.
          2    1    1    2  501    0  0.14985930817E+02  0.17749558565E+02  0.12275415550E+03  0.12493281252E+03  0.00000000000E+00 0. -1.
          1    1    1    2  502    0  0.24430590267E+02  0.16279814401E+02 -0.38626750928E+02  0.48517130840E+02  0.00000000000E+00 0. -1.
         22    1    1    2    0    0  0.83428131113E+01  0.13141614217E+02 -0.37766342498E+02  0.40848515034E+02  0.00000000000E+00 0. -1.
         22    1    1    2    0    0 -0.47759334195E+02 -0.47170987182E+02  0.76552733415E+02  0.10181540663E+03  0.00000000000E+00 0. -1.
</event>
<event>
 6    1  0.2144783E-005  0.3513620E+02  0.7818608E-02  0.1595884E+00
          2   -1    0    0  502    0  0.00000000000E+00  0.00000000000E+00  0.15874346742E+03  0.15874346742E+03  0.00000000000E+00 0. -1.
          1   -1    0    0  501    0 -0.00000000000E+00 -0.00000000000E+00 -0.10678643480E+03  0.10678643480E+03  0.00000000000E+00 0. -1.
          2    1    1    2  501    0  0.23542133245E+02  0.10575141580E+02  0.46568450730E+02  0.53241771764E+02  0.00000000000E+00 0. -1.
          1    1    1    2  502    0 -0.16051020510E+02 -0.16881982893E+02 -0.63349505617E+02  0.67496640418E+02  0.00000000000E+00 0. -1.
         22    1    1    2    0    0 -0.27193672974E+01 -0.12267327785E+02 -0.36094611525E+02  0.38219147958E+02  0.00000000000E+00 0. -1.
         22    1    1    2    0    0 -0.47717454373E+01  0.18574169097E+02  0.10483269902E+03  0.10657234208E+03  0.00000000000E+00 0.  1.
</event>
<event>
 6    1  0.2144783E-005  0.1037212E+03  0.7818608E-02  0.1401854E+00
          2   -1    0    0  502    0  0.00000000000E+00  0.00000000000E+00  0.23414109566E+03  0.23414109566E+03  0.00000000000E+00 0.  1.
          1   -1    0    0  501    0 -0.00000000000E+00 -0.00000000000E+00 -0.66375007905E+03  0.66375007905E+03  0.00000000000E+00 0.  1.
          2    1    1    2  501    0 -0.92569918289E+02  0.54260415946E+01  0.15438834008E+03  0.18009550592E+03  0.00000000000E+00 0.  1.
          1    1    1    2  502    0  0.88386785989E+02 -0.46829969586E+01 -0.58247491904E+03  0.58916142585E+03  0.00000000000E+00 0.  1.
         22    1    1    2    0    0 -0.95864615894E+01 -0.51827290154E+01  0.62272769149E+02  0.63219132416E+02  0.00000000000E+00 0.  1.
         22    1    1    2    0    0  0.13769593889E+02  0.44396843794E+01 -0.63795173578E+02  0.65415110526E+02  0.00000000000E+00 0. -1.
</event>
<event>
 6    1  0.2144783E-005  0.1395254E+03  0.7818608E-02  0.1307529E+00
          2   -1    0    0  502    0  0.00000000000E+00  0.00000000000E+00  0.33569043959E+03  0.33569043959E+03  0.00000000000E+00 0. -1.
          1   -1    0    0  501    0 -0.00000000000E+00 -0.00000000000E+00 -0.57001459637E+02  0.57001459637E+02  0.00000000000E+00 0.  1.
          2    1    1    2  501    0  0.35137231592E+02 -0.49784462551E+02  0.99959722347E+02  0.11706862879E+03  0.00000000000E+00 0. -1.
          1    1    1    2  502    0  0.30147777802E+02  0.54042927489E+02  0.22818573576E+02  0.65956150722E+02  0.00000000000E+00 0.  1.
         22    1    1    2    0    0  0.17490729436E+02 -0.13631108937E+02  0.11451852027E+03  0.11664572102E+03  0.00000000000E+00 0. -1.
         22    1    1    2    0    0 -0.82775738830E+02  0.93726439993E+01  0.41392163759E+02  0.93021398694E+02  0.00000000000E+00 0. -1.
</event>
<event>
 6    1  0.2144783E-005  0.7420583E+02  0.7818608E-02  0.1404433E+00
          2   -1    0    0  502    0  0.00000000000E+00  0.00000000000E+00  0.71394743370E+03  0.71394743370E+03  0.00000000000E+00 0.  1.
          1   -1    0    0  501    0 -0.00000000000E+00 -0.00000000000E+00 -0.29617325490E+02  0.29617325490E+02  0.00000000000E+00 0. -1.
          2    1    1    2  501    0 -0.24551154416E+02 -0.51414372965E+02  0.50082112873E+03  0.50405158458E+03  0.00000000000E+00 0.  1.
          1    1    1    2  502    0  0.73810886889E+01  0.28300199414E+02  0.24962502280E+02  0.38451375492E+02  0.00000000000E+00 0. -1.
         22    1    1    2    0    0 -0.45624921667E+01  0.41665695670E+02  0.20357913936E+01  0.41964163009E+02  0.00000000000E+00 0.  1.
         22    1    1    2    0    0  0.21732557894E+02 -0.18551522119E+02  0.15651068580E+03  0.15909763611E+03  0.00000000000E+00 0. -1.
</event>
<event>
 6    1  0.2144783E-005  0.2260688E+03  0.7818608E-02  0.1204292E+00
          2   -1    0    0  502    0  0.00000000000E+00  0.00000000000E+00  0.19113215921E+03  0.19113215921E+03  0.00000000000E+00 0. -1.
          1   -1    0    0  501    0 -0.00000000000E+00 -0.00000000000E+00 -0.67723706830E+03  0.67723706830E+03  0.00000000000E+00 0. -1.
          2    1    1    2  501    0  0.65455898892E+02  0.20494935293E+03 -0.12480882828E+02  0.21550982437E+03  0.00000000000E+00 0. -1.
          1    1    1    2  502    0 -0.29771605523E+02 -0.19348462539E+03 -0.48617940756E+03  0.52411169143E+03  0.00000000000E+00 0. -1.
         22    1    1    2    0    0 -0.12454078170E+00 -0.30519405008E+02 -0.47464126567E+02  0.56429539279E+02  0.00000000000E+00 0. -1.
         22    1    1    2    0    0 -0.35559752588E+02  0.19054677473E+02  0.60019507869E+02  0.72318172423E+02  0.00000000000E+00 0. -1.
</event>
<event>
 6    1  0.2144783E-005  0.5367636E+02  0.7818608E-02  0.1461377E+00
          2   -1    0    0  502    0  0.00000000000E+00  0.00000000000E+00  0.38617180353E+03  0.38617180353E+03  0.00000000000E+00 0. -1.
          1   -1    0    0  501    0 -0.00000000000E+00 -0.00000000000E+00 -0.15811462719E+03  0.15811462719E+03  0.00000000000E+00 0.  1.
          2    1    1    2  501    0 -0.59958719719E+01 -0.19280366029E+02  0.25784099118E+03  0.25863035345E+03  0.00000000000E+00 0. -1.
          1    1    1    2  502    0 -0.58708839979E+01  0.41245075188E+02 -0.12196931317E+03  0.12888807882E+03  0.00000000000E+00 0.  1.
         22    1    1    2    0    0  0.42325173770E+01 -0.31663488624E+02  0.12114593059E+03  0.12528697943E+03  0.00000000000E+00 0. -1.
         22    1    1    2    0    0  0.76342385927E+01  0.96987794640E+01 -0.28960432259E+02  0.31481019021E+02  0.00000000000E+00 0.  1.
</event>
<event>
 6    1  0.2144783E-005  0.1294017E+03  0.7818608E-02  0.1231973E+00
          2   -1    0    0  502    0  0.00000000000E+00  0.00000000000E+00  0.52731561671E+03  0.52731561671E+03  0.00000000000E+00 0. -1.
          1   -1    0    0  501    0 -0.00000000000E+00 -0.00000000000E+00 -0.53678669923E+02  0.53678669923E+02  0.00000000000E+00 0.  1.
          2    1    1    2  501    0  0.43115677767E+02 -0.84847770359E+02  0.30183560433E+03  0.31648513053E+03  0.00000000000E+00 0. -1.
          1    1    1    2  502    0 -0.14737691443E+02  0.71802896269E+02  0.52462975107E+02  0.90139997885E+02  0.00000000000E+00 0.  1.
         22    1    1    2    0    0  0.34768465912E+01 -0.21697173517E+02  0.12498033108E+03  0.12689735599E+03  0.00000000000E+00 0.  1.
         22    1    1    2    0    0 -0.31854832915E+02  0.34742047607E+02 -0.56419637303E+01  0.47471802227E+02  0.00000000000E+00 0.  1.
</event>
<event>
 6    1  0.2144783E-005  0.5825925E+02  0.7818608E-02  0.1431274E+00
          2   -1    0    0  502    0  0.00000000000E+00  0.00000000000E+00  0.19780993186E+03  0.19780993186E+03  0.00000000000E+00 0. -1.
          1   -1    0    0  501    0 -0.00000000000E+00 -0.00000000000E+00 -0.13004416070E+03  0.13004416070E+03  0.00000000000E+00 0. -1.
          2    1    1    2  501    0 -0.36770314723E+02  0.46873433700E+02 -0.67594611332E+01  0.59957194285E+02  0.00000000000E+00 0. -1.
          1    1    1    2  502    0 -0.78835105586E+01 -0.22258319229E+02 -0.67578709053E+02  0.71585364641E+02  0.00000000000E+00 0. -1.
         22    1    1    2    0    0 -0.12037818799E+02 -0.66115332391E+01 -0.19646500415E+02  0.23970949747E+02  0.00000000000E+00 0.  1.
         22    1    1    2    0    0  0.56691644081E+02 -0.18003581233E+02  0.16175044176E+03  0.17234058389E+03  0.00000000000E+00 0. -1.
</event>
<event>
 6    1  0.2144783E-005  0.1125868E+03  0.7818608E-02  0.1355210E+00
          2   -1    0    0  502    0  0.00000000000E+00  0.00000000000E+00  0.75225403396E+02  0.75225403396E+02  0.00000000000E+00 0. -1.
          1   -1    0    0  501    0 -0.00000000000E+00 -0.00000000000E+00 -0.18905708980E+04  0.18905708980E+04  0.00000000000E+00 0. -1.
          2    1    1    2  501    0 -0.17368871273E+03  0.63567717922E+02 -0.11614167935E+03  0.21839760386E+03  0.00000000000E+00 0. -1.
          1    1    1    2  502    0  0.14329783198E+03 -0.11289393347E+03 -0.14752989355E+04  0.14865349838E+04  0.00000000000E+00 0. -1.
         22    1    1    2    0    0  0.39200053940E+02  0.55801693166E+02 -0.23535294274E+03  0.24503363207E+03  0.00000000000E+00 0.  1.
         22    1    1    2    0    0 -0.88091731936E+01 -0.64754776224E+01  0.11448062946E+02  0.15830081744E+02  0.00000000000E+00 0.  1.
</event>
<event>
 6    1  0.2144783E-005  0.6244994E+02  0.7818608E-02  0.1482778E+00
          2   -1    0    0  502    0  0.00000000000E+00  0.00000000000E+00  0.15795371701E+03  0.15795371701E+03  0.00000000000E+00 0.  1.
          1   -1    0    0  501    0 -0.00000000000E+00 -0.00000000000E+00 -0.22344950001E+03  0.22344950001E+03  0.00000000000E+00 0. -1.
          2    1    1    2  501    0  0.36884585855E+02  0.47136004309E+02  0.46636692207E+02  0.75876588193E+02  0.00000000000E+00 0.  1.
          1    1    1    2  502    0  0.25456366216E+01 -0.80581940815E+02 -0.14161817675E+03  0.16295900539E+03  0.00000000000E+00 0. -1.
         22    1    1    2    0    0 -0.52327524073E+02  0.28363130889E+02 -0.40000255198E+02  0.71712323804E+02  0.00000000000E+00 0. -1.
         22    1    1    2    0    0  0.12897301597E+02  0.50828056172E+01  0.69485956744E+02  0.70855299633E+02  0.00000000000E+00 0.  1.
</event>
<event>
 6    1  0.2144783E-005  0.1259863E+03  0.7818608E-02  0.1360921E+00
          2   -1    0    0  502    0  0.00000000000E+00  0.00000000000E+00  0.21997009271E+02  0.21997009271E+02  0.00000000000E+00 0.  1.
          1   -1    0    0  501    0 -0.00000000000E+00 -0.00000000000E+00 -0.13069804655E+04  0.13069804655E+04  0.00000000000E+00 0. -1.
          2    1    1    2  501    0  0.32531160107E+02 -0.16252316261E+02 -0.14229472213E+03  0.14686797509E+03  0.00000000000E+00 0.  1.
          1    1    1    2  502    0 -0.81386567761E+02 -0.26377083116E+01 -0.92020115829E+03  0.92379700293E+03  0.00000000000E+00 0. -1.
         22    1    1    2    0    0  0.37746725333E+02  0.14790901478E+02 -0.23650997093E+03  0.23995948072E+03  0.00000000000E+00 0.  1.
         22    1    1    2    0    0  0.11108682321E+02  0.40991230940E+01  0.14022395104E+02  0.18353016033E+02  0.00000000000E+00 0.  1.
</event>
<event>
 6    1  0.2144783E-005  0.4934653E+02  0.7818608E-02  0.1479080E+00
          2   -1    0    0  502    0  0.00000000000E+00  0.00000000000E+00  0.68298527577E+02  0.68298527577E+02  0.00000000000E+00 0. -1.
          1   -1    0    0  501    0 -0.00000000000E+00 -0.00000000000E+00 -0.19516518803E+03  0.19516518803E+03  0.00000000000E+00 0. -1.
          2    1    1    2  501    0 -0.26318895296E+02  0.10740532050E+02  0.56367882439E+01  0.28979590405E+02  0.00000000000E+00 0. -1.
          1    1    1    2  502    0  0.29873862872E+02 -0.20512057118E+01 -0.98296072642E+02  0.10275589046E+03  0.00000000000E+00 0. -1.
         22    1    1    2    0    0  0.23152449292E+02  0.87665548518E+01 -0.75551607153E+02  0.79504300108E+02  0.00000000000E+00 0.  1.
         22    1    1    2    0    0 -0.26707416868E+02 -0.17455881190E+02  0.41344231095E+02  0.52223934635E+02  0.00000000000E+00 0.  1.
</event>
<event>
 6    1  0.2144783E-005  0.2264559E+03  0.7818608E-02  0.1237282E+00
          2   -1    0    0  502    0  0.00000000000E+00  0.00000000000E+00  0.77041808233E+03  0.77041808233E+03  0.00000000000E+00 0. -1.
          1   -1    0    0  501    0 -0.00000000000E+00 -0.00000000000E+00 -0.33673950178E+03  0.33673950178E+03  0.00000000000E+00 0. -1.
          2    1    1    2  501    0  0.10913339631E+03  0.18630795088E+03  0.17331959441E+03  0.27687620439E+03  0.00000000000E+00 0. -1.
          1    1    1    2  502    0 -0.15864530314E+03  0.84559845608E+02 -0.20701718216E+03  0.27418025715E+03  0.00000000000E+00 0. -1.
         22    1    1    2    0    0  0.56069487899E+02 -0.25187461178E+03  0.46966049808E+03  0.53587833600E+03  0.00000000000E+00 0. -1.
         22    1    1    2    0    0 -0.65575810666E+01 -0.18993184703E+02 -0.22843297832E+01  0.20222786583E+02  0.00000000000E+00 0.  1.
</event>
<event>
 6    1  0.2144783E-005  0.4198669E+02  0.7818608E-02  0.1578358E+00
          2   -1    0    0  502    0  0.00000000000E+00  0.00000000000E+00  0.41028176619E+03  0.41028176619E+03  0.00000000000E+00 0. -1.
          1   -1    0    0  501    0 -0.00000000000E+00 -0.00000000000E+00 -0.89319636574E+02  0.89319636574E+02  0.00000000000E+00 0. -1.
          2    1    1    2  501    0 -0.39293378064E+01 -0.19905453009E+02  0.30550852042E+03  0.30618151937E+03  0.00000000000E+00 0. -1.
          1    1    1    2  502    0 -0.53391149997E+01  0.57329633745E+02  0.26927611215E+02  0.63563270055E+02  0.00000000000E+00 0. -1.
         22    1    1    2    0    0 -0.44397093074E+01 -0.39880423407E+02 -0.63987124372E+02  0.75528215094E+02  0.00000000000E+00 0. -1.
         22    1    1    2    0    0  0.13708162113E+02  0.24562426706E+01  0.52513122353E+02  0.54328398245E+02  0.00000000000E+00 0. -1.
</event>
<event>
 6    1  0.2144783E-005  0.1871189E+03  0.7818608E-02  0.1299093E+00
          2   -1    0    0  502    0  0.00000000000E+00  0.00000000000E+00  0.17024391604E+03  0.17024391604E+03  0.00000000000E+00 0. -1.
          1   -1    0    0  501    0 -0.00000000000E+00 -0.00000000000E+00 -0.87291225283E+03  0.87291225283E+03  0.00000000000E+00 0.  1.
          2    1    1    2  501    0 -0.18055385206E+03 -0.33523635433E+02  0.16736781993E+02  0.18440077955E+03  0.00000000000E+00 0. -1.
          1    1    1    2  502    0  0.17315012186E+03  0.28019694902E+02 -0.71641238914E+03  0.73757221972E+03  0.00000000000E+00 0.  1.
         22    1    1    2    0    0  0.10511705649E+02 -0.47678640987E+01 -0.61055497230E+02  0.62136963442E+02  0.00000000000E+00 0. -1.
         22    1    1    2    0    0 -0.31079754487E+01  0.10271804630E+02  0.58062767578E+02  0.59046206148E+02  0.00000000000E+00 0. -1.
</event>
<event>
 6    1  0.2144783E-005  0.4410169E+02  0.7818608E-02  0.1483842E+00
          2   -1    0    0  502    0  0.00000000000E+00  0.00000000000E+00  0.19469283909E+03  0.19469283909E+03  0.00000000000E+00 0. -1.
          1   -1    0    0  501    0 -0.00000000000E+00 -0.00000000000E+00 -0.25349064513E+03  0.25349064513E+03  0.00000000000E+00 0. -1.
          2    1    1    2  501    0  0.39920283609E+02 -0.46338100195E+02  0.40280249100E+02  0.73234875849E+02  0.00000000000E+00 0. -1.
          1    1    1    2  502    0 -0.35384824874E+02  0.73602875533E+02 -0.19673344500E+03  0.21301060420E+03  0.00000000000E+00 0. -1.
         22    1    1    2    0    0  0.17474248585E+02 -0.15311344166E+02  0.12366567161E+03  0.12582918961E+03  0.00000000000E+00 0. -1.
         22    1    1    2    0    0 -0.22009707319E+02 -0.11953431171E+02 -0.26010281739E+02  0.36108814563E+02  0.00000000000E+00 0.  1.
</event>
<event>
 6    1  0.2144783E-005  0.1563619E+03  0.7818608E-02  0.1253886E+00
          2   -1    0    0  502    0  0.00000000000E+00  0.00000000000E+00  0.33056596971E+04  0.33056596971E+04  0.00000000000E+00 0.  1.
          1   -1    0    0  501    0 -0.00000000000E+00 -0.00000000000E+00 -0.33761150889E+02  0.33761150889E+02  0.00000000000E+00 0.  1.
          2    1    1    2  501    0 -0.12865172032E+03 -0.92965215238E+02  0.27162554763E+04  0.27208891210E+04  0.00000000000E+00 0.  1.
          1    1    1    2  502    0 -0.19432202991E+02  0.70914576235E+02  0.12188202085E+03  0.14234364981E+03  0.00000000000E+00 0.  1.
         22    1    1    2    0    0  0.22221207752E+02 -0.37629061658E+02  0.19435403943E+03  0.19920647830E+03  0.00000000000E+00 0. -1.
         22    1    1    2    0    0  0.12586271556E+03  0.59679700661E+02  0.23940700962E+03  0.27698159883E+03  0.00000000000E+00 0.  1.
</event>
<event>
 6    1  0.2144783E-005  0.3249335E+02  0.7818608E-02  0.1573268E+00
          2   -1    0    0  502    0  0.00000000000E+00  0.00000000000E+00  0.93230549915E+02  0.93230549915E+02  0.00000000000E+00 0.  1.
          1   -1    0    0  501    0 -0.00000000000E+00 -0.00000000000E+00 -0.12572301275E+03  0.12572301275E+03  0.00000000000E+00 0. -1.
          2    1    1    2  501    0 -0.48387809568E+01  0.46500751322E+02  0.16754490967E+02  0.49663332975E+02  0.00000000000E+00 0.  1.
          1    1    1    2  502    0  0.11041574027E+02 -0.28629955833E+02 -0.21997959541E+02  0.37755806864E+02  0.00000000000E+00 0. -1.
         22    1    1    2    0    0  0.18672394247E+02 -0.18349780774E+02 -0.74044346678E+02  0.78536221175E+02  0.00000000000E+00 0. -1.
         22    1    1    2    0    0 -0.24875187318E+02  0.47898528568E+00  0.46795352415E+02  0.52998201654E+02  0.00000000000E+00 0. -1.
</event>
<event>
 6    1  0.2144783E-005  0.2219766E+03  0.7818608E-02  0.1231735E+00
          2   -1    0    0  502    0  0.00000000000E+00  0.00000000000E+00  0.23626327934E+03  0.23626327934E+03  0.00000000000E+00 0.  1.
          1   -1    0    0  501    0 -0.00000000000E+00 -0.00000000000E+00 -0.25055484228E+03  0.25055484228E+03  0.00000000000E+00 0. -1.
          2    1    1    2  501    0  0.21266840196E+03  0.53010082762E+02 -0.51441091173E+02  0.22513130375E+03  0.00000000000E+00 0.  1.
          1    1    1    2  502    0 -0.39629984248E+02 -0.20165120847E+02  0.95248074914E+01  0.45474055328E+02  0.00000000000E+00 0. -1.
         22    1    1    2    0    0  0.22364349624E+01 -0.23797953427E+02  0.32851044613E+02  0.40626781325E+02  0.00000000000E+00 0.  1.
         22    1    1    2    0    0 -0.17527485267E+03 -0.90470084881E+01 -0.52263238711E+01  0.17558598123E+03  0.00000000000E+00 0. -1.
</event>
<event>
 6    1  0.2144783E-005  0.5863084E+02  0.7818608E-02  0.1438285E+00
          2   -1    0    0  502    0  0.00000000000E+00  0.00000000000E+00  0.13943468538E+03  0.13943468538E+03  0.00000000000E+00 0. -1.
          1   -1    0    0  501    0 -0.00000000000E+00 -0.00000000000E+00 -0.32500921529E+03  0.32500921529E+03  0.00000000000E+00 0.  1.
          2    1    1    2  501    0 -0.82052539893E+02 -0.28823119240E+02  0.35393321714E+02  0.93893975992E+02  0.00000000000E+00 0. -1.
          1    1    1    2  502    0  0.37277632880E+02  0.28021877537E+02 -0.23007378122E+03  0.23475261945E+03  0.00000000000E+00 0.  1.
         22    1    1    2    0    0  0.34316755854E+02  0.30228220281E+01  0.67846560945E+02  0.76091609376E+02  0.00000000000E+00 0. -1.
         22    1    1    2    0    0  0.10458151159E+02 -0.22215803246E+01 -0.58740631347E+02  0.59705695840E+02  0.00000000000E+00 0.  1.
</event>
<event>
 6    1  0.2144783E-005  0.1477028E+03  0.7818608E-02  0.1254654E+00
          2   -1    0    0  502    0  0.00000000000E+00  0.00000000000E+00  0.65360586583E+02  0.65360586583E+02  0.00000000000E+00 0. -1.
          1   -1    0    0  501    0 -0.00000000000E+00 -0.00000000000E+00 -0.10000291392E+04  0.10000291392E+04  0.00000000000E+00 0. -1.
          2    1    1    2  501    0  0.28896536708E+02 -0.13146257578E+03 -0.74582633110E+03  0.75787488072E+03  0.00000000000E+00 0. -1.
          1    1    1    2  502    0 -0.43903745751E+02  0.10149710774E+03 -0.72733071978E+02  0.13236049838E+03  0.00000000000E+00 0. -1.
         22    1    1    2    0    0 -0.12158657878E+02  0.73202141591E+02 -0.93347643756E+02  0.11924835047E+03  0.00000000000E+00 0. -1.
         22    1    1    2    0    0  0.27165866921E+02 -0.43236673556E+02 -0.22761505755E+02  0.55905996190E+02  0.00000000000E+00 0.  1.
</event>
<event>
 6    1  0.2144783E-005  0.1443293E+03  0.7818608E-02  0.1271427E+00
          2   -1    0    0  502    0  0.00000000000E+00  0.00000000000E+00  0.92388895391E+02  0.92388895391E+02  0.00000000000E+00 0. -1.
          1   -1    0    0  501    0 -0.00000000000E+00 -0.00000000000E+00 -0.27010973896E+03  0.27010973896E+03  0.00000000000E+00 0. -1.
          2    1    1    2  501    0  0.28408978157E+02  0.82459793278E+01  0.20020300570E+02  0.35719443584E+02  0.00000000000E+00 0. -1.
          1    1    1    2  502    0 -0.90299850488E+02 -0.18163764975E+02 -0.15739121584E+03  0.18236222246E+03  0.00000000000E+00 0. -1.
         22    1    1    2    0    0  0.38128205719E+02  0.41371232078E+02 -0.73742634355E+02  0.92754056712E+02  0.00000000000E+00 0. -1.
         22    1    1    2    0    0  0.23762666612E+02 -0.31453446431E+02  0.33392706057E+02  0.51662911597E+02  0.00000000000E+00 0.  1.
</event>
<event>
 6    1  0.2144783E-005  0.1085868E+03  0.7818608E-02  0.1350417E+00
          2   -1    0    0  502    0  0.00000000000E+00  0.00000000000E+00  0.38601961139E+03  0.38601961139E+03  0.00000000000E+00 0.  1.
          1   -1    0    0  501    0 -0.00000000000E+00 -0.00000000000E+00 -0.16438803927E+03  0.16438803927E+03  0.00000000000E+00 0. -1.
          2    1    1    2  501    0 -0.10526895729E+03  0.52611890897E+02  0.27221974674E+03  0.29656897165E+03  0.00000000000E+00 0.  1.
          1    1    1    2  502    0  0.43463302298E+02 -0.51592506048E+02 -0.85784406495E+02  0.10913207468E+03  0.00000000000E+00 0. -1.
         22    1    1    2    0    0  0.21938755400E+02 -0.25786851928E+01  0.81002860590E+02  0.83960836284E+02  0.00000000000E+00 0.  1.
         22    1    1    2    0    0  0.39866899589E+02  0.15593003438E+01 -0.45806628714E+02  0.60745768038E+02  0.00000000000E+00 0. -1.
</event>
<event>
 6    1  0.2144783E-005  0.5877680E+02  0.7818608E-02  0.1478049E+00
          2   -1    0    0  502    0  0.00000000000E+00  0.00000000000E+00  0.90526405499E+02  0.90526405499E+02  0.00000000000E+00 0.  1.
          1   -1    0    0  501    0 -0.00000000000E+00 -0.00000000000E+00 -0.23736425039E+03  0.23736425039E+03  0.00000000000E+00 0.  1.
          2    1    1    2  501    0  0.35107417870E+02  0.72609076613E+02 -0.46494330735E+02  0.93093133939E+02  0.00000000000E+00 0.  1.
          1    1    1    2  502    0 -0.67808338336E+02 -0.38745017877E+02 -0.59013889555E+02  0.97886599280E+02  0.00000000000E+00 0.  1.
         22    1    1    2    0    0  0.12928514411E+02  0.73452977355E+01  0.40520924886E+02  0.43163007742E+02  0.00000000000E+00 0.  1.
         22    1    1    2    0    0  0.19772406055E+02 -0.41209356472E+02 -0.81850549481E+02  0.93747914923E+02  0.00000000000E+00 0.  1.
</event>
<event>
 6    1  0.2144783E-005  0.4448988E+02  0.7818608E-02  0.1542911E+00
          2   -1    0    0  502    0  0.00000000000E+00  0.00000000000E+00  0.12472446019E+03  0.12472446019E+03  0.00000000000E+00 0.  1.
          1   -1    0    0  501    0 -0.00000000000E+00 -0.00000000000E+00 -0.12601459436E+03  0.12601459436E+03  0.00000000000E+00 0.  1.
          2    1    1    2  501    0  0.16901322276E+02  0.32092292164E+02  0.45483247294E+02  0.58174699788E+02  0.00000000000E+00 0.  1.
          1    1    1    2  502    0  0.44303182665E+01 -0.21075335154E+02 -0.60241683178E+02  0.63975447353E+02  0.00000000000E+00 0.  1.
         22    1    1    2    0    0 -0.70013038029E+01 -0.22462932514E+02 -0.53877180626E+02  0.58790749139E+02  0.00000000000E+00 0.  1.
         22    1    1    2    0    0 -0.14330336740E+02  0.11445975505E+02  0.67345482336E+02  0.69798158267E+02  0.00000000000E+00 0.  1.
</event>
<event>
 6    1  0.2144783E-005  0.4770645E+02  0.7818608E-02  0.1466818E+00
          2   -1    0    0  502    0  0.00000000000E+00  0.00000000000E+00  0.82513581054E+02  0.82513581054E+02  0.00000000000E+00 0.  1.
          1   -1    0    0  501    0 -0.00000000000E+00 -0.00000000000E+00 -0.18772595696E+03  0.18772595696E+03  0.00000000000E+00 0.  1.
          2    1    1    2  501    0  0.37265740310E+02  0.23334129527E+02 -0.52742303082E+02  0.68665621209E+02  0.00000000000E+00 0.  1.
          1    1    1    2  502    0 -0.18996633114E+02  0.99487785465E+01 -0.70481895558E+02  0.73671893322E+02  0.00000000000E+00 0.  1.
         22    1    1    2    0    0 -0.36689739670E+02 -0.20568528004E+02  0.64098934243E+02  0.76667298846E+02  0.00000000000E+00 0.  1.
         22    1    1    2    0    0  0.18420632474E+02 -0.12714380070E+02 -0.46087111507E+02  0.51234724634E+02  0.00000000000E+00 0.  1.
</event>
<event>
 6    1  0.2144783E-005  0.5766576E+02  0.7818608E-02  0.1417233E+00
          2   -1    0    0  502    0  0.00000000000E+00  0.00000000000E+00  0.38721243579E+03  0.38721243579E+03  0.00000000000E+00 0. -1.
          1   -1    0    0  501    0 -0.00000000000E+00 -0.00000000000E+00 -0.29340902637E+02  0.29340902637E+02  0.00000000000E+00 0. -1.
          2    1    1    2  501    0 -0.25791523682E+02  0.25807013289E+02  0.42625618379E+02  0.56108359189E+02  0.00000000000E+00 0. -1.
          1    1    1    2  502    0 -0.15925298815E+02 -0.26324316533E+02  0.21225233359E+02  0.37377738220E+02  0.00000000000E+00 0. -1.
         22    1    1    2    0    0 -0.30253227744E+02 -0.64212731838E+01  0.14155080706E+02  0.34012598372E+02  0.00000000000E+00 0. -1.
         22    1    1    2    0    0  0.71970050241E+02  0.69385764283E+01  0.27986560071E+03  0.28905464265E+03  0.00000000000E+00 0. -1.
</event>
<event>
 6    1  0.2144783E-005  0.2725818E+02  0.7818608E-02  0.1668637E+00
          2   -1    0    0  502    0  0.00000000000E+00  0.00000000000E+00  0.64087071828E+02  0.64087071828E+02  0.00000000000E+00 0.  1.
          1   -1    0    0  501    0 -0.00000000000E+00 -0.00000000000E+00 -0.18762405607E+03  0.18762405607E+03  0.00000000000E+00 0.  1.
          2    1    1    2  501    0 -0.24337599289E+02 -0.46259639097E+02 -0.47625200256E+02  0.70713737335E+02  0.00000000000E+00 0.  1.
          1    1    1    2  502    0  0.51595205448E+01  0.24738431179E+02 -0.36640119745E+02  0.44509650688E+02  0.00000000000E+00 0.  1.
         22    1    1    2    0    0  0.62333674924E+01  0.18858924021E+02 -0.85825785434E+02  0.88094150379E+02  0.00000000000E+00 0.  1.
         22    1    1    2    0    0  0.12944711252E+02  0.26622838971E+01  0.46554121189E+02  0.48393589499E+02  0.00000000000E+00 0.  1.
</event>
<event>
 6    1  0.2144783E-005  0.6630821E+02  0.7818608E-02  0.1452241E+00
          2   -1    0    0  502    0  0.00000000000E+00  0.00000000000E+00  0.20131568926E+03  0.20131568926E+03  0.00000000000E+00 0.  1.
          1   -1    0    0  501    0 -0.00000000000E+00 -0.00000000000E+00 -0.28339628018E+03  0.28339628018E+03  0.00000000000E+00 0. -1.
          2    1    1    2  501    0 -0.47984563404E+02  0.21698932574E+02  0.13039510407E+03  0.14062803833E+03  0.00000000000E+00 0.  1.
          1    1    1    2  502    0  0.42870971230E+02 -0.37572952136E+02 -0.21103690822E+03  0.21860060278E+03  0.00000000000E+00 0. -1.
         22    1    1    2    0    0  0.15567619741E+02  0.11512707835E+02 -0.61441849962E+02  0.64420448251E+02  0.00000000000E+00 0.  1.
         22    1    1    2    0    0 -0.10454027568E+02  0.43613117265E+01  0.60003063186E+02  0.61062880083E+02  0.00000000000E+00 0. -1.
</event>
<event>
 6    1  0.2144783E-005  0.6251872E+02  0.7818608E-02  0.1506320E+00
          2   -1    0    0  502    0  0.00000000000E+00  0.00000000000E+00  0.28989973851E+02  0.28989973851E+02  0.00000000000E+00 0. -1.
          1   -1    0    0  501    0 -0.00000000000E+00 -0.00000000000E+00 -0.43952747926E+03  0.43952747926E+03  0.00000000000E+00 0. -1.
          2    1    1    2  501    0  0.31914926526E+02 -0.43852779999E+02 -0.12999597822E+03  0.14085660511E+03  0.00000000000E+00 0. -1.
          1    1    1    2  502    0 -0.90005225037E+01  0.23041795437E+02 -0.12259912098E+03  0.12506989329E+03  0.00000000000E+00 0. -1.
         22    1    1    2    0    0 -0.31219301436E+02  0.27635896442E+02 -0.17638415548E+03  0.18124502161E+03  0.00000000000E+00 0. -1.
         22    1    1    2    0    0  0.83048974136E+01 -0.68249118801E+01  0.18441749280E+02  0.21345933096E+02  0.00000000000E+00 0. -1.
</event>
<event>
 6    1  0.2144783E-005  0.3672879E+02  0.7818608E-02  0.1539610E+00
          2   -1    0    0  502    0  0.00000000000E+00  0.00000000000E+00  0.16707776167E+03  0.16707776167E+03  0.00000000000E+00 0. -1.
          1   -1    0    0  501    0 -0.00000000000E+00 -0.00000000000E+00 -0.23806486731E+03  0.23806486731E+03  0.00000000000E+00 0.  1.
          2    1    1    2  501    0  0.33760213011E+02  0.27725163401E+02  0.33241555143E+02  0.54894787153E+02  0.00000000000E+00 0. -1.
          1    1    1    2  502    0 -0.52631975756E+02 -0.22730188240E+02 -0.18759598217E+03  0.19616074749E+03  0.00000000000E+00 0.  1.
         22    1    1    2    0    0  0.72584342115E+01 -0.22378317709E+02 -0.30385858517E+02  0.38428822106E+02  0.00000000000E+00 0.  1.
         22    1    1    2    0    0  0.11613328533E+02  0.17383342548E+02  0.11375317990E+03  0.11565827223E+03  0.00000000000E+00 0. -1.
</event>
<event>
 6    1  0.2144783E-005  0.8056371E+02  0.7818608E-02  0.1384800E+00
          2   -1    0    0  502    0  0.00000000000E+00  0.00000000000E+00  0.12989571500E+03  0.12989571500E+03  0.00000000000E+00 0. -1.
          1   -1    0    0  501    0 -0.00000000000E+00 -0.00000000000E+00 -0.42337344332E+03  0.42337344332E+03  0.00000000000E+00 0. -1.
          2    1    1    2  501    0  0.57625610862E+01 -0.15731150203E+03 -0.19028567969E+03  0.24695901619E+03  0.00000000000E+00 0. -1.
          1    1    1    2  502    0 -0.46241208409E+02  0.14345754554E+03 -0.68723476730E+02  0.16565395552E+03  0.00000000000E+00 0. -1.
         22    1    1    2    0    0  0.67644298416E+01 -0.15367718631E+02  0.45822494979E+02  0.48801898867E+02  0.00000000000E+00 0.  1.
         22    1    1    2    0    0  0.33714217481E+02  0.29221675121E+02 -0.80291066869E+02  0.91854287740E+02  0.00000000000E+00 0.  1.
</event>
<event>
 6    1  0.2144783E-005  0.8368141E+02  0.7818608E-02  0.1386944E+00
          2   -1    0    0  502    0  0.00000000000E+00  0.00000000000E+00  0.24489973727E+03  0.24489973727E+03  0.00000000000E+00 0.  1.
          1   -1    0    0  501    0 -0.00000000000E+00 -0.00000000000E+00 -0.34952391033E+03  0.34952391033E+03  0.00000000000E+00 0.  1.
          2    1    1    2  501    0 -0.21377451384E+02 -0.54998756507E+02  0.97240801978E+02  0.11374371286E+03  0.00000000000E+00 0.  1.
          1    1    1    2  502    0  0.40413356723E+02  0.58371104748E+02 -0.30817078447E+03  0.31624303577E+03  0.00000000000E+00 0.  1.
         22    1    1    2    0    0  0.27107785755E+01  0.11470791162E+02 -0.26522811694E+02  0.29023902400E+02  0.00000000000E+00 0.  1.
         22    1    1    2    0    0 -0.21746683914E+02 -0.14843139403E+02  0.13282862113E+03  0.13541299657E+03  0.00000000000E+00 0.  1.
</event>
<event>
 6    1  0.2144783E-005  0.7411250E+02  0.7818608E-02  0.1360920E+00
          2   -1    0    0  502    0  0.00000000000E+00  0.00000000000E+00  0.23677747049E+03  0.23677747049E+03  0.00000000000E+00 0. -1.
          1   -1    0    0  501    0 -0.00000000000E+00 -0.00000000000E+00 -0.54286034104E+02  0.54286034104E+02  0.00000000000E+00 0. -1.
          2    1    1    2  501    0 -0.28514565635E+02 -0.81827782089E+01  0.27778324733E+01  0.29795212129E+02  0.00000000000E+00 0. -1.
          1    1    1    2  502    0  0.32080183643E+02  0.23077985564E+02  0.50599122449E+00  0.39521989163E+02  0.00000000000E+00 0. -1.
         22    1    1    2    0    0  0.52350732378E+02 -0.30922775273E+02  0.45522894815E+02  0.75954928500E+02  0.00000000000E+00 0. -1.
         22    1    1    2    0    0 -0.55916350386E+02  0.16027567918E+02  0.13368471787E+03  0.14579137480E+03  0.00000000000E+00 0. -1.
</event>
<event>
 6    1  0.2144783E-005  0.5125132E+02  0.7818608E-02  0.1487884E+00
          2   -1    0    0  502    0  0.00000000000E+00  0.00000000000E+00  0.27798991489E+03  0.27798991489E+03  0.00000000000E+00 0. -1.
          1   -1    0    0  501    0 -0.00000000000E+00 -0.00000000000E+00 -0.54808801628E+02  0.54808801628E+02  0.00000000000E+00 0.  1.
          2    1    1    2  501    0 -0.37072888039E+02 -0.35963450364E+02  0.10831972467E+03  0.12000388136E+03  0.00000000000E+00 0. -1.
          1    1    1    2  502    0  0.13451531950E+02  0.52209552653E+02  0.25068894157E+02  0.59457804822E+02  0.00000000000E+00 0.  1.
         22    1    1    2    0    0 -0.21753538033E+02  0.11272980689E+02  0.96760079923E+02  0.99813874673E+02  0.00000000000E+00 0. -1.
         22    1    1    2    0    0  0.45374894122E+02 -0.27519082978E+02 -0.69675854849E+01  0.53523155662E+02  0.00000000000E+00 0.  1.
</event>
<event>
 6    1  0.2144783E-005  0.4678979E+02  0.7818608E-02  0.1524431E+00
          2   -1    0    0  502    0  0.00000000000E+00  0.00000000000E+00  0.34084267062E+02  0.34084267062E+02  0.00000000000E+00 0. -1.
          1   -1    0    0  501    0 -0.00000000000E+00 -0.00000000000E+00 -0.10956374359E+04  0.10956374359E+04  0.00000000000E+00 0. -1.
          2    1    1    2  501    0 -0.17638256814E+02  0.19605951192E+02 -0.39218796096E+02  0.47261140409E+02  0.00000000000E+00 0. -1.
          1    1    1    2  502    0 -0.38143528773E+02 -0.25983139530E+02 -0.88863829710E+03  0.88983598230E+03  0.00000000000E+00 0. -1.
         22    1    1    2    0    0  0.45729275413E+02  0.23778270552E+02 -0.15499581272E+03  0.16334097692E+03  0.00000000000E+00 0. -1.
         22    1    1    2    0    0  0.10052510174E+02 -0.17401082214E+02  0.21299737092E+02  0.29283603317E+02  0.00000000000E+00 0. -1.
</event>
<event>
 6    1  0.2144783E-005  0.6348923E+02  0.7818608E-02  0.1401498E+00
          2   -1    0    0  502    0  0.00000000000E+00  0.00000000000E+00  0.15988644096E+03  0.15988644096E+03  0.00000000000E+00 0.  1.
          1   -1    0    0  501    0 -0.00000000000E+00 -0.00000000000E+00 -0.22626648747E+03  0.22626648747E+03  0.00000000000E+00 0.  1.
          2    1    1    2  501    0  0.91028317261E+01  0.54408408795E+02  0.11026053293E+03  0.12329039547E+03  0.00000000000E+00 0.  1.
          1    1    1    2  502    0 -0.36633895380E+02 -0.14629932435E+02 -0.93246549000E+02  0.10124720299E+03  0.00000000000E+00 0.  1.
         22    1    1    2    0    0  0.54649335161E+02 -0.59734605448E+02 -0.10910462414E+02  0.81693396989E+02  0.00000000000E+00 0.  1.
         22    1    1    2    0    0 -0.27118271507E+02  0.19956129089E+02 -0.72483568018E+02  0.79921932975E+02  0.00000000000E+00 0.  1.
</event>
<event>
 6    1  0.2144783E-005  0.8949726E+02  0.7818608E-02  0.1405776E+00
          2   -1    0    0  502    0  0.00000000000E+00  0.00000000000E+00  0.48887685681E+02  0.48887685681E+02  0.00000000000E+00 0. -1.
          1   -1    0    0  501    0 -0.00000000000E+00 -0.00000000000E+00 -0.33029468166E+03  0.33029468166E+03  0.00000000000E+00 0.  1.
          2    1    1    2  501    0 -0.53048953658E+01 -0.71434793573E+02 -0.34405676361E+02  0.79465855646E+02  0.00000000000E+00 0. -1.
          1    1    1    2  502    0 -0.16680153437E+02  0.30056551533E+02 -0.56473674979E+02  0.66112780719E+02  0.00000000000E+00 0.  1.
         22    1    1    2    0    0  0.14164112517E+02 -0.73273342616E+01  0.15208361428E+02  0.22036473586E+02  0.00000000000E+00 0. -1.
         22    1    1    2    0    0  0.78209362859E+01  0.48705576301E+02 -0.20573600606E+03  0.21156725739E+03  0.00000000000E+00 0. -1.
</event>
<event>
 6    1  0.2144783E-005  0.3713645E+02  0.7818608E-02  0.1575726E+00
          2   -1    0    0  502    0  0.00000000000E+00  0.00000000000E+00  0.12233706215E+03  0.12233706215E+03  0.00000000000E+00 0. -1.
          1   -1    0    0  501    0 -0.00000000000E+00 -0.00000000000E+00 -0.11387371975E+03  0.11387371975E+03  0.00000000000E+00 0. -1.
          2    1    1    2  501    0 -0.74821411016E+01 -0.23092043514E+02 -0.11603707812E+02  0.26904849825E+02  0.00000000000E+00 0. -1.
          1    1    1    2  502    0 -0.37931770047E+02 -0.82947502580E+01 -0.45622826548E+02  0.59908800380E+02  0.00000000000E+00 0. -1.
         22    1    1    2    0    0  0.13034585749E+02  0.16202066303E+02  0.98616361151E+02  0.10078489006E+03  0.00000000000E+00 0. -1.
         22    1    1    2    0    0  0.32379325399E+02  0.15184727469E+02 -0.32926484399E+02  0.48612241632E+02  0.00000000000E+00 0. -1.
</event>
<event>
 6    1  0.2144783E-005  0.6019487E+02  0.7818608E-02  0.1407984E+00
          2   -1    0    0  502    0  0.00000000000E+00  0.00000000000E+00  0.57609855592E+02  0.57609855592E+02  0.00000000000E+00 0. -1.
          1   -1    0    0  501    0 -0.00000000000E+00 -0.00000000000E+00 -0.61139807917E+03  0.61139807917E+03  0.00000000000E+00 0.  1.
          2    1    1    2  501    0  0.53327892839E+01  0.56731569058E+02 -0.18245321323E+02  0.59831440894E+02  0.00000000000E+00 0. -1.
          1    1    1    2  502    0  0.83493887712E+02 -0.64736323179E+02 -0.35448356404E+03  0.36989271147E+03  0.00000000000E+00 0.  1.
         22    1    1    2    0    0 -0.41693730783E+02  0.10016549626E+02  0.86952651059E+01  0.43752783777E+02  0.00000000000E+00 0. -1.
         22    1    1    2    0    0 -0.47132946213E+02 -0.20117955049E+01 -0.18975460332E+03  0.19553099861E+03  0.00000000000E+00 0.  1.
</event>
<event>
 6    1  0.2144783E-005  0.7436221E+02  0.7818608E-02  0.1403961E+00
          2   -1    0    0  502    0  0.00000000000E+00  0.00000000000E+00  0.33657331128E+02  0.33657331128E+02  0.00000000000E+00 0. -1.
          1   -1    0    0  501    0 -0.00000000000E+00 -0.00000000000E+00 -0.35435377004E+03  0.35435377004E+03  0.00000000000E+00 0. -1.
          2    1    1    2  501    0 -0.46032831278E+02  0.41759625393E+02 -0.60054708105E+02  0.86426013642E+02  0.00000000000E+00 0. -1.
          1    1    1    2  502    0  0.18362423885E+02 -0.96856950145E+01 -0.31580001065E+02  0.37792694613E+02  0.00000000000E+00 0. -1.
         22    1    1    2    0    0  0.46343916660E+02 -0.10404175362E+02 -0.23031278365E+03  0.23515948585E+03  0.00000000000E+00 0. -1.
         22    1    1    2    0    0 -0.18673509266E+02 -0.21669755017E+02  0.12510539031E+01  0.28632907059E+02  0.00000000000E+00 0. -1.
</event>
<event>
 6    1  0.2144783E-005  0.7576478E+02  0.7818608E-02  0.1456033E+00
          2   -1    0    0  502    0  0.00000000000E+00  0.00000000000E+00  0.11969391737E+03  0.11969391737E+03  0.00000000000E+00 0.  1.
          1   -1    0    0  501    0 -0.00000000000E+00 -0.00000000000E+00 -0.85099266241E+02  0.85099266241E+02  0.00000000000E+00 0. -1.
          2    1    1    2  501    0  0.26683606835E+02 -0.43236184490E+02  0.91410370706E+01  0.51623067341E+02  0.00000000000E+00 0.  1.
          1    1    1    2  502    0 -0.39890676825E+01  0.20433093077E+02  0.12057401900E+02  0.24058364330E+02  0.00000000000E+00 0. -1.
         22    1    1    2    0    0 -0.27051668465E+02  0.11324197859E+02 -0.53547102367E+02  0.61051800922E+02  0.00000000000E+00 0. -1.
         22    1    1    2    0    0  0.43571293117E+01  0.11478893554E+02  0.66943314528E+02  0.68059951021E+02  0.00000000000E+00 0. -1.
</event>
<event>
 6    1  0.2144783E-005  0.6007383E+02  0.7818608E-02  0.1413068E+00
          2   -1    0    0  502    0  0.00000000000E+00  0.00000000000E+00  0.75887524831E+03  0.75887524831E+03  0.00000000000E+00 0. -1.
          1   -1    0    0  501    0 -0.00000000000E+00 -0.00000000000E+00 -0.62458977720E+02  0.62458977720E+02  0.00000000000E+00 0. -1.
          2    1    1    2  501    0 -0.40456365993E+02  0.46914190713E+02  0.49714344102E+03  0.50098828308E+03  0.00000000000E+00 0. -1.
          1    1    1    2  502    0  0.39216278806E+01 -0.45534651091E+02 -0.30404346662E+02  0.54892694515E+02  0.00000000000E+00 0. -1.
         22    1    1    2    0    0 -0.94853999771E+01 -0.11187354121E+02 -0.12177654503E+02  0.19063708300E+02  0.00000000000E+00 0. -1.
         22    1    1    2    0    0  0.46020138090E+02  0.98078144987E+01  0.24185483074E+03  0.24638954013E+03  0.00000000000E+00 0. -1.
</event>
<event>
 6    1  0.2144783E-005  0.1749069E+03  0.7818608E-02  0.1299477E+00
          2   -1    0    0  502    0  0.00000000000E+00  0.00000000000E+00  0.45226350787E+02  0.45226350787E+02  0.00000000000E+00 0. -1.
          1   -1    0    0  501    0 -0.00000000000E+00 -0.00000000000E+00 -0.90235199163E+03  0.90235199163E+03  0.00000000000E+00 0.  1.
          2    1    1    2  501    0  0.12584963628E+03 -0.10221618215E+03 -0.43754180091E+03  0.46661451583E+03  0.00000000000E+00 0. -1.
          1    1    1    2  502    0 -0.71538298105E+02  0.68470712639E+02 -0.17515792403E+03  0.20121199004E+03  0.00000000000E+00 0.  1.
         22    1    1    2    0    0 -0.55208880467E+02  0.46761875377E+02 -0.25365406033E+03  0.26377087745E+03  0.00000000000E+00 0.  1.
         22    1    1    2    0    0  0.89754229231E+00 -0.13016405868E+02  0.92281444249E+01  0.15980959089E+02  0.00000000000E+00 0. -1.
</event>
<event>
 6    1  0.2144783E-005  0.4014150E+02  0.7818608E-02  0.1561718E+00
          2   -1    0    0  502    0  0.00000000000E+00  0.00000000000E+00  0.24235536466E+03  0.24235536466E+03  0.00000000000E+00 0. -1.
          1   -1    0    0  501    0 -0.00000000000E+00 -0.00000000000E+00 -0.33364521143E+03  0.33364521143E+03  0.00000000000E+00 0. -1.
          2    1    1    2  501    0 -0.53999301262E+02 -0.40402775156E+02  0.16216289320E+03  0.17562776748E+03  0.00000000000E+00 0. -1.
          1    1    1    2  502    0  0.36092676618E+02  0.37726966945E+02 -0.26927882488E+03  0.27429380392E+03  0.00000000000E+00 0. -1.
         22    1    1    2    0    0 -0.53295344558E+01  0.10697813682E+02  0.67662129120E+02  0.68709612662E+02  0.00000000000E+00 0.  1.
         22    1    1    2    0    0  0.23236159100E+02 -0.80220054714E+01 -0.51836044211E+02  0.57369392022E+02  0.00000000000E+00 0.  1.
</event>
<event>
 6    1  0.2144783E-005  0.6292881E+02  0.7818608E-02  0.1417129E+00
          2   -1    0    0  502    0  0.00000000000E+00  0.00000000000E+00  0.32232147849E+03  0.32232147849E+03  0.00000000000E+00 0. -1.
          1   -1    0    0  501    0 -0.00000000000E+00 -0.00000000000E+00 -0.78419212253E+02  0.78419212253E+02  0.00000000000E+00 0. -1.
          2    1    1    2  501    0  0.36171230959E+02  0.38791158427E+02 -0.41318286555E+02  0.67233270968E+02  0.00000000000E+00 0. -1.
          1    1    1    2  502    0 -0.20864322894E+02 -0.36316828166E+02  0.51305889018E+02  0.66230855542E+02  0.00000000000E+00 0. -1.
         22    1    1    2    0    0  0.16417241768E+02  0.34757310912E+02  0.20876699500E+03  0.21227636394E+03  0.00000000000E+00 0. -1.
         22    1    1    2    0    0 -0.31724149833E+02 -0.37231641173E+02  0.25147668779E+02  0.55000200292E+02  0.00000000000E+00 0. -1.
</event>
<event>
 6    1  0.2144783E-005  0.5216066E+02  0.7818608E-02  0.1473185E+00
          2   -1    0    0  502    0  0.00000000000E+00  0.00000000000E+00  0.64709655253E+02  0.64709655253E+02  0.00000000000E+00 0.  1.
          1   -1    0    0  501    0 -0.00000000000E+00 -0.00000000000E+00 -0.31153785046E+03  0.31153785046E+03  0.00000000000E+00 0. -1.
          2    1    1    2  501    0  0.24397175800E+02 -0.29470341673E+02 -0.79111605533E+02  0.87877012668E+02  0.00000000000E+00 0.  1.
          1    1    1    2  502    0 -0.39148556483E+02  0.30369284794E+02 -0.14906248018E+03  0.15708127174E+03  0.00000000000E+00 0. -1.
         22    1    1    2    0    0  0.28871087934E+02 -0.54183515452E+01  0.51660791721E+02  0.59428407797E+02  0.00000000000E+00 0.  1.
         22    1    1    2    0    0 -0.14119707251E+02  0.45194084241E+01 -0.70314901212E+02  0.71860813507E+02  0.00000000000E+00 0. -1.
</event>
<event>
 6    1  0.2144783E-005  0.4562513E+02  0.7818608E-02  0.1470629E+00
          2   -1    0    0  502    0  0.00000000000E+00  0.00000000000E+00  0.20084750518E+03  0.20084750518E+03  0.00000000000E+00 0. -1.
          1   -1    0    0  501    0 -0.00000000000E+00 -0.00000000000E+00 -0.33579858931E+03  0.33579858931E+03  0.00000000000E+00 0. -1.
          2    1    1    2  501    0  0.24305835489E+02  0.12596446028E+02  0.15061747796E+03  0.15308516832E+03  0.00000000000E+00 0. -1.
          1    1    1    2  502    0 -0.24624962680E+02 -0.76953521496E+01 -0.25181784296E+03  0.25313599757E+03  0.00000000000E+00 0. -1.
         22    1    1    2    0    0  0.15990578497E+02  0.18742751023E+01  0.46068150724E+02  0.48800471504E+02  0.00000000000E+00 0.  1.
         22    1    1    2    0    0 -0.15671451305E+02 -0.67753689803E+01 -0.79818869856E+02  0.81624457094E+02  0.00000000000E+00 0.  1.
</event>
<event>
 6    1  0.2144783E-005  0.4737028E+02  0.7818608E-02  0.1515028E+00
          2   -1    0    0  502    0  0.00000000000E+00  0.00000000000E+00  0.34094640476E+03  0.34094640476E+03  0.00000000000E+00 0.  1.
          1   -1    0    0  501    0 -0.00000000000E+00 -0.00000000000E+00 -0.32552935419E+03  0.32552935419E+03  0.00000000000E+00 0.  1.
          2    1    1    2  501    0  0.56934080931E+02 -0.50299470294E+02  0.25164921046E+03  0.26286660383E+03  0.00000000000E+00 0.  1.
          1    1    1    2  502    0 -0.36054497020E+02  0.32098746300E+02 -0.26892103839E+03  0.27321929134E+03  0.00000000000E+00 0.  1.
         22    1    1    2    0    0 -0.99388284766E+01 -0.95664980676E+01  0.76304054003E+02  0.77541001115E+02  0.00000000000E+00 0.  1.
         22    1    1    2    0    0 -0.10940755435E+02  0.27767222061E+02 -0.43615175502E+02  0.52848862661E+02  0.00000000000E+00 0.  1.
</event>
<event>
 6    1  0.2144783E-005  0.9947109E+02  0.7818608E-02  0.1356192E+00
          2   -1    0    0  502    0  0.00000000000E+00  0.00000000000E+00  0.48129953730E+03  0.48129953730E+03  0.00000000000E+00 0.  1.
          1   -1    0    0  501    0 -0.00000000000E+00 -0.00000000000E+00 -0.31783958017E+03  0.31783958017E+03  0.00000000000E+00 0. -1.
          2    1    1    2  501    0 -0.10070920466E+03  0.35251780228E+02  0.39347610441E+03  0.40768673838E+03  0.00000000000E+00 0.  1.
          1    1    1    2  502    0  0.85581057840E+02 -0.50675884746E+01 -0.24840273219E+03  0.26278073612E+03  0.00000000000E+00 0. -1.
         22    1    1    2    0    0  0.27189833938E+01 -0.25910421198E+02  0.70380047266E+02  0.75047277435E+02  0.00000000000E+00 0. -1.
         22    1    1    2    0    0  0.12409163423E+02 -0.42737705556E+01 -0.51993462354E+02  0.53624365536E+02  0.00000000000E+00 0. -1.
</event>
<event>
 6    1  0.2144783E-005  0.1765109E+03  0.7818608E-02  0.1248748E+00
          2   -1    0    0  502    0  0.00000000000E+00  0.00000000000E+00  0.10662437771E+04  0.10662437771E+04  0.00000000000E+00 0.  1.
          1   -1    0    0  501    0 -0.00000000000E+00 -0.00000000000E+00 -0.21198555826E+02  0.21198555826E+02  0.00000000000E+00 0.  1.
          2    1    1    2  501    0  0.73059262064E+02  0.19416671888E+02  0.31728596750E+03  0.32616720880E+03  0.00000000000E+00 0.  1.
          1    1    1    2  502    0 -0.30274665649E+02 -0.95556800941E+01  0.48783485402E+03  0.48886676222E+03  0.00000000000E+00 0.  1.
         22    1    1    2    0    0 -0.68563973088E+02 -0.31496880316E+02  0.84079910032E+02  0.11297124920E+03  0.00000000000E+00 0.  1.
         22    1    1    2    0    0  0.25779376673E+02  0.21635888522E+02  0.15584448968E+03  0.15943711267E+03  0.00000000000E+00 0. -1.
</event>
<event>
 6    1  0.2144783E-005  0.3498533E+02  0.7818608E-02  0.1612592E+00
          2   -1    0    0  502    0  0.00000000000E+00  0.00000000000E+00  0.10661284101E+03  0.10661284101E+03  0.00000000000E+00 0. -1.
          1   -1    0    0  501    0 -0.00000000000E+00 -0.00000000000E+00 -0.17521610548E+03  0.17521610548E+03  0.00000000000E+00 0.  1.
          2    1    1    2  501    0 -0.52505192637E+02 -0.39873535217E+02  0.34540824420E+02  0.74429581593E+02  0.00000000000E+00 0. -1.
          1    1    1    2  502    0  0.36956084710E+02  0.10604484281E+02 -0.50359205561E+02  0.63358163394E+02  0.00000000000E+00 0.  1.
         22    1    1    2    0    0  0.58892774054E+01  0.86397852829E+01  0.43684768893E+02  0.44918687774E+02  0.00000000000E+00 0. -1.
         22    1    1    2    0    0  0.96598305222E+01  0.20629265653E+02 -0.96469652226E+02  0.99122513728E+02  0.00000000000E+00 0.  1.
</event>
<event>
 6    1  0.2144783E-005  0.6275850E+02  0.7818608E-02  0.1443768E+00
          2   -1    0    0  502    0  0.00000000000E+00  0.00000000000E+00  0.14192589475E+04  0.14192589475E+04  0.00000000000E+00 0.  1.
          1   -1    0    0  501    0 -0.00000000000E+00 -0.00000000000E+00 -0.19704065821E+03  0.19704065821E+03  0.00000000000E+00 0. -1.
          2    1    1    2  501    0  0.39668476822E+02 -0.33426742719E+02  0.12563209634E+04  0.12573914658E+04  0.00000000000E+00 0.  1.
          1    1    1    2  502    0 -0.45442679951E+02  0.94786375264E+02 -0.14578637315E+03  0.17973080063E+03  0.00000000000E+00 0. -1.
         22    1    1    2    0    0  0.20058870518E+02 -0.95207505407E+01  0.12235867306E+03  0.12435693729E+03  0.00000000000E+00 0.  1.
         22    1    1    2    0    0 -0.14284667389E+02 -0.51838882004E+02 -0.10674973986E+02  0.54820402037E+02  0.00000000000E+00 0.  1.
</event>
<event>
 6    1  0.2144783E-005  0.2365869E+03  0.7818608E-02  0.1176781E+00
          2   -1    0    0  502    0  0.00000000000E+00  0.00000000000E+00  0.11449537141E+03  0.11449537141E+03  0.00000000000E+00 0.  1.
          1   -1    0    0  501    0 -0.00000000000E+00 -0.00000000000E+00 -0.14378811291E+04  0.14378811291E+04  0.00000000000E+00 0.  1.
          2    1    1    2  501    0 -0.82754342120E+01 -0.24505065994E+03 -0.21104265617E+03  0.32350782289E+03  0.00000000000E+00 0.  1.
          1    1    1    2  502    0  0.53444966018E+02  0.21418652915E+03 -0.10666399419E+04  0.10892442331E+04  0.00000000000E+00 0.  1.
         22    1    1    2    0    0  0.13551086385E+02  0.39163532489E+01 -0.69390980403E+02  0.70810154118E+02  0.00000000000E+00 0. -1.
         22    1    1    2    0    0 -0.58720618191E+02  0.26947777534E+02  0.23687820764E+02  0.68814290429E+02  0.00000000000E+00 0.  1.
</event>
<event>
 6    1  0.2144783E-005  0.4420519E+02  0.7818608E-02  0.1514486E+00
          2   -1    0    0  502    0  0.00000000000E+00  0.00000000000E+00  0.13303836519E+03  0.13303836519E+03  0.00000000000E+00 0.  1.
          1   -1    0    0  501    0 -0.00000000000E+00 -0.00000000000E+00 -0.16626152698E+03  0.16626152698E+03  0.00000000000E+00 0. -1.
          2    1    1    2  501    0 -0.50471137358E+02 -0.62240354658E+02  0.30312601634E+02  0.85674099190E+02  0.00000000000E+00 0.  1.
          1    1    1    2  502    0  0.54874506533E+02  0.29256068582E+02 -0.55318402745E+02  0.83230130952E+02  0.00000000000E+00 0. -1.
         22    1    1    2    0    0 -0.13373039408E+02  0.87573491734E+01  0.57553950063E+02  0.59732625218E+02  0.00000000000E+00 0. -1.
         22    1    1    2    0    0  0.89696702331E+01  0.24226936902E+02 -0.65771310735E+02  0.70663036813E+02  0.00000000000E+00 0. -1.
</event>
<event>
 6    1  0.2144783E-005  0.1416217E+03  0.7818608E-02  0.1334901E+00
          2   -1    0    0  502    0  0.00000000000E+00  0.00000000000E+00  0.18322203687E+03  0.18322203687E+03  0.00000000000E+00 0. -1.
          1   -1    0    0  501    0 -0.00000000000E+00 -0.00000000000E+00 -0.11907522742E+03  0.11907522742E+03  0.00000000000E+00 0.  1.
          2    1    1    2  501    0 -0.22479094994E+02  0.67898889189E+02  0.57365442238E+02  0.91686219401E+02  0.00000000000E+00 0. -1.
          1    1    1    2  502    0 -0.51773824625E+02 -0.20320835107E+02  0.26799079753E+01  0.55683455016E+02  0.00000000000E+00 0.  1.
         22    1    1    2    0    0  0.64747655238E+02 -0.38688911058E+02 -0.55676452553E+02  0.93749443021E+02  0.00000000000E+00 0.  1.
         22    1    1    2    0    0  0.95052643804E+01 -0.88891430230E+01  0.59777911788E+02  0.61178146853E+02  0.00000000000E+00 0. -1.
</event>
<event>
 6    1  0.2144783E-005  0.6896338E+02  0.7818608E-02  0.1417691E+00
          2   -1    0    0  502    0  0.00000000000E+00  0.00000000000E+00  0.14137779317E+03  0.14137779317E+03  0.00000000000E+00 0. -1.
          1   -1    0    0  501    0 -0.00000000000E+00 -0.00000000000E+00 -0.81823199820E+02  0.81823199820E+02  0.00000000000E+00 0. -1.
          2    1    1    2  501    0  0.18856162001E+02 -0.47108526049E+02  0.22085151380E+02  0.55340057674E+02  0.00000000000E+00 0. -1.
          1    1    1    2  502    0  0.68621955637E+01  0.29597935821E+02 -0.25089449563E+01  0.30486428745E+02  0.00000000000E+00 0. -1.
         22    1    1    2    0    0 -0.83622815719E+01  0.40685831297E+02 -0.36690415808E+02  0.55420675146E+02  0.00000000000E+00 0. -1.
         22    1    1    2    0    0 -0.17356075993E+02 -0.23175241069E+02  0.76668802739E+02  0.81953831429E+02  0.00000000000E+00 0.  1.
</event>
<event>
 6    1  0.2144783E-005  0.1356993E+03  0.7818608E-02  0.1320509E+00
          2   -1    0    0  502    0  0.00000000000E+00  0.00000000000E+00  0.17814416600E+03  0.17814416600E+03  0.00000000000E+00 0.  1.
          1   -1    0    0  501    0 -0.00000000000E+00 -0.00000000000E+00 -0.32113929694E+03  0.32113929694E+03  0.00000000000E+00 0.  1.
          2    1    1    2  501    0  0.13255705656E+03 -0.67236433860E+01  0.10545729505E+03  0.16952233394E+03  0.00000000000E+00 0.  1.
          1    1    1    2  502    0 -0.68972784637E+02  0.10187836078E+02 -0.12835985892E+03  0.14607289415E+03  0.00000000000E+00 0.  1.
         22    1    1    2    0    0 -0.61675398000E+02 -0.22441653486E+02 -0.14091574938E+03  0.15545009151E+03  0.00000000000E+00 0.  1.
         22    1    1    2    0    0 -0.19088739272E+01  0.18977460794E+02  0.20823182306E+02  0.28238143339E+02  0.00000000000E+00 0.  1.
</event>
<event>
 6    1  0.2144783E-005  0.9468946E+02  0.7818608E-02  0.1294604E+00
          2   -1    0    0  502    0  0.00000000000E+00  0.00000000000E+00  0.51320508691E+02  0.51320508691E+02  0.00000000000E+00 0. -1.
          1   -1    0    0  501    0 -0.00000000000E+00 -0.00000000000E+00 -0.40376588645E+03  0.40376588645E+03  0.00000000000E+00 0.  1.
          2    1    1    2  501    0  0.65759102321E+02  0.10951272960E+01 -0.40155139985E+01  0.65890691258E+02  0.00000000000E+00 0. -1.
          1    1    1    2  502    0 -0.43211785223E+02 -0.14878913108E+02 -0.12995413701E+03  0.13775600954E+03  0.00000000000E+00 0.  1.
         22    1    1    2    0    0 -0.38657397943E+02 -0.10162117074E+02 -0.21895651543E+03  0.22257497318E+03  0.00000000000E+00 0.  1.
         22    1    1    2    0    0  0.16110080845E+02  0.23945902886E+02  0.48078868047E+00  0.28864721159E+02  0.00000000000E+00 0. -1.
</event>
<event>
 6    1  0.2144783E-005  0.7916480E+02  0.7818608E-02  0.1375155E+00
          2   -1    0    0  502    0  0.00000000000E+00  0.00000000000E+00  0.46004049122E+03  0.46004049122E+03  0.00000000000E+00 0. -1.
          1   -1    0    0  501    0 -0.00000000000E+00 -0.00000000000E+00 -0.10897455839E+03  0.10897455839E+03  0.00000000000E+00 0. -1.
          2    1    1    2  501    0 -0.11787248117E+03  0.38708093064E+02  0.15619760578E+03  0.19947413451E+03  0.00000000000E+00 0. -1.
          1    1    1    2  502    0  0.14237060115E+03 -0.12171846335E+01  0.13124075962E+02  0.14297940754E+03  0.00000000000E+00 0. -1.
         22    1    1    2    0    0 -0.38980677415E+02 -0.21966044365E+02  0.19596471700E+03  0.20100788698E+03  0.00000000000E+00 0. -1.
         22    1    1    2    0    0  0.14482557441E+02 -0.15524864065E+02 -0.14220465912E+02  0.25553620585E+02  0.00000000000E+00 0.  1.
</event>
<event>
 6    1  0.2144783E-005  0.8025797E+02  0.7818608E-02  0.1367503E+00
          2   -1    0    0  502    0  0.00000000000E+00  0.00000000000E+00  0.26165742121E+02  0.26165742121E+02  0.00000000000E+00 0. -1.
          1   -1    0    0  501    0 -0.00000000000E+00 -0.00000000000E+00 -0.46415503313E+03  0.46415503313E+03  0.00000000000E+00 0.  1.
          2    1    1    2  501    0  0.19647618798E+02  0.57631194554E+02 -0.80489495974E+02  0.10092543026E+03  0.00000000000E+00 0. -1.
          1    1    1    2  502    0 -0.12839410377E+02 -0.15335653723E+02 -0.44100655825E+02  0.48424173490E+02  0.00000000000E+00 0.  1.
         22    1    1    2    0    0 -0.46614090627E+02 -0.52263091777E+02 -0.27829056836E+03  0.28696680060E+03  0.00000000000E+00 0.  1.
         22    1    1    2    0    0  0.39805882206E+02  0.99675509474E+01 -0.35108570851E+02  0.54004370909E+02  0.00000000000E+00 0.  1.
</event>
<event>
 6    1  0.2144783E-005  0.4444179E+02  0.7818608E-02  0.1487525E+00
          2   -1    0    0  502    0  0.00000000000E+00  0.00000000000E+00  0.11583628228E+03  0.11583628228E+03  0.00000000000E+00 0. -1.
          1   -1    0    0  501    0 -0.00000000000E+00 -0.00000000000E+00 -0.39047718726E+03  0.39047718726E+03  0.00000000000E+00 0. -1.
          2    1    1    2  501    0  0.24575009300E+02 -0.13058022773E+02  0.73628617248E+02  0.78712237414E+02  0.00000000000E+00 0. -1.
          1    1    1    2  502    0  0.28457769113E+02 -0.28300625129E+02 -0.25767190251E+03  0.26077879390E+03  0.00000000000E+00 0. -1.
         22    1    1    2    0    0 -0.53819861464E+02  0.52251218433E+02 -0.11658590215E+03  0.13863275188E+03  0.00000000000E+00 0. -1.
         22    1    1    2    0    0  0.78708305090E+00 -0.10892570531E+02  0.25988282422E+02  0.28189686337E+02  0.00000000000E+00 0.  1.
</event>
<event>
 6    1  0.2144783E-005  0.6732465E+02  0.7818608E-02  0.1443817E+00
          2   -1    0    0  502    0  0.00000000000E+00  0.00000000000E+00  0.23057819210E+03  0.23057819210E+03  0.00000000000E+00 0.  1.
          1   -1    0    0  501    0 -0.00000000000E+00 -0.00000000000E+00 -0.20415721800E+03  0.20415721800E+03  0.00000000000E+00 0. -1.
          2    1    1    2  501    0 -0.24263992715E+01  0.78009908689E+02  0.15222140374E+03  0.17106369873E+03  0.00000000000E+00 0.  1.
          1    1    1    2  502    0  0.16985030477E+02 -0.46831239695E+02 -0.12024410756E+03  0.13015491414E+03  0.00000000000E+00 0. -1.
         22    1    1    2    0    0 -0.11339607111E+01 -0.15094919012E+02 -0.66953652490E+02  0.68643528673E+02  0.00000000000E+00 0. -1.
         22    1    1    2    0    0 -0.13424670494E+02 -0.16083749982E+02  0.61397330420E+02  0.64873268563E+02  0.00000000000E+00 0.  1.
</event>
<event>
 6    1  0.2144783E-005  0.4511147E+02  0.7818608E-02  0.1522523E+00
          2   -1    0    0  502    0  0.00000000000E+00  0.00000000000E+00  0.18569177988E+04  0.18569177988E+04  0.00000000000E+00 0. -1.
          1   -1    0    0  501    0 -0.00000000000E+00 -0.00000000000E+00 -0.80917090464E+02  0.80917090464E+02  0.00000000000E+00 0. -1.
          2    1    1    2  501    0  0.64262270251E+02  0.17930781688E+02  0.17362044931E+04  0.17374858832E+04  0.00000000000E+00 0. -1.
          1    1    1    2  502    0 -0.27199210746E+02 -0.69240771818E+01 -0.38841384614E+02  0.47920695621E+02  0.00000000000E+00 0. -1.
         22    1    1    2    0    0 -0.22799207141E+02 -0.30348594761E+01  0.11250127758E+03  0.11482835745E+03  0.00000000000E+00 0. -1.
         22    1    1    2    0    0 -0.14263852363E+02 -0.79718450303E+01 -0.33863677738E+02  0.37599953024E+02  0.00000000000E+00 0. -1.
</event>
<event>
 6    1  0.2144783E-005  0.5192502E+03  0.7818608E-02  0.1092132E+00
          2   -1    0    0  502    0  0.00000000000E+00  0.00000000000E+00  0.39192085377E+03  0.39192085377E+03  0.00000000000E+00 0.  1.
          1   -1    0    0  501    0 -0.00000000000E+00 -0.00000000000E+00 -0.51084749365E+03  0.51084749365E+03  0.00000000000E+00 0. -1.
          2    1    1    2  501    0  0.17160704914E+03  0.80187937844E+02  0.62874465642E+02  0.19958026736E+03  0.00000000000E+00 0.  1.
          1    1    1    2  502    0 -0.13602223792E+03 -0.27446063307E+03 -0.31243864571E+03  0.43754839235E+03  0.00000000000E+00 0. -1.
         22    1    1    2    0    0  0.10555120224E+02  0.47029278898E+02  0.96112538009E+02  0.10752108444E+03  0.00000000000E+00 0.  1.
         22    1    1    2    0    0 -0.46139931444E+02  0.14724341632E+03  0.34525002177E+02  0.15811860327E+03  0.00000000000E+00 0.  1.
</event>
<event>
 6    1  0.2144783E-005  0.8199097E+02  0.7818608E-02  0.1405277E+00
          2   -1    0    0  502    0  0.00000000000E+00  0.00000000000E+00  0.17747089174E+03  0.17747089174E+03  0.00000000000E+00 0. -1.
          1   -1    0    0  501    0 -0.00000000000E+00 -0.00000000000E+00 -0.12387974377E+03  0.12387974377E+03  0.00000000000E+00 0. -1.
          2    1    1    2  501    0  0.24791718671E+02  0.64131256351E+02  0.78765285730E+02  0.10455341980E+03  0.00000000000E+00 0. -1.
          1    1    1    2  502    0  0.11140683592E+02 -0.32506135301E+02 -0.47669039105E+02  0.58763091752E+02  0.00000000000E+00 0. -1.
         22    1    1    2    0    0  0.83627207622E+01 -0.19157728407E+02  0.69307876852E+02  0.72391542668E+02  0.00000000000E+00 0.  1.
         22    1    1    2    0    0 -0.44295123025E+02 -0.12467392642E+02 -0.46812975508E+02  0.65642581295E+02  0.00000000000E+00 0.  1.
</event>
<event>
 6    1  0.2144783E-005  0.3124314E+02  0.7818608E-02  0.1642822E+00
          2   -1    0    0  502    0  0.00000000000E+00  0.00000000000E+00  0.52488287078E+02  0.52488287078E+02  0.00000000000E+00 0.  1.
          1   -1    0    0  501    0 -0.00000000000E+00 -0.00000000000E+00 -0.32812501068E+03  0.32812501068E+03  0.00000000000E+00 0. -1.
          2    1    1    2  501    0 -0.41961705269E+02  0.20003759257E+02 -0.24719775410E+02  0.52649809020E+02  0.00000000000E+00 0.  1.
          1    1    1    2  502    0  0.38644406715E+02  0.54947044429E+01 -0.17356008355E+03  0.17789515043E+03  0.00000000000E+00 0. -1.
         22    1    1    2    0    0 -0.72179658309E+01 -0.76465873513E+01  0.34623784116E+02  0.36185297503E+02  0.00000000000E+00 0.  1.
         22    1    1    2    0    0  0.10535264384E+02 -0.17851876349E+02 -0.11198064877E+03  0.11388304081E+03  0.00000000000E+00 0. -1.
</event>
<event>
 6    1  0.2144783E-005  0.4176381E+02  0.7818608E-02  0.1578096E+00
          2   -1    0    0  502    0  0.00000000000E+00  0.00000000000E+00  0.13552777179E+03  0.13552777179E+03  0.00000000000E+00 0. -1.
          1   -1    0    0  501    0 -0.00000000000E+00 -0.00000000000E+00 -0.16440674954E+03  0.16440674954E+03  0.00000000000E+00 0. -1.
          2    1    1    2  501    0  0.91055814554E+01 -0.45083246069E+02  0.57783988009E+02  0.73853909578E+02  0.00000000000E+00 0. -1.
          1    1    1    2  502    0 -0.35822392920E+01  0.26898818791E+02 -0.97657781946E+02  0.10135788704E+03  0.00000000000E+00 0. -1.
         22    1    1    2    0    0 -0.12953535245E+02  0.58095265934E+01  0.66177683668E+02  0.67683310278E+02  0.00000000000E+00 0.  1.
         22    1    1    2    0    0  0.74301930811E+01  0.12374900684E+02 -0.55182867476E+02  0.57039414434E+02  0.00000000000E+00 0. -1.
</event>
<event>
 6    1  0.2144783E-005  0.9042955E+02  0.7818608E-02  0.1404552E+00
          2   -1    0    0  502    0  0.00000000000E+00  0.00000000000E+00  0.75975045769E+02  0.75975045769E+02  0.00000000000E+00 0.  1.
          1   -1    0    0  501    0 -0.00000000000E+00 -0.00000000000E+00 -0.27619260024E+03  0.27619260024E+03  0.00000000000E+00 0.  1.
          2    1    1    2  501    0  0.55924170603E+02 -0.45418418452E+02 -0.91723500335E+01  0.72625598775E+02  0.00000000000E+00 0.  1.
          1    1    1    2  502    0 -0.42464239885E+02  0.16985080764E+02 -0.12857835371E+03  0.13647013475E+03  0.00000000000E+00 0.  1.
         22    1    1    2    0    0  0.97210268001E+01 -0.12403926581E+02  0.33061915700E+02  0.36625756325E+02  0.00000000000E+00 0. -1.
         22    1    1    2    0    0 -0.23180957519E+02  0.40837264268E+02 -0.95528766427E+02  0.10644615615E+03  0.00000000000E+00 0.  1.
</event>
<event>
 6    1  0.2144783E-005  0.7621245E+02  0.7818608E-02  0.1439971E+00
          2   -1    0    0  502    0  0.00000000000E+00  0.00000000000E+00  0.19312809365E+03  0.19312809365E+03  0.00000000000E+00 0.  1.
          1   -1    0    0  501    0 -0.00000000000E+00 -0.00000000000E+00 -0.68887138025E+02  0.68887138025E+02  0.00000000000E+00 0.  1.
          2    1    1    2  501    0 -0.20957626864E+02  0.51210724179E+02  0.84277611791E+02  0.10081902719E+03  0.00000000000E+00 0.  1.
          1    1    1    2  502    0  0.13792574160E+02 -0.25473246264E+02  0.53876037422E+01  0.29464345424E+02  0.00000000000E+00 0.  1.
         22    1    1    2    0    0  0.12323868274E+01 -0.39834287675E+02 -0.39489216789E+02  0.56104255582E+02  0.00000000000E+00 0.  1.
         22    1    1    2    0    0  0.59326658760E+01  0.14096809759E+02  0.74064956879E+02  0.75627603474E+02  0.00000000000E+00 0.  1.
</event>
<event>
 6    1  0.2144783E-005  0.5896330E+02  0.7818608E-02  0.1403091E+00
          2   -1    0    0  502    0  0.00000000000E+00  0.00000000000E+00  0.50754955168E+02  0.50754955168E+02  0.00000000000E+00 0. -1.
          1   -1    0    0  501    0 -0.00000000000E+00 -0.00000000000E+00 -0.28566299816E+03  0.28566299816E+03  0.00000000000E+00 0. -1.
          2    1    1    2  501    0  0.84551763910E+01 -0.20959132291E+02  0.27884986241E+01  0.22771714006E+02  0.00000000000E+00 0. -1.
          1    1    1    2  502    0 -0.14131215088E+02  0.36490529623E+02 -0.16607211170E+03  0.17062003480E+03  0.00000000000E+00 0. -1.
         22    1    1    2    0    0  0.20517496124E+02 -0.27033433461E+02  0.26539439954E+02  0.43082665249E+02  0.00000000000E+00 0. -1.
         22    1    1    2    0    0 -0.14841457428E+02  0.11502036129E+02 -0.98163869880E+02  0.99943539278E+02  0.00000000000E+00 0.  1.
</event>
<event>
 6    1  0.2144783E-005  0.8286789E+02  0.7818608E-02  0.1401022E+00
          2   -1    0    0  502    0  0.00000000000E+00  0.00000000000E+00  0.20168491444E+03  0.20168491444E+03  0.00000000000E+00 0.  1.
          1   -1    0    0  501    0 -0.00000000000E+00 -0.00000000000E+00 -0.25395845158E+03  0.25395845158E+03  0.00000000000E+00 0.  1.
          2    1    1    2  501    0  0.68252138080E+01  0.81240784175E+02  0.15063394127E+03  0.17128115139E+03  0.00000000000E+00 0.  1.
          1    1    1    2  502    0  0.98949625527E+01 -0.49087693924E+02 -0.11677507000E+03  0.12705876181E+03  0.00000000000E+00 0.  1.
         22    1    1    2    0    0 -0.21591530556E+02 -0.16075664577E+01  0.30070520488E+02  0.37054212501E+02  0.00000000000E+00 0. -1.
         22    1    1    2    0    0  0.48713541952E+01 -0.30545523793E+02 -0.11620292890E+03  0.12024924033E+03  0.00000000000E+00 0.  1.
</event>
<event>
 6    1  0.2144783E-005  0.4134756E+02  0.7818608E-02  0.1537295E+00
          2   -1    0    0  502    0  0.00000000000E+00  0.00000000000E+00  0.11936786127E+03  0.11936786127E+03  0.00000000000E+00 0. -1.
          1   -1    0    0  501    0 -0.00000000000E+00 -0.00000000000E+00 -0.33021241340E+03  0.33021241340E+03  0.00000000000E+00 0. -1.
          2    1    1    2  501    0 -0.30896783049E+01  0.83583935146E+02  0.51240275163E+02  0.98088664612E+02  0.00000000000E+00 0. -1.
          1    1    1    2  502    0 -0.67520808024E+01 -0.58495527207E+02 -0.19519520175E+03  0.20388350616E+03  0.00000000000E+00 0. -1.
         22    1    1    2    0    0 -0.87986920101E+01 -0.10825248177E+02  0.37814438212E+02  0.40305517196E+02  0.00000000000E+00 0. -1.
         22    1    1    2    0    0  0.18640451117E+02 -0.14263159762E+02 -0.10470406377E+03  0.10730258670E+03  0.00000000000E+00 0. -1.
</event>
<event>
 6    1  0.2144783E-005  0.1801989E+03  0.7818608E-02  0.1264992E+00
          2   -1    0    0  502    0  0.00000000000E+00  0.00000000000E+00  0.11777429110E+04  0.11777429110E+04  0.00000000000E+00 0.  1.
          1   -1    0    0  501    0 -0.00000000000E+00 -0.00000000000E+00 -0.16776105228E+03  0.16776105228E+03  0.00000000000E+00 0.  1.
          2    1    1    2  501    0  0.34623585966E+02  0.14608953595E+03  0.10702100333E+04  0.10806898078E+04  0.00000000000E+00 0.  1.
          1    1    1    2  502    0  0.56722975803E+00 -0.12065675116E+03 -0.45876528510E+02  0.12908535633E+03  0.00000000000E+00 0.  1.
         22    1    1    2    0    0 -0.97245168375E+01  0.20785072929E+02  0.48504350374E+02  0.53658713081E+02  0.00000000000E+00 0. -1.
         22    1    1    2    0    0 -0.25466298887E+02 -0.46217857722E+02 -0.62855996423E+02  0.82070086133E+02  0.00000000000E+00 0.  1.
</event>
<event>
 6    1  0.2144783E-005  0.1216469E+03  0.7818608E-02  0.1333861E+00
          2   -1    0    0  502    0  0.00000000000E+00  0.00000000000E+00  0.47797816398E+03  0.47797816398E+03  0.00000000000E+00 0.  1.
          1   -1    0    0  501    0 -0.00000000000E+00 -0.00000000000E+00 -0.29620571700E+03  0.29620571700E+03  0.00000000000E+00 0.  1.
          2    1    1    2  501    0  0.52339957367E+02 -0.10678254459E+03  0.36954307680E+03  0.38820621914E+03  0.00000000000E+00 0.  1.
          1    1    1    2  502    0 -0.68513543253E+02  0.77247954137E+02 -0.22767702240E+03  0.24999635708E+03  0.00000000000E+00 0.  1.
         22    1    1    2    0    0 -0.14666913833E+01  0.18303974736E+02 -0.44965872789E+02  0.48570735946E+02  0.00000000000E+00 0.  1.
         22    1    1    2    0    0  0.17640277269E+02  0.11230615717E+02  0.84872265366E+02  0.87410568811E+02  0.00000000000E+00 0.  1.
</event>
<event>
 6    1  0.2144783E-005  0.1082172E+03  0.7818608E-02  0.1385099E+00
          2   -1    0    0  502    0  0.00000000000E+00  0.00000000000E+00  0.15563915643E+03  0.15563915643E+03  0.00000000000E+00 0.  1.
          1   -1    0    0  501    0 -0.00000000000E+00 -0.00000000000E+00 -0.55823829937E+03  0.55823829937E+03  0.00000000000E+00 0.  1.
          2    1    1    2  501    0  0.21004426708E+02 -0.92131149444E+02  0.80352294567E+02  0.12403961416E+03  0.00000000000E+00 0.  1.
          1    1    1    2  502    0 -0.18774128637E+02  0.80952142744E+02 -0.44839593504E+03  0.45603139352E+03  0.00000000000E+00 0.  1.
         22    1    1    2    0    0 -0.31188804666E+01  0.23690169489E+02 -0.81647817577E+02  0.85072425973E+02  0.00000000000E+00 0. -1.
         22    1    1    2    0    0  0.88858239584E+00 -0.12511162789E+02  0.47092315098E+02  0.48734022144E+02  0.00000000000E+00 0.  1.
</event>
<event>
 6    1  0.2144783E-005  0.1222514E+03  0.7818608E-02  0.1335854E+00
          2   -1    0    0  502    0  0.00000000000E+00  0.00000000000E+00  0.13558257182E+03  0.13558257182E+03  0.00000000000E+00 0.  1.
          1   -1    0    0  501    0 -0.00000000000E+00 -0.00000000000E+00 -0.18192564692E+03  0.18192564692E+03  0.00000000000E+00 0. -1.
          2    1    1    2  501    0 -0.11136931582E+03  0.27949406377E+02  0.22035716649E+02  0.11691820488E+03  0.00000000000E+00 0.  1.
          1    1    1    2  502    0  0.33319376222E+02  0.52708179093E+01 -0.19833703412E+02  0.39132315857E+02  0.00000000000E+00 0. -1.
         22    1    1    2    0    0  0.88730509224E+02 -0.16431364274E+02 -0.82392268757E+02  0.12219484011E+03  0.00000000000E+00 0. -1.
         22    1    1    2    0    0 -0.10680569623E+02 -0.16788860012E+02  0.33847180422E+02  0.39262857900E+02  0.00000000000E+00 0.  1.
</event>
<event>
 6    1  0.2144783E-005  0.5881803E+02  0.7818608E-02  0.1454561E+00
          2   -1    0    0  502    0  0.00000000000E+00  0.00000000000E+00  0.16723640032E+03  0.16723640032E+03  0.00000000000E+00 0.  1.
          1   -1    0    0  501    0 -0.00000000000E+00 -0.00000000000E+00 -0.17256008821E+03  0.17256008821E+03  0.00000000000E+00 0.  1.
          2    1    1    2  501    0 -0.51031199792E+02 -0.17183250213E+01  0.12501335207E+03  0.13503878772E+03  0.00000000000E+00 0.  1.
          1    1    1    2  502    0  0.30670061798E+02 -0.32705911163E+01 -0.38168762568E+02  0.49073454056E+02  0.00000000000E+00 0.  1.
         22    1    1    2    0    0  0.26550798391E+02 -0.37406640959E+01 -0.12151981224E+03  0.12444276689E+03  0.00000000000E+00 0.  1.
         22    1    1    2    0    0 -0.61896603972E+01  0.87295802335E+01  0.29351534845E+02  0.31241479873E+02  0.00000000000E+00 0. -1.
</event>
<event>
 6    1  0.2144783E-005  0.8081058E+02  0.7818608E-02  0.1454062E+00
          2   -1    0    0  502    0  0.00000000000E+00  0.00000000000E+00  0.55643067494E+02  0.55643067494E+02  0.00000000000E+00 0.  1.
          1   -1    0    0  501    0 -0.00000000000E+00 -0.00000000000E+00 -0.37259435997E+03  0.37259435997E+03  0.00000000000E+00 0. -1.
          2    1    1    2  501    0 -0.49851697227E+02 -0.32592861069E+02 -0.10811685045E+02  0.60534113048E+02  0.00000000000E+00 0.  1.
          1    1    1    2  502    0  0.14920933785E+02 -0.13660884946E+02 -0.17757300816E+03  0.17872164746E+03  0.00000000000E+00 0. -1.
         22    1    1    2    0    0  0.24583251590E+02  0.45072282343E+02 -0.15355465702E+03  0.16191009723E+03  0.00000000000E+00 0. -1.
         22    1    1    2    0    0  0.10347511852E+02  0.11814636714E+01  0.24988057742E+02  0.27071569730E+02  0.00000000000E+00 0.  1.
</event>
<event>
 6    1  0.2144783E-005  0.8266717E+02  0.7818608E-02  0.1365732E+00
          2   -1    0    0  502    0  0.00000000000E+00  0.00000000000E+00  0.21595958679E+03  0.21595958679E+03  0.00000000000E+00 0. -1.
          1   -1    0    0  501    0 -0.00000000000E+00 -0.00000000000E+00 -0.28398377188E+03  0.28398377188E+03  0.00000000000E+00 0.  1.
          2    1    1    2  501    0 -0.14654668162E+01  0.88751330324E+02  0.46484831682E+02  0.10019873155E+03  0.00000000000E+00 0. -1.
          1    1    1    2  502    0 -0.33128049266E+02 -0.10700227602E+03 -0.20756436194E+03  0.23585995648E+03  0.00000000000E+00 0.  1.
         22    1    1    2    0    0 -0.28844566122E+02  0.71044007311E+01 -0.18552888154E+02  0.35024151144E+02  0.00000000000E+00 0.  1.
         22    1    1    2    0    0  0.63438082204E+02  0.11146544961E+02  0.11160823333E+03  0.12886051950E+03  0.00000000000E+00 0. -1.
</event>
<event>
 6    1  0.2144783E-005  0.5108480E+02  0.7818608E-02  0.1500125E+00
          2   -1    0    0  502    0  0.00000000000E+00  0.00000000000E+00  0.68967873548E+03  0.68967873548E+03  0.00000000000E+00 0.  1.
          1   -1    0    0  501    0 -0.00000000000E+00 -0.00000000000E+00 -0.89735776679E+02  0.89735776679E+02  0.00000000000E+00 0.  1.
          2    1    1    2  501    0 -0.88788253089E+01  0.80466173142E+02  0.47785686261E+03  0.48466567828E+03  0.00000000000E+00 0.  1.
          1    1    1    2  502    0 -0.37858562106E+02 -0.72206475255E+02 -0.33896034057E+02  0.88294886139E+02  0.00000000000E+00 0.  1.
         22    1    1    2    0    0  0.14070507205E+02 -0.14652459511E+01 -0.21569305905E+02  0.25794593928E+02  0.00000000000E+00 0.  1.
         22    1    1    2    0    0  0.32666880210E+02 -0.67944519362E+01  0.17755143615E+03  0.18065935381E+03  0.00000000000E+00 0. -1.
</event>
<event>
 6    1  0.2144783E-005  0.8905699E+02  0.7818608E-02  0.1337481E+00
          2   -1    0    0  502    0  0.00000000000E+00  0.00000000000E+00  0.17039654939E+03  0.17039654939E+03  0.00000000000E+00 0. -1.
          1   -1    0    0  501    0 -0.00000000000E+00 -0.00000000000E+00 -0.52434591446E+03  0.52434591446E+03  0.00000000000E+00 0. -1.
          2    1    1    2  501    0  0.16029293945E+02  0.38433095571E+02 -0.40814794986E+02  0.58308563602E+02  0.00000000000E+00 0. -1.
          1    1    1    2  502    0 -0.18222460977E+02 -0.83187330430E+02 -0.44291476530E+03  0.45102735987E+03  0.00000000000E+00 0. -1.
         22    1    1    2    0    0 -0.99167940383E+01  0.49041846446E+02  0.15184409152E+03  0.15987518143E+03  0.00000000000E+00 0. -1.
         22    1    1    2    0    0  0.12109961070E+02 -0.42876115860E+01 -0.22063896293E+02  0.25531358951E+02  0.00000000000E+00 0.  1.
</event>
<event>
 6    1  0.2144783E-005  0.5223652E+02  0.7818608E-02  0.1445807E+00
          2   -1    0    0  502    0  0.00000000000E+00  0.00000000000E+00  0.24093298825E+03  0.24093298825E+03  0.00000000000E+00 0.  1.
          1   -1    0    0  501    0 -0.00000000000E+00 -0.00000000000E+00 -0.10203081138E+03  0.10203081138E+03  0.00000000000E+00 0. -1.
          2    1    1    2  501    0  0.16258356395E+02 -0.40402308529E+02  0.95177226940E+02  0.10466797607E+03  0.00000000000E+00 0.  1.
          1    1    1    2  502    0 -0.35236884209E+02 -0.22214489849E+02 -0.54576632489E+02  0.68656612076E+02  0.00000000000E+00 0. -1.
         22    1    1    2    0    0  0.34443578045E+02  0.62574448072E+02  0.12198206301E+03  0.14135609402E+03  0.00000000000E+00 0.  1.
         22    1    1    2    0    0 -0.15465050231E+02  0.42350305552E-01 -0.23680480592E+02  0.28283117460E+02  0.00000000000E+00 0. -1.
</event>
<event>
 6    1  0.2144783E-005  0.1636901E+03  0.7818608E-02  0.1287841E+00
          2   -1    0    0  502    0  0.00000000000E+00  0.00000000000E+00  0.34118197941E+03  0.34118197941E+03  0.00000000000E+00 0.  1.
          1   -1    0    0  501    0 -0.00000000000E+00 -0.00000000000E+00 -0.77306250566E+03  0.77306250566E+03  0.00000000000E+00 0.  1.
          2    1    1    2  501    0  0.96254803080E+02 -0.11350606580E+03  0.26644818414E+03  0.30519378912E+03  0.00000000000E+00 0.  1.
          1    1    1    2  502    0 -0.11933456693E+03  0.10691270776E+03 -0.65923500066E+03  0.67842601073E+03  0.00000000000E+00 0.  1.
         22    1    1    2    0    0  0.98810501277E+01 -0.81234844308E+01  0.43684461054E+02  0.45518768530E+02  0.00000000000E+00 0.  1.
         22    1    1    2    0    0  0.13198713720E+02  0.14716842465E+02 -0.82778170789E+02  0.85105916688E+02  0.00000000000E+00 0.  1.
</event>
<event>
 6    1  0.2144783E-005  0.6574773E+02  0.7818608E-02  0.1466049E+00
          2   -1    0    0  502    0  0.00000000000E+00  0.00000000000E+00  0.13034573624E+03  0.13034573624E+03  0.00000000000E+00 0.  1.
          1   -1    0    0  501    0 -0.00000000000E+00 -0.00000000000E+00 -0.33738100891E+03  0.33738100891E+03  0.00000000000E+00 0.  1.
          2    1    1    2  501    0  0.32179393010E+02  0.20176060923E+01  0.46660519777E+02  0.56716736284E+02  0.00000000000E+00 0.  1.
          1    1    1    2  502    0 -0.56927456990E+02  0.37235127678E+02 -0.26535477216E+03  0.27393492877E+03  0.00000000000E+00 0.  1.
         22    1    1    2    0    0  0.22541328211E+02 -0.23155744612E+02  0.69687075028E+02  0.76815287619E+02  0.00000000000E+00 0.  1.
         22    1    1    2    0    0  0.22067357684E+01 -0.16096989158E+02 -0.58028095321E+02  0.60259792476E+02  0.00000000000E+00 0. -1.
</event>
<event>
 6    1  0.2144783E-005  0.1131899E+03  0.7818608E-02  0.1284229E+00
          2   -1    0    0  502    0  0.00000000000E+00  0.00000000000E+00  0.70381114121E+03  0.70381114121E+03  0.00000000000E+00 0.  1.
          1   -1    0    0  501    0 -0.00000000000E+00 -0.00000000000E+00 -0.52768779850E+02  0.52768779850E+02  0.00000000000E+00 0.  1.
          2    1    1    2  501    0  0.24135113257E+02  0.96492566460E+02  0.36669946948E+03  0.37994975983E+03  0.00000000000E+00 0.  1.
          1    1    1    2  502    0 -0.47666954383E+01  0.37912252652E+02  0.30864736764E+01  0.38335187574E+02  0.00000000000E+00 0.  1.
         22    1    1    2    0    0  0.35440495374E+01  0.23443691472E+02  0.15434873689E+02  0.28291381776E+02  0.00000000000E+00 0. -1.
         22    1    1    2    0    0 -0.22912467356E+02 -0.15784851058E+03  0.26582154451E+03  0.31000359188E+03  0.00000000000E+00 0.  1.
</event>
<event>
 6    1  0.2144783E-005  0.4228894E+02  0.7818608E-02  0.1502846E+00
          2   -1    0    0  502    0  0.00000000000E+00  0.00000000000E+00  0.64269867721E+02  0.64269867721E+02  0.00000000000E+00 0.  1.
          1   -1    0    0  501    0 -0.00000000000E+00 -0.00000000000E+00 -0.26336497566E+03  0.26336497566E+03  0.00000000000E+00 0.  1.
          2    1    1    2  501    0 -0.22111486487E+02 -0.53888295425E+02 -0.13859069080E+02  0.59874368592E+02  0.00000000000E+00 0.  1.
          1    1    1    2  502    0  0.15474476222E+02  0.42869058018E+02 -0.12166470534E+03  0.12992119179E+03  0.00000000000E+00 0.  1.
         22    1    1    2    0    0 -0.25888929905E+02  0.53431719872E+01  0.29187786294E+02  0.39379094038E+02  0.00000000000E+00 0.  1.
         22    1    1    2    0    0  0.32525940170E+02  0.56760654201E+01 -0.92759119814E+02  0.98460188967E+02  0.00000000000E+00 0. -1.
</event>
<event>
 6    1  0.2144783E-005  0.1045292E+03  0.7818608E-02  0.1274154E+00
          2   -1    0    0  502    0  0.00000000000E+00  0.00000000000E+00  0.52823047229E+03  0.52823047229E+03  0.00000000000E+00 0.  1.
          1   -1    0    0  501    0 -0.00000000000E+00 -0.00000000000E+00 -0.62185054621E+02  0.62185054621E+02  0.00000000000E+00 0.  1.
          2    1    1    2  501    0 -0.34972862034E+02  0.62074256132E+02  0.39702346016E+03  0.40336576735E+03  0.00000000000E+00 0.  1.
          1    1    1    2  502    0 -0.62727369792E+01 -0.35894275110E+02 -0.48839857620E+00  0.36441525051E+02  0.00000000000E+00 0.  1.
         22    1    1    2    0    0  0.45650630627E+02 -0.50304171563E+02 -0.88464141572E+01  0.68503640755E+02  0.00000000000E+00 0. -1.
         22    1    1    2    0    0 -0.44050316130E+01  0.24124190541E+02  0.78356770245E+02  0.82104593757E+02  0.00000000000E+00 0.  1.
</event>
<event>
 6    1  0.2144783E-005  0.6229684E+03  0.7818608E-02  0.1099759E+00
          2   -1    0    0  502    0  0.00000000000E+00  0.00000000000E+00  0.41631741048E+03  0.41631741048E+03  0.00000000000E+00 0.  1.
          1   -1    0    0  501    0 -0.00000000000E+00 -0.00000000000E+00 -0.11951331806E+04  0.11951331806E+04  0.00000000000E+00 0.  1.
          2    1    1    2  501    0 -0.53823972658E+03 -0.30748403128E+03 -0.49292683066E+03  0.79197556348E+03  0.00000000000E+00 0.  1.
          1    1    1    2  502    0  0.50634898122E+03  0.30285632788E+03 -0.34122656767E+03  0.68157671366E+03  0.00000000000E+00 0.  1.
         22    1    1    2    0    0  0.12278933903E+02  0.16383034471E+02 -0.37262662372E+02  0.42516844231E+02  0.00000000000E+00 0.  1.
         22    1    1    2    0    0  0.19611811458E+02 -0.11755331071E+02  0.92600290562E+02  0.95381469738E+02  0.00000000000E+00 0. -1.
</event>
<event>
 6    1  0.2144783E-005  0.5137442E+02  0.7818608E-02  0.1447652E+00
          2   -1    0    0  502    0  0.00000000000E+00  0.00000000000E+00  0.71719503832E+02  0.71719503832E+02  0.00000000000E+00 0.  1.
          1   -1    0    0  501    0 -0.00000000000E+00 -0.00000000000E+00 -0.25532004738E+03  0.25532004738E+03  0.00000000000E+00 0.  1.
          2    1    1    2  501    0  0.68154963256E+02  0.30268076028E+01 -0.49788778758E+02  0.84458173500E+02  0.00000000000E+00 0.  1.
          1    1    1    2  502    0 -0.61725007470E+02 -0.12655757838E+02 -0.86709136448E+02  0.10718497608E+03  0.00000000000E+00 0.  1.
         22    1    1    2    0    0  0.16917729563E+02 -0.29683826548E+02  0.30189218234E+02  0.45593069974E+02  0.00000000000E+00 0.  1.
         22    1    1    2    0    0 -0.23347685350E+02  0.39312776783E+02 -0.77291846577E+02  0.89803331658E+02  0.00000000000E+00 0.  1.
</event>
<event>
 6    1  0.2144783E-005  0.4212553E+02  0.7818608E-02  0.1568858E+00
          2   -1    0    0  502    0  0.00000000000E+00  0.00000000000E+00  0.14561007648E+04  0.14561007648E+04  0.00000000000E+00 0.  1.
          1   -1    0    0  501    0 -0.00000000000E+00 -0.00000000000E+00 -0.19185143103E+03  0.19185143103E+03  0.00000000000E+00 0. -1.
          2    1    1    2  501    0  0.85811677087E+01 -0.36262882712E+02  0.12698913956E+04  0.12704380307E+04  0.00000000000E+00 0.  1.
          1    1    1    2  502    0  0.23205393635E+02  0.49091251747E+02 -0.16358408200E+03  0.17236064857E+03  0.00000000000E+00 0. -1.
         22    1    1    2    0    0 -0.23117019914E+02 -0.20041248526E+02  0.17882314531E+03  0.18142151347E+03  0.00000000000E+00 0.  1.
         22    1    1    2    0    0 -0.86695414302E+01  0.72128794903E+01 -0.20881125216E+02  0.23732003064E+02  0.00000000000E+00 0.  1.
</event>
<event>
 6    1  0.2144783E-005  0.4820113E+02  0.7818608E-02  0.1563366E+00
          2   -1    0    0  502    0  0.00000000000E+00  0.00000000000E+00  0.75582991392E+02  0.75582991392E+02  0.00000000000E+00 0. -1.
          1   -1    0    0  501    0 -0.00000000000E+00 -0.00000000000E+00 -0.14943513079E+03  0.14943513079E+03  0.00000000000E+00 0. -1.
          2    1    1    2  501    0  0.29767308384E+02 -0.21851645890E+02  0.20629887635E+02  0.42298691946E+02  0.00000000000E+00 0. -1.
          1    1    1    2  502    0 -0.19249225046E+02  0.91567360511E+01 -0.45622882201E+02  0.50356984226E+02  0.00000000000E+00 0. -1.
         22    1    1    2    0    0  0.90473838626E+01 -0.64330961478E+01  0.38891427307E+02  0.40444814238E+02  0.00000000000E+00 0. -1.
         22    1    1    2    0    0 -0.19565467200E+02  0.19128005987E+02 -0.87750572143E+02  0.91917631776E+02  0.00000000000E+00 0.  1.
</event>
<event>
 6    1  0.2144783E-005  0.4319261E+02  0.7818608E-02  0.1494060E+00
          2   -1    0    0  502    0  0.00000000000E+00  0.00000000000E+00  0.26727738556E+03  0.26727738556E+03  0.00000000000E+00 0.  1.
          1   -1    0    0  501    0 -0.00000000000E+00 -0.00000000000E+00 -0.12206610665E+03  0.12206610665E+03  0.00000000000E+00 0.  1.
          2    1    1    2  501    0  0.20225370794E+02  0.87628222005E+02  0.15124678416E+03  0.17596408905E+03  0.00000000000E+00 0.  1.
          1    1    1    2  502    0 -0.10935522063E+02 -0.75367898283E+02 -0.35250975201E+02  0.83919824756E+02  0.00000000000E+00 0.  1.
         22    1    1    2    0    0  0.77858572010E+01 -0.19335994383E+02 -0.46798383656E+02  0.51230742372E+02  0.00000000000E+00 0.  1.
         22    1    1    2    0    0 -0.17075705932E+02  0.70756706618E+01  0.76013853597E+02  0.78228836033E+02  0.00000000000E+00 0.  1.
</event>
<event>
 6    1  0.2144783E-005  0.8098710E+02  0.7818608E-02  0.1328582E+00
          2   -1    0    0  502    0  0.00000000000E+00  0.00000000000E+00  0.28739246602E+03  0.28739246602E+03  0.00000000000E+00 0.  1.
          1   -1    0    0  501    0 -0.00000000000E+00 -0.00000000000E+00 -0.16852573978E+03  0.16852573978E+03  0.00000000000E+00 0. -1.
          2    1    1    2  501    0 -0.51897896735E+02  0.43163233847E+02  0.23311975289E+03  0.24269585005E+03  0.00000000000E+00 0.  1.
          1    1    1    2  502    0  0.33940686469E+02 -0.69158892589E+01 -0.62462530940E+02  0.71423858015E+02  0.00000000000E+00 0. -1.
         22    1    1    2    0    0  0.28157542685E+02 -0.36751259964E+02 -0.90558885027E+02  0.10170749223E+03  0.00000000000E+00 0.  1.
         22    1    1    2    0    0 -0.10200332420E+02  0.50391537597E+00  0.38768389312E+02  0.40091005500E+02  0.00000000000E+00 0. -1.
</event>
<event>
 6    1  0.2144783E-005  0.5870156E+02  0.7818608E-02  0.1476358E+00
          2   -1    0    0  502    0  0.00000000000E+00  0.00000000000E+00  0.23379981400E+03  0.23379981400E+03  0.00000000000E+00 0. -1.
          1   -1    0    0  501    0 -0.00000000000E+00 -0.00000000000E+00 -0.17813840089E+03  0.17813840089E+03  0.00000000000E+00 0.  1.
          2    1    1    2  501    0  0.17959711341E+02 -0.32713258574E+02  0.15678896619E+03  0.16116912991E+03  0.00000000000E+00 0. -1.
          1    1    1    2  502    0 -0.26995498725E+02  0.11951132008E+01 -0.11798427348E+03  0.12103914258E+03  0.00000000000E+00 0.  1.
         22    1    1    2    0    0  0.18843420743E+02  0.57430913098E+01  0.68450191538E+02  0.71228409534E+02  0.00000000000E+00 0. -1.
         22    1    1    2    0    0 -0.98076333593E+01  0.25775054063E+02 -0.51593471132E+02  0.58501532865E+02  0.00000000000E+00 0.  1.
</event>
<event>
 6    1  0.2144783E-005  0.3673366E+03  0.7818608E-02  0.1158092E+00
          2   -1    0    0  502    0  0.00000000000E+00  0.00000000000E+00  0.36568855250E+03  0.36568855250E+03  0.00000000000E+00 0. -1.
          1   -1    0    0  501    0 -0.00000000000E+00 -0.00000000000E+00 -0.37788328571E+03  0.37788328571E+03  0.00000000000E+00 0. -1.
          2    1    1    2  501    0  0.22396668954E+03  0.24236608994E+03  0.72612556388E+02  0.33789788831E+03  0.00000000000E+00 0. -1.
          1    1    1    2  502    0 -0.73364175680E+02  0.10358593760E+02  0.56044751489E+01  0.74303518622E+02  0.00000000000E+00 0. -1.
         22    1    1    2    0    0 -0.16914565927E+03 -0.23376602433E+03 -0.96331706113E+02  0.30419830010E+03  0.00000000000E+00 0. -1.
         22    1    1    2    0    0  0.18543145415E+02 -0.18958659371E+02  0.59199413699E+01  0.27172131180E+02  0.00000000000E+00 0.  1.
</event>
<event>
 6    1  0.2144783E-005  0.3224220E+03  0.7818608E-02  0.1113824E+00
          2   -1    0    0  502    0  0.00000000000E+00  0.00000000000E+00  0.16614521030E+03  0.16614521030E+03  0.00000000000E+00 0. -1.
          1   -1    0    0  501    0 -0.00000000000E+00 -0.00000000000E+00 -0.10442567211E+04  0.10442567211E+04  0.00000000000E+00 0. -1.
          2    1    1    2  501    0  0.33640067281E+03 -0.71366290537E+02 -0.64780989121E+03  0.73342771644E+03  0.00000000000E+00 0. -1.
          1    1    1    2  502    0 -0.18215183907E+03 -0.32255617112E+02 -0.57123204698E+02  0.19360469475E+03  0.00000000000E+00 0. -1.
         22    1    1    2    0    0 -0.81310651793E+02  0.14682655716E+02 -0.92908550991E+01  0.83146391758E+02  0.00000000000E+00 0. -1.
         22    1    1    2    0    0 -0.72938181939E+02  0.88939251934E+02 -0.16388755982E+03  0.20022312849E+03  0.00000000000E+00 0.  1.
</event>
<event>
 6    1  0.2144783E-005  0.5510682E+02  0.7818608E-02  0.1466316E+00
          2   -1    0    0  502    0  0.00000000000E+00  0.00000000000E+00  0.21595553519E+03  0.21595553519E+03  0.00000000000E+00 0.  1.
          1   -1    0    0  501    0 -0.00000000000E+00 -0.00000000000E+00 -0.11597211615E+03  0.11597211615E+03  0.00000000000E+00 0. -1.
          2    1    1    2  501    0 -0.43515123116E+00  0.48935476540E+02  0.15664296124E+03  0.16410937672E+03  0.00000000000E+00 0.  1.
          1    1    1    2  502    0  0.10285982982E+02 -0.28494816467E+02 -0.43966399776E+01  0.30611867870E+02  0.00000000000E+00 0. -1.
         22    1    1    2    0    0 -0.10104299549E+01 -0.27469399499E+02 -0.91935825835E+02  0.95957203739E+02  0.00000000000E+00 0. -1.
         22    1    1    2    0    0 -0.88404017962E+01  0.70287394267E+01  0.39672923615E+02  0.41249203023E+02  0.00000000000E+00 0.  1.
</event>
<event>
 6    1  0.2144783E-005  0.1435007E+03  0.7818608E-02  0.1334791E+00
          2   -1    0    0  502    0  0.00000000000E+00  0.00000000000E+00  0.20617743552E+03  0.20617743552E+03  0.00000000000E+00 0.  1.
          1   -1    0    0  501    0 -0.00000000000E+00 -0.00000000000E+00 -0.16567435705E+03  0.16567435705E+03  0.00000000000E+00 0. -1.
          2    1    1    2  501    0 -0.11910016008E+03 -0.20089140844E+02  0.11040548930E+03  0.16363921834E+03  0.00000000000E+00 0.  1.
          1    1    1    2  502    0  0.23328256416E+02 -0.22634853724E+02 -0.20374322879E+02  0.38362184287E+02  0.00000000000E+00 0. -1.
         22    1    1    2    0    0 -0.11043061603E+02  0.59277145910E+01  0.29450269332E+02  0.32006333335E+02  0.00000000000E+00 0. -1.
         22    1    1    2    0    0  0.10681496527E+03  0.36796279977E+02 -0.78978357273E+02  0.13784405661E+03  0.00000000000E+00 0. -1.
</event>
<event>
 6    1  0.2144783E-005  0.1296565E+03  0.7818608E-02  0.1238806E+00
          2   -1    0    0  502    0  0.00000000000E+00  0.00000000000E+00  0.67677254869E+03  0.67677254869E+03  0.00000000000E+00 0.  1.
          1   -1    0    0  501    0 -0.00000000000E+00 -0.00000000000E+00 -0.13405531516E+03  0.13405531516E+03  0.00000000000E+00 0.  1.
          2    1    1    2  501    0 -0.14178957516E+03  0.39493765876E+02  0.33750672944E+03  0.36820487990E+03  0.00000000000E+00 0.  1.
          1    1    1    2  502    0  0.60701553688E+02  0.67188705482E+02 -0.68571295543E+02  0.11358267182E+03  0.00000000000E+00 0.  1.
         22    1    1    2    0    0  0.69055687518E+02 -0.11219104015E+03  0.28350498786E+03  0.31261893034E+03  0.00000000000E+00 0.  1.
         22    1    1    2    0    0  0.12032333956E+02  0.55085687970E+01 -0.97231882257E+01  0.16421381790E+02  0.00000000000E+00 0. -1.
</event>
<event>
 6    1  0.2144783E-005  0.1373765E+03  0.7818608E-02  0.1229504E+00
          2   -1    0    0  502    0  0.00000000000E+00  0.00000000000E+00  0.27407752817E+03  0.27407752817E+03  0.00000000000E+00 0. -1.
          1   -1    0    0  501    0 -0.00000000000E+00 -0.00000000000E+00 -0.20010721632E+03  0.20010721632E+03  0.00000000000E+00 0. -1.
          2    1    1    2  501    0 -0.14548999240E+03  0.15873602590E+02 -0.90988021229E+02  0.17233145144E+03  0.00000000000E+00 0. -1.
          1    1    1    2  502    0  0.27873948007E+02 -0.64980562756E+02  0.36889501708E+02  0.79751274911E+02  0.00000000000E+00 0. -1.
         22    1    1    2    0    0  0.11623803268E+03  0.82650034821E+02  0.12262204110E+03  0.18809166239E+03  0.00000000000E+00 0. -1.
         22    1    1    2    0    0  0.13780117119E+01 -0.33543074655E+02  0.54467902772E+01  0.34010355745E+02  0.00000000000E+00 0. -1.
</event>
<event>
 6    1  0.2144783E-005  0.2694633E+02  0.7818608E-02  0.1673657E+00
          2   -1    0    0  502    0  0.00000000000E+00  0.00000000000E+00  0.74043629343E+02  0.74043629343E+02  0.00000000000E+00 0.  1.
          1   -1    0    0  501    0 -0.00000000000E+00 -0.00000000000E+00 -0.79447114943E+03  0.79447114943E+03  0.00000000000E+00 0.  1.
          2    1    1    2  501    0 -0.23960499388E+02  0.24594931812E+02  0.25725180504E+02  0.42904558193E+02  0.00000000000E+00 0.  1.
          1    1    1    2  502    0 -0.12961011946E+02 -0.25351705503E+02 -0.68076180489E+03  0.68135697824E+03  0.00000000000E+00 0.  1.
         22    1    1    2    0    0  0.22627134411E+02 -0.41960132569E+01 -0.10204091463E+03  0.10460373797E+03  0.00000000000E+00 0.  1.
         22    1    1    2    0    0  0.14294376924E+02  0.49527869478E+01  0.36650018922E+02  0.39649504375E+02  0.00000000000E+00 0.  1.
</event>
<event>
 6    1  0.2144783E-005  0.5411830E+02  0.7818608E-02  0.1504394E+00
          2   -1    0    0  502    0  0.00000000000E+00  0.00000000000E+00  0.17255322115E+03  0.17255322115E+03  0.00000000000E+00 0.  1.
          1   -1    0    0  501    0 -0.00000000000E+00 -0.00000000000E+00 -0.10414412767E+03  0.10414412767E+03  0.00000000000E+00 0.  1.
          2    1    1    2  501    0 -0.67585274950E+01  0.69461218885E+02  0.21132413239E+01  0.69821231813E+02  0.00000000000E+00 0.  1.
          1    1    1    2  502    0  0.37787888080E+02 -0.41847583385E+02 -0.98936373090E+01  0.57245338499E+02  0.00000000000E+00 0.  1.
         22    1    1    2    0    0 -0.29734234845E+02 -0.43132020523E+02 -0.17055553221E+02  0.55094353720E+02  0.00000000000E+00 0.  1.
         22    1    1    2    0    0 -0.12951257396E+01  0.15518385022E+02  0.93245042686E+02  0.94536424779E+02  0.00000000000E+00 0.  1.
</event>
<event>
 6    1  0.2144783E-005  0.1851460E+03  0.7818608E-02  0.1245990E+00
          2   -1    0    0  502    0  0.00000000000E+00  0.00000000000E+00  0.85614939072E+03  0.85614939072E+03  0.00000000000E+00 0. -1.
          1   -1    0    0  501    0 -0.00000000000E+00 -0.00000000000E+00 -0.32321783923E+03  0.32321783923E+03  0.00000000000E+00 0. -1.
          2    1    1    2  501    0  0.16376525518E+03 -0.32436312325E+03 -0.95414739500E+02  0.37567867526E+03  0.00000000000E+00 0. -1.
          1    1    1    2  502    0 -0.97789492053E+02  0.22113225563E+03  0.57023827330E+03  0.61938190769E+03  0.00000000000E+00 0. -1.
         22    1    1    2    0    0 -0.83067464620E+02  0.11986139372E+03  0.32686019038E+02  0.14945010279E+03  0.00000000000E+00 0.  1.
         22    1    1    2    0    0  0.17091701495E+02 -0.16630526104E+02  0.25421998655E+02  0.34856544208E+02  0.00000000000E+00 0. -1.
</event>
<event>
 6    1  0.2144783E-005  0.7870947E+02  0.7818608E-02  0.1450213E+00
          2   -1    0    0  502    0  0.00000000000E+00  0.00000000000E+00  0.27548885600E+03  0.27548885600E+03  0.00000000000E+00 0. -1.
          1   -1    0    0  501    0 -0.00000000000E+00 -0.00000000000E+00 -0.12801875615E+03  0.12801875615E+03  0.00000000000E+00 0.  1.
          2    1    1    2  501    0  0.14252389342E+02  0.51709590086E+02  0.22419801499E+03  0.23052497095E+03  0.00000000000E+00 0. -1.
          1    1    1    2  502    0 -0.47547068570E+01 -0.29703312890E+02 -0.12341802729E+02  0.32514829363E+02  0.00000000000E+00 0.  1.
         22    1    1    2    0    0 -0.29133314021E+01 -0.31950987938E+02 -0.98888077383E+02  0.10396251718E+03  0.00000000000E+00 0.  1.
         22    1    1    2    0    0 -0.65843510831E+01  0.99447107423E+01  0.34501964979E+02  0.36505294662E+02  0.00000000000E+00 0. -1.
</event>
<event>
 6    1  0.2144783E-005  0.6349337E+02  0.7818608E-02  0.1443480E+00
          2   -1    0    0  502    0  0.00000000000E+00  0.00000000000E+00  0.61812871668E+02  0.61812871668E+02  0.00000000000E+00 0. -1.
          1   -1    0    0  501    0 -0.00000000000E+00 -0.00000000000E+00 -0.25896870546E+03  0.25896870546E+03  0.00000000000E+00 0. -1.
          2    1    1    2  501    0 -0.52798859993E+02 -0.42348617377E+01 -0.31376937590E+02  0.61564323135E+02  0.00000000000E+00 0. -1.
          1    1    1    2  502    0  0.42057171949E+02 -0.20628212030E+02 -0.11455320667E+03  0.12376092276E+03  0.00000000000E+00 0. -1.
         22    1    1    2    0    0 -0.44651398712E+01  0.24701456297E+02  0.37671049918E+02  0.45268172253E+02  0.00000000000E+00 0. -1.
         22    1    1    2    0    0  0.15206827915E+02  0.16161747090E+00 -0.88896739456E+02  0.90188158986E+02  0.00000000000E+00 0. -1.
</event>
<event>
 6    1  0.2144783E-005  0.3822807E+02  0.7818608E-02  0.1606376E+00
          2   -1    0    0  502    0  0.00000000000E+00  0.00000000000E+00  0.48114267337E+03  0.48114267337E+03  0.00000000000E+00 0. -1.
          1   -1    0    0  501    0 -0.00000000000E+00 -0.00000000000E+00 -0.15601402030E+03  0.15601402030E+03  0.00000000000E+00 0. -1.
          2    1    1    2  501    0 -0.22706656768E+01 -0.34274035998E+02  0.41058203663E+03  0.41201635195E+03  0.00000000000E+00 0. -1.
          1    1    1    2  502    0 -0.12386949213E+02  0.23353526872E+02 -0.97023992876E+02  0.10056082200E+03  0.00000000000E+00 0. -1.
         22    1    1    2    0    0  0.13116158679E+02 -0.52466796155E+00  0.66839856681E+02  0.68116630393E+02  0.00000000000E+00 0. -1.
         22    1    1    2    0    0  0.15414562113E+01  0.11445177088E+02 -0.55269247376E+02  0.56462889329E+02  0.00000000000E+00 0. -1.
</event>
<event>
 6    1  0.2144783E-005  0.7180832E+02  0.7818608E-02  0.1434047E+00
          2   -1    0    0  502    0  0.00000000000E+00  0.00000000000E+00  0.82003582403E+02  0.82003582403E+02  0.00000000000E+00 0. -1.
          1   -1    0    0  501    0 -0.00000000000E+00 -0.00000000000E+00 -0.55440323715E+03  0.55440323715E+03  0.00000000000E+00 0. -1.
          2    1    1    2  501    0 -0.38481301586E+01 -0.64155544525E+02 -0.45840882098E+03  0.46289241639E+03  0.00000000000E+00 0. -1.
          1    1    1    2  502    0 -0.15725105332E+02  0.34946884690E+02 -0.20852599695E+02  0.43627910806E+02  0.00000000000E+00 0. -1.
         22    1    1    2    0    0  0.18731746268E+02 -0.69646838237E+01  0.61325177310E+02  0.64499321788E+02  0.00000000000E+00 0. -1.
         22    1    1    2    0    0  0.84148922229E+00  0.36173343658E+02 -0.54463411376E+02  0.65387170563E+02  0.00000000000E+00 0. -1.
</event>
<event>
 6    1  0.2144783E-005  0.1498293E+03  0.7818608E-02  0.1338271E+00
          2   -1    0    0  502    0  0.00000000000E+00  0.00000000000E+00  0.12529273763E+03  0.12529273763E+03  0.00000000000E+00 0. -1.
          1   -1    0    0  501    0 -0.00000000000E+00 -0.00000000000E+00 -0.22117544984E+03  0.22117544984E+03  0.00000000000E+00 0. -1.
          2    1    1    2  501    0 -0.21120995286E+02 -0.91611273616E+02  0.46803729740E+02  0.10502052663E+03  0.00000000000E+00 0. -1.
          1    1    1    2  502    0  0.51076119902E+01 -0.25379494578E+02 -0.16947815311E+02  0.30942444782E+02  0.00000000000E+00 0. -1.
         22    1    1    2    0    0  0.84253658376E+01 -0.60350708539E+01  0.18235975347E+02  0.20975215531E+02  0.00000000000E+00 0. -1.
         22    1    1    2    0    0  0.75880174582E+01  0.12302583905E+03 -0.14397460199E+03  0.18953000053E+03  0.00000000000E+00 0. -1.
</event>
<event>
 6    1  0.2144783E-005  0.4478899E+03  0.7818608E-02  0.1143323E+00
          2   -1    0    0  502    0  0.00000000000E+00  0.00000000000E+00  0.18256975582E+03  0.18256975582E+03  0.00000000000E+00 0.  1.
          1   -1    0    0  501    0 -0.00000000000E+00 -0.00000000000E+00 -0.12368098781E+04  0.12368098781E+04  0.00000000000E+00 0.  1.
          2    1    1    2  501    0  0.26871566816E+03  0.27728040967E+03 -0.73811086283E+03  0.83300671169E+03  0.00000000000E+00 0.  1.
          1    1    1    2  502    0 -0.26841155721E+03 -0.12873031458E+03 -0.19064086302E+03  0.35349709559E+03  0.00000000000E+00 0.  1.
         22    1    1    2    0    0 -0.16902826995E+02 -0.16100317693E+03 -0.13428885339E+03  0.21033598048E+03  0.00000000000E+00 0.  1.
         22    1    1    2    0    0  0.16598716043E+02  0.12453081842E+02  0.88004569561E+01  0.22539846146E+02  0.00000000000E+00 0.  1.
</event>
<event>
 6    1  0.2144783E-005  0.9517357E+02  0.7818608E-02  0.1393045E+00
          2   -1    0    0  502    0  0.00000000000E+00  0.00000000000E+00  0.40560528334E+02  0.40560528334E+02  0.00000000000E+00 0.  1.
          1   -1    0    0  501    0 -0.00000000000E+00 -0.00000000000E+00 -0.16006633531E+04  0.16006633531E+04  0.00000000000E+00 0.  1.
          2    1    1    2  501    0 -0.43413514324E+02 -0.44736887987E+00 -0.36252627307E+02  0.56561350334E+02  0.00000000000E+00 0.  1.
          1    1    1    2  502    0  0.89726184620E+02 -0.42162175012E+02 -0.13915566255E+04  0.13950836101E+04  0.00000000000E+00 0.  1.
         22    1    1    2    0    0 -0.53366775620E+02  0.57221303889E+02 -0.14773748424E+03  0.16717851120E+03  0.00000000000E+00 0.  1.
         22    1    1    2    0    0  0.70541053241E+01 -0.14611759997E+02  0.15443912284E+02  0.22400409790E+02  0.00000000000E+00 0.  1.
</event>
<event>
 6    1  0.2144783E-005  0.3468002E+02  0.7818608E-02  0.1635254E+00
          2   -1    0    0  502    0  0.00000000000E+00  0.00000000000E+00  0.10597359900E+03  0.10597359900E+03  0.00000000000E+00 0.  1.
          1   -1    0    0  501    0 -0.00000000000E+00 -0.00000000000E+00 -0.14132664160E+03  0.14132664160E+03  0.00000000000E+00 0. -1.
          2    1    1    2  501    0 -0.11771354719E+02  0.25160149742E+02  0.38329510789E+02  0.47336553785E+02  0.00000000000E+00 0.  1.
          1    1    1    2  502    0  0.59310530801E+01 -0.21846208864E+02 -0.73047118961E+02  0.76474282087E+02  0.00000000000E+00 0. -1.
         22    1    1    2    0    0 -0.43682434522E+01 -0.10587114990E+02 -0.60883458395E+02  0.61951303948E+02  0.00000000000E+00 0. -1.
         22    1    1    2    0    0  0.10208545091E+02  0.72731741124E+01  0.60248023967E+02  0.61538100770E+02  0.00000000000E+00 0.  1.
</event>
<event>
 6    1  0.2144783E-005  0.5344931E+02  0.7818608E-02  0.1517033E+00
          2   -1    0    0  502    0  0.00000000000E+00  0.00000000000E+00  0.18072143124E+03  0.18072143124E+03  0.00000000000E+00 0. -1.
          1   -1    0    0  501    0 -0.00000000000E+00 -0.00000000000E+00 -0.14581980828E+03  0.14581980828E+03  0.00000000000E+00 0.  1.
          2    1    1    2  501    0 -0.39587201344E+02 -0.10377770559E+02  0.13558265229E+03  0.14162450436E+03  0.00000000000E+00 0. -1.
          1    1    1    2  502    0  0.21123332260E+02  0.52760117018E+01 -0.33691142704E+02  0.40113894874E+02  0.00000000000E+00 0.  1.
         22    1    1    2    0    0 -0.14231252061E+01 -0.14813939767E+02  0.35513540175E+02  0.38505709090E+02  0.00000000000E+00 0.  1.
         22    1    1    2    0    0  0.19886994290E+02  0.19915698625E+02 -0.10250342681E+03  0.10629713120E+03  0.00000000000E+00 0.  1.
</event>
<event>
 6    1  0.2144783E-005  0.9095630E+02  0.7818608E-02  0.1370392E+00
          2   -1    0    0  502    0  0.00000000000E+00  0.00000000000E+00  0.60128246692E+03  0.60128246692E+03  0.00000000000E+00 0.  1.
          1   -1    0    0  501    0 -0.00000000000E+00 -0.00000000000E+00 -0.25393918960E+03  0.25393918960E+03  0.00000000000E+00 0. -1.
          2    1    1    2  501    0 -0.20797288183E+02 -0.14646496536E+03  0.52194394228E+03  0.54250344898E+03  0.00000000000E+00 0.  1.
          1    1    1    2  502    0  0.57745856319E+02  0.93854675040E+02 -0.45848660487E+02  0.11935402640E+03  0.00000000000E+00 0. -1.
         22    1    1    2    0    0 -0.16828718461E+02 -0.67643066386E+00  0.24578879685E+02  0.29795715297E+02  0.00000000000E+00 0. -1.
         22    1    1    2    0    0 -0.20119849675E+02  0.53286720982E+02 -0.15333088416E+03  0.16356846585E+03  0.00000000000E+00 0. -1.
</event>
<event>
 6    1  0.2144783E-005  0.1394147E+03  0.7818608E-02  0.1283058E+00
          2   -1    0    0  502    0  0.00000000000E+00  0.00000000000E+00  0.27120097074E+03  0.27120097074E+03  0.00000000000E+00 0.  1.
          1   -1    0    0  501    0 -0.00000000000E+00 -0.00000000000E+00 -0.16559441172E+03  0.16559441172E+03  0.00000000000E+00 0.  1.
          2    1    1    2  501    0 -0.11116423796E+03 -0.16398543570E+02  0.58174284249E+02  0.12653318687E+03  0.00000000000E+00 0.  1.
          1    1    1    2  502    0  0.12791786516E+03  0.11106748828E+02 -0.61061175729E+02  0.14217878632E+03  0.00000000000E+00 0.  1.
         22    1    1    2    0    0 -0.33663016731E+02  0.96518983567E+01  0.13325722799E+03  0.13778188070E+03  0.00000000000E+00 0.  1.
         22    1    1    2    0    0  0.16909389528E+02 -0.43601036150E+01 -0.24763777497E+02  0.30301528569E+02  0.00000000000E+00 0.  1.
</event>
<event>
 6    1  0.2144783E-005  0.5122803E+02  0.7818608E-02  0.1478693E+00
          2   -1    0    0  502    0  0.00000000000E+00  0.00000000000E+00  0.10442336109E+03  0.10442336109E+03  0.00000000000E+00 0. -1.
          1   -1    0    0  501    0 -0.00000000000E+00 -0.00000000000E+00 -0.11308600867E+03  0.11308600867E+03  0.00000000000E+00 0. -1.
          2    1    1    2  501    0 -0.29618093284E+02 -0.45203165764E+00  0.41766495651E+02  0.51204257063E+02  0.00000000000E+00 0. -1.
          1    1    1    2  502    0  0.10693369926E+02  0.24140596841E+02 -0.25410899156E+02  0.36644649980E+02  0.00000000000E+00 0. -1.
         22    1    1    2    0    0  0.15043422617E+01 -0.28635226989E+02  0.47188399451E+02  0.55217608723E+02  0.00000000000E+00 0. -1.
         22    1    1    2    0    0  0.17420381096E+02  0.49466618059E+01 -0.72206643533E+02  0.74442853995E+02  0.00000000000E+00 0. -1.
</event>
<event>
 6    1  0.2144783E-005  0.1283094E+03  0.7818608E-02  0.1278434E+00
          2   -1    0    0  502    0  0.00000000000E+00  0.00000000000E+00  0.40053434171E+03  0.40053434171E+03  0.00000000000E+00 0.  1.
          1   -1    0    0  501    0 -0.00000000000E+00 -0.00000000000E+00 -0.34021905703E+03  0.34021905703E+03  0.00000000000E+00 0. -1.
          2    1    1    2  501    0 -0.14139202280E+03  0.16284162041E+03  0.17209796649E+03  0.27591086879E+03  0.00000000000E+00 0.  1.
          1    1    1    2  502    0  0.23043395554E+03 -0.14134454073E+03 -0.14457577813E+03  0.30656197201E+03  0.00000000000E+00 0. -1.
         22    1    1    2    0    0 -0.25716788276E+02 -0.16119779803E+01 -0.47540284941E+02  0.54074304106E+02  0.00000000000E+00 0. -1.
         22    1    1    2    0    0 -0.63325144471E+02 -0.19885101694E+02  0.80333381254E+02  0.10420625382E+03  0.00000000000E+00 0.  1.
</event>
<event>
 6    1  0.2144783E-005  0.1596127E+03  0.7818608E-02  0.1293241E+00
          2   -1    0    0  502    0  0.00000000000E+00  0.00000000000E+00  0.12875911734E+04  0.12875911734E+04  0.00000000000E+00 0.  1.
          1   -1    0    0  501    0 -0.00000000000E+00 -0.00000000000E+00 -0.37942080450E+02  0.37942080450E+02  0.00000000000E+00 0.  1.
          2    1    1    2  501    0  0.68290687089E+02  0.85976975409E+02  0.99575541166E+03  0.10017906458E+04  0.00000000000E+00 0.  1.
          1    1    1    2  502    0  0.21922800226E+02 -0.31243443717E+02  0.31016401004E+02  0.49181084538E+02  0.00000000000E+00 0.  1.
         22    1    1    2    0    0  0.19249870033E+02  0.94904791631E+00  0.96250111480E+02  0.98160797410E+02  0.00000000000E+00 0.  1.
         22    1    1    2    0    0 -0.10946335735E+03 -0.55682579608E+02  0.12662716879E+03  0.17640072604E+03  0.00000000000E+00 0.  1.
</event>
<event>
 6    1  0.2144783E-005  0.7675484E+02  0.7818608E-02  0.1338663E+00
          2   -1    0    0  502    0  0.00000000000E+00  0.00000000000E+00  0.22359995174E+03  0.22359995174E+03  0.00000000000E+00 0.  1.
          1   -1    0    0  501    0 -0.00000000000E+00 -0.00000000000E+00 -0.27379738513E+03  0.27379738513E+03  0.00000000000E+00 0. -1.
          2    1    1    2  501    0 -0.19707301164E+02  0.61038996233E+02  0.16366268706E+03  0.17578285444E+03  0.00000000000E+00 0.  1.
          1    1    1    2  502    0  0.14317371928E+02 -0.56255768393E+02 -0.18756587516E+03  0.19634321008E+03  0.00000000000E+00 0. -1.
         22    1    1    2    0    0 -0.65502785634E+01  0.92084279053E+01  0.47702446674E+02  0.49022695891E+02  0.00000000000E+00 0.  1.
         22    1    1    2    0    0  0.11940207800E+02 -0.13991655745E+02 -0.73996691951E+02  0.76248576462E+02  0.00000000000E+00 0. -1.
</event>
<event>
 6    1  0.2144783E-005  0.4312449E+02  0.7818608E-02  0.1533722E+00
          2   -1    0    0  502    0  0.00000000000E+00  0.00000000000E+00  0.38823227030E+02  0.38823227030E+02  0.00000000000E+00 0.  1.
          1   -1    0    0  501    0 -0.00000000000E+00 -0.00000000000E+00 -0.46249857321E+03  0.46249857321E+03  0.00000000000E+00 0.  1.
          2    1    1    2  501    0  0.37010360652E+02 -0.18684244384E+02 -0.50307425731E+02  0.65189760450E+02  0.00000000000E+00 0.  1.
          1    1    1    2  502    0 -0.77105436291E+02  0.26227177345E+02 -0.23021759826E+03  0.24419921311E+03  0.00000000000E+00 0.  1.
         22    1    1    2    0    0  0.31981341628E+02  0.80866402589E+01 -0.16247375114E+03  0.16578878060E+03  0.00000000000E+00 0.  1.
         22    1    1    2    0    0  0.81137340116E+01 -0.15629573220E+02  0.19323428953E+02  0.26144046074E+02  0.00000000000E+00 0.  1.
</event>
<event>
 6    1  0.2144783E-005  0.4072138E+02  0.7818608E-02  0.1544515E+00
          2   -1    0    0  502    0  0.00000000000E+00  0.00000000000E+00  0.86559303967E+02  0.86559303967E+02  0.00000000000E+00 0. -1.
          1   -1    0    0  501    0 -0.00000000000E+00 -0.00000000000E+00 -0.20309745801E+03  0.20309745801E+03  0.00000000000E+00 0. -1.
          2    1    1    2  501    0  0.56278792603E+02 -0.15536912346E+02 -0.38462980768E+02  0.69914941405E+02  0.00000000000E+00 0. -1.
          1    1    1    2  502    0 -0.19735409222E+02  0.13934829145E+02 -0.84195581872E+02  0.87593160961E+02  0.00000000000E+00 0. -1.
         22    1    1    2    0    0 -0.23340548204E+02 -0.20003553593E+01  0.66360283452E+02  0.70373786540E+02  0.00000000000E+00 0. -1.
         22    1    1    2    0    0 -0.13202835177E+02  0.36024385610E+01 -0.60239874852E+02  0.61774873068E+02  0.00000000000E+00 0.  1.
</event>
<event>
 6    1  0.2144783E-005  0.4345948E+02  0.7818608E-02  0.1509369E+00
          2   -1    0    0  502    0  0.00000000000E+00  0.00000000000E+00  0.34189448014E+03  0.34189448014E+03  0.00000000000E+00 0. -1.
          1   -1    0    0  501    0 -0.00000000000E+00 -0.00000000000E+00 -0.60016058144E+02  0.60016058144E+02  0.00000000000E+00 0. -1.
          2    1    1    2  501    0  0.67687172318E+02 -0.40050220590E+02  0.15347427594E+03  0.17245268001E+03  0.00000000000E+00 0. -1.
          1    1    1    2  502    0 -0.13025272621E+02  0.43502239863E+02  0.11759081404E+02  0.46908193265E+02  0.00000000000E+00 0. -1.
         22    1    1    2    0    0 -0.31669867604E+02 -0.11851678035E+02 -0.22922369187E+02  0.40851900757E+02  0.00000000000E+00 0. -1.
         22    1    1    2    0    0 -0.22992032094E+02  0.83996587617E+01  0.13956743384E+03  0.14169776426E+03  0.00000000000E+00 0.  1.
</event>
<event>
 6    1  0.2144783E-005  0.5999902E+02  0.7818608E-02  0.1455808E+00
          2   -1    0    0  502    0  0.00000000000E+00  0.00000000000E+00  0.21985127451E+03  0.21985127451E+03  0.00000000000E+00 0. -1.
          1   -1    0    0  501    0 -0.00000000000E+00 -0.00000000000E+00 -0.22019822180E+03  0.22019822180E+03  0.00000000000E+00 0.  1.
          2    1    1    2  501    0  0.60546823819E+02  0.75733025922E+02 -0.10265463889E+03  0.14120688360E+03  0.00000000000E+00 0. -1.
          1    1    1    2  502    0 -0.33566234934E+02 -0.43711146315E+02 -0.66051720087E+02  0.86024334733E+02  0.00000000000E+00 0.  1.
         22    1    1    2    0    0 -0.45988432279E+02 -0.22801082591E+02  0.18104151498E+03  0.18817772295E+03  0.00000000000E+00 0. -1.
         22    1    1    2    0    0  0.19007843394E+02 -0.92207970153E+01 -0.12682103295E+02  0.24640555028E+02  0.00000000000E+00 0.  1.
</event>
<event>
 6    1  0.2144783E-005  0.7519025E+02  0.7818608E-02  0.1429645E+00
          2   -1    0    0  502    0  0.00000000000E+00  0.00000000000E+00  0.24412232253E+02  0.24412232253E+02  0.00000000000E+00 0. -1.
          1   -1    0    0  501    0 -0.00000000000E+00 -0.00000000000E+00 -0.62978737828E+03  0.62978737828E+03  0.00000000000E+00 0. -1.
          2    1    1    2  501    0 -0.43402299228E+02  0.48568827743E+02 -0.22038545425E+03  0.22980957128E+03  0.00000000000E+00 0. -1.
          1    1    1    2  502    0  0.30888878556E+02 -0.15980414952E+02 -0.16071711370E+03  0.16443687882E+03  0.00000000000E+00 0. -1.
         22    1    1    2    0    0 -0.18076085517E+02  0.44077834013E+01  0.97861123275E+01  0.21022402732E+02  0.00000000000E+00 0. -1.
         22    1    1    2    0    0  0.30589506189E+02 -0.36996196193E+02 -0.23405869040E+03  0.23893075769E+03  0.00000000000E+00 0. -1.
</event>
<event>
 6    1  0.2144783E-005  0.1275049E+03  0.7818608E-02  0.1234141E+00
          2   -1    0    0  502    0  0.00000000000E+00  0.00000000000E+00  0.17421932191E+03  0.17421932191E+03  0.00000000000E+00 0.  1.
          1   -1    0    0  501    0 -0.00000000000E+00 -0.00000000000E+00 -0.24253108214E+03  0.24253108214E+03  0.00000000000E+00 0. -1.
          2    1    1    2  501    0  0.81358486413E+02 -0.65535594587E+02  0.10108889428E+03  0.14537221886E+03  0.00000000000E+00 0.  1.
          1    1    1    2  502    0 -0.68798522386E+02  0.27259456451E+02 -0.96978921994E+02  0.12198863045E+03  0.00000000000E+00 0. -1.
         22    1    1    2    0    0  0.57737400825E+01 -0.97944276855E+01  0.31467818223E+02  0.33458787664E+02  0.00000000000E+00 0. -1.
         22    1    1    2    0    0 -0.18333704110E+02  0.48070565821E+02 -0.10388955073E+03  0.11593076708E+03  0.00000000000E+00 0. -1.
</event>
<event>
 6    1  0.1455099E-004  0.1984023E+02  0.7818608E-02  0.1766653E+00
          2   -1    0    0  502    0  0.00000000000E+00  0.00000000000E+00  0.86196487853E+02  0.86196487853E+02  0.00000000000E+00 0.  1.
          1   -1    0    0  501    0 -0.00000000000E+00 -0.00000000000E+00 -0.11182227195E+04  0.11182227195E+04  0.00000000000E+00 0.  1.
          2    1    1    2  501    0 -0.31221527113E+02 -0.62000417536E+01 -0.20914428954E+02  0.38087236858E+02  0.00000000000E+00 0.  1.
          1    1    1    2  502    0  0.25396562466E+02 -0.71274727155E+01 -0.10392462449E+04  0.10395809462E+04  0.00000000000E+00 0.  1.
         22    1    1    2    0    0 -0.13225945591E+02  0.99931208803E+01 -0.46649206188E+02  0.49506934259E+02  0.00000000000E+00 0.  1.
         22    1    1    2    0    0  0.19050910239E+02  0.33343935889E+01  0.74783648428E+02  0.77244089960E+02  0.00000000000E+00 0.  1.
</event>
<event>
 6    1  0.2144783E-005  0.4697106E+02  0.7818608E-02  0.1501044E+00
          2   -1    0    0  502    0  0.00000000000E+00  0.00000000000E+00  0.68094003745E+02  0.68094003745E+02  0.00000000000E+00 0.  1.
          1   -1    0    0  501    0 -0.00000000000E+00 -0.00000000000E+00 -0.29721101062E+03  0.29721101062E+03  0.00000000000E+00 0. -1.
          2    1    1    2  501    0  0.26401486380E+01  0.35281558648E+02 -0.53564730362E+02  0.64194541079E+02  0.00000000000E+00 0.  1.
          1    1    1    2  502    0  0.13206491988E+02 -0.40680540079E+02 -0.17148572156E+03  0.17673898967E+03  0.00000000000E+00 0. -1.
         22    1    1    2    0    0  0.82400616678E+01 -0.73294404956E+01 -0.60611152436E+02  0.61606258723E+02  0.00000000000E+00 0.  1.
         22    1    1    2    0    0 -0.24086702294E+02  0.12728421926E+02  0.56544597478E+02  0.62765224895E+02  0.00000000000E+00 0.  1.
</event>
<event>
 6    1  0.2144783E-005  0.1117216E+03  0.7818608E-02  0.1363485E+00
          2   -1    0    0  502    0  0.00000000000E+00  0.00000000000E+00  0.44748970770E+02  0.44748970770E+02  0.00000000000E+00 0. -1.
          1   -1    0    0  501    0 -0.00000000000E+00 -0.00000000000E+00 -0.42735592774E+03  0.42735592774E+03  0.00000000000E+00 0. -1.
          2    1    1    2  501    0 -0.48061000199E+02  0.67284427385E+02 -0.50737660204E+02  0.97012185171E+02  0.00000000000E+00 0. -1.
          1    1    1    2  502    0  0.29836612228E+02  0.15066832776E+01 -0.46859476242E+02  0.55572511527E+02  0.00000000000E+00 0. -1.
         22    1    1    2    0    0  0.34484397091E+02 -0.69241768370E+02 -0.29181090466E+03  0.30188938406E+03  0.00000000000E+00 0. -1.
         22    1    1    2    0    0 -0.16260009120E+02  0.45065770778E+00  0.68010841403E+01  0.17630817747E+02  0.00000000000E+00 0. -1.
</event>
<event>
 6    1  0.2144783E-005  0.8164354E+02  0.7818608E-02  0.1419717E+00
          2   -1    0    0  502    0  0.00000000000E+00  0.00000000000E+00  0.14794010785E+03  0.14794010785E+03  0.00000000000E+00 0. -1.
          1   -1    0    0  501    0 -0.00000000000E+00 -0.00000000000E+00 -0.29712701814E+03  0.29712701814E+03  0.00000000000E+00 0. -1.
          2    1    1    2  501    0  0.59665025291E+02  0.34430010666E+02  0.10115227465E+03  0.12238105876E+03  0.00000000000E+00 0. -1.
          1    1    1    2  502    0 -0.20278829556E+02  0.13777102825E+02 -0.15161485317E+03  0.15358418927E+03  0.00000000000E+00 0. -1.
         22    1    1    2    0    0 -0.16573212524E+02 -0.33767272234E+01  0.28026597308E+02  0.32734749377E+02  0.00000000000E+00 0.  1.
         22    1    1    2    0    0 -0.22812983211E+02 -0.44830386268E+02 -0.12675092907E+03  0.13636712858E+03  0.00000000000E+00 0. -1.
</event>
<event>
 6    1  0.2144783E-005  0.6644834E+02  0.7818608E-02  0.1421298E+00
          2   -1    0    0  502    0  0.00000000000E+00  0.00000000000E+00  0.36061622462E+02  0.36061622462E+02  0.00000000000E+00 0. -1.
          1   -1    0    0  501    0 -0.00000000000E+00 -0.00000000000E+00 -0.36795239633E+03  0.36795239633E+03  0.00000000000E+00 0. -1.
          2    1    1    2  501    0  0.22980867973E+02  0.23910095258E+02 -0.41276796892E+01  0.33419316086E+02  0.00000000000E+00 0. -1.
          1    1    1    2  502    0 -0.12788479284E+02 -0.26153132235E+02 -0.13974397704E+03  0.14274421406E+03  0.00000000000E+00 0. -1.
         22    1    1    2    0    0  0.20117488195E+02 -0.23082978942E+02  0.48301950058E+01  0.30997871409E+02  0.00000000000E+00 0. -1.
         22    1    1    2    0    0 -0.30309876883E+02  0.25326015918E+02 -0.19284931214E+03  0.19685261724E+03  0.00000000000E+00 0.  1.
</event>
<event>
 6    1  0.2144783E-005  0.8508945E+02  0.7818608E-02  0.1399179E+00
          2   -1    0    0  502    0  0.00000000000E+00  0.00000000000E+00  0.75249222256E+02  0.75249222256E+02  0.00000000000E+00 0. -1.
          1   -1    0    0  501    0 -0.00000000000E+00 -0.00000000000E+00 -0.21408086127E+03  0.21408086127E+03  0.00000000000E+00 0. -1.
          2    1    1    2  501    0  0.40755988982E+02 -0.23129229169E+02  0.42657437885E+00  0.46863566292E+02  0.00000000000E+00 0. -1.
          1    1    1    2  502    0 -0.50914494334E+02  0.47736436955E+02 -0.48089160203E+02  0.84756241513E+02  0.00000000000E+00 0. -1.
         22    1    1    2    0    0  0.29431258669E+02 -0.31858636900E+02  0.17748393222E+02  0.46863388631E+02  0.00000000000E+00 0. -1.
         22    1    1    2    0    0 -0.19272753318E+02  0.72514291143E+01 -0.10891744641E+03  0.11084688709E+03  0.00000000000E+00 0. -1.
</event>
<event>
 6    1  0.2144783E-005  0.1433188E+03  0.7818608E-02  0.1246735E+00
          2   -1    0    0  502    0  0.00000000000E+00  0.00000000000E+00  0.20344863669E+03  0.20344863669E+03  0.00000000000E+00 0. -1.
          1   -1    0    0  501    0 -0.00000000000E+00 -0.00000000000E+00 -0.28997817786E+03  0.28997817786E+03  0.00000000000E+00 0.  1.
          2    1    1    2  501    0 -0.12147283280E+03  0.35103918784E+02  0.56296865878E+02  0.13840979492E+03  0.00000000000E+00 0. -1.
          1    1    1    2  502    0  0.98896630001E+02 -0.74557554903E+02 -0.17966359828E+03  0.21821636274E+03  0.00000000000E+00 0.  1.
         22    1    1    2    0    0  0.15939729141E+02  0.63490875250E+02  0.69652434980E+02  0.95585709726E+02  0.00000000000E+00 0. -1.
         22    1    1    2    0    0  0.66364736592E+01 -0.24037239131E+02 -0.32815243749E+02  0.41214947167E+02  0.00000000000E+00 0.  1.
</event>
<event>
 6    1  0.2144783E-005  0.1111162E+03  0.7818608E-02  0.1279291E+00
          2   -1    0    0  502    0  0.00000000000E+00  0.00000000000E+00  0.85845769927E+03  0.85845769927E+03  0.00000000000E+00 0. -1.
          1   -1    0    0  501    0 -0.00000000000E+00 -0.00000000000E+00 -0.92774316817E+02  0.92774316817E+02  0.00000000000E+00 0. -1.
          2    1    1    2  501    0 -0.41188309518E+02  0.44119890375E+02  0.46548712232E+03  0.46938396076E+03  0.00000000000E+00 0. -1.
          1    1    1    2  502    0 -0.56239022729E+02 -0.10176232423E+03  0.29294882039E+03  0.31517837755E+03  0.00000000000E+00 0. -1.
         22    1    1    2    0    0  0.10277996282E+03  0.47234851484E+02 -0.38470661449E+02  0.11947737754E+03  0.00000000000E+00 0. -1.
         22    1    1    2    0    0 -0.53526305768E+01  0.10407582366E+02  0.45718101197E+02  0.47192300239E+02  0.00000000000E+00 0.  1.
</event>
<event>
 6    1  0.2144783E-005  0.1053360E+03  0.7818608E-02  0.1270905E+00
          2   -1    0    0  502    0  0.00000000000E+00  0.00000000000E+00  0.12080978854E+03  0.12080978854E+03  0.00000000000E+00 0. -1.
          1   -1    0    0  501    0 -0.00000000000E+00 -0.00000000000E+00 -0.13336271060E+03  0.13336271060E+03  0.00000000000E+00 0.  1.
          2    1    1    2  501    0  0.13581790027E+02 -0.73358063925E+02  0.41786802641E+02  0.85510276799E+02  0.00000000000E+00 0. -1.
          1    1    1    2  502    0 -0.15809706642E+02  0.14271728657E+02 -0.10502037550E+02  0.23747038882E+02  0.00000000000E+00 0.  1.
         22    1    1    2    0    0 -0.10833346905E+02  0.82674657715E+02 -0.68853045393E+02  0.10813511129E+03  0.00000000000E+00 0.  1.
         22    1    1    2    0    0  0.13061263520E+02 -0.23588322446E+02  0.25015358243E+02  0.36780072166E+02  0.00000000000E+00 0. -1.
</event>
<event>
 6    1  0.2144783E-005  0.1020039E+03  0.7818608E-02  0.1374613E+00
          2   -1    0    0  502    0  0.00000000000E+00  0.00000000000E+00  0.36750224659E+02  0.36750224659E+02  0.00000000000E+00 0.  1.
          1   -1    0    0  501    0 -0.00000000000E+00 -0.00000000000E+00 -0.53849153598E+03  0.53849153598E+03  0.00000000000E+00 0.  1.
          2    1    1    2  501    0  0.39110690203E+02 -0.27398569806E+02 -0.19347975730E+03  0.19928558453E+03  0.00000000000E+00 0.  1.
          1    1    1    2  502    0 -0.23770081163E+02  0.52989799818E+02 -0.21036549093E+03  0.21823513791E+03  0.00000000000E+00 0.  1.
         22    1    1    2    0    0  0.15040440115E+02  0.94666658845E+01  0.22514395600E+02  0.28683281037E+02  0.00000000000E+00 0.  1.
         22    1    1    2    0    0 -0.30381049155E+02 -0.35057895897E+02 -0.12041045869E+03  0.12903775717E+03  0.00000000000E+00 0.  1.
</event>
<event>
 6    1  0.2144783E-005  0.7753050E+02  0.7818608E-02  0.1440875E+00
          2   -1    0    0  502    0  0.00000000000E+00  0.00000000000E+00  0.28719359233E+03  0.28719359233E+03  0.00000000000E+00 0.  1.
          1   -1    0    0  501    0 -0.00000000000E+00 -0.00000000000E+00 -0.29766389479E+03  0.29766389479E+03  0.00000000000E+00 0.  1.
          2    1    1    2  501    0  0.36826720022E+02  0.43152401655E+02  0.19819725242E+03  0.20615646471E+03  0.00000000000E+00 0.  1.
          1    1    1    2  502    0 -0.18131499687E+02 -0.64348790342E+02 -0.23511804240E+03  0.24443815569E+03  0.00000000000E+00 0.  1.
         22    1    1    2    0    0 -0.14311516058E+02  0.77703393208E+00 -0.51554905323E+02  0.53510106863E+02  0.00000000000E+00 0.  1.
         22    1    1    2    0    0 -0.43837042767E+01  0.20419354755E+02  0.78005392845E+02  0.80752759858E+02  0.00000000000E+00 0.  1.
</event>
<event>
 6    1  0.2144783E-005  0.9422898E+02  0.7818608E-02  0.1415419E+00
          2   -1    0    0  502    0  0.00000000000E+00  0.00000000000E+00  0.49977279764E+02  0.49977279764E+02  0.00000000000E+00 0.  1.
          1   -1    0    0  501    0 -0.00000000000E+00 -0.00000000000E+00 -0.34873844939E+03  0.34873844939E+03  0.00000000000E+00 0.  1.
          2    1    1    2  501    0 -0.94249863875E+01  0.64754424514E+02 -0.42597916532E+02  0.78080396743E+02  0.00000000000E+00 0.  1.
          1    1    1    2  502    0 -0.27284561106E+02  0.74184339280E+00 -0.11236077559E+03  0.11562846318E+03  0.00000000000E+00 0.  1.
         22    1    1    2    0    0  0.29988108526E+02 -0.55851326960E+02 -0.16720430444E+03  0.17881816686E+03  0.00000000000E+00 0.  1.
         22    1    1    2    0    0  0.67214389677E+01 -0.96449409472E+01  0.23401826938E+02  0.26188702368E+02  0.00000000000E+00 0.  1.
</event>
<event>
 6    1  0.2144783E-005  0.2202072E+03  0.7818608E-02  0.1237276E+00
          2   -1    0    0  502    0  0.00000000000E+00  0.00000000000E+00  0.91556743911E+03  0.91556743911E+03  0.00000000000E+00 0.  1.
          1   -1    0    0  501    0 -0.00000000000E+00 -0.00000000000E+00 -0.13806787953E+03  0.13806787953E+03  0.00000000000E+00 0. -1.
          2    1    1    2  501    0 -0.17413305121E+03  0.60713919273E+02  0.59473940108E+03  0.62267443717E+03  0.00000000000E+00 0.  1.
          1    1    1    2  502    0  0.22259327852E+03 -0.71115782546E+02  0.45448966865E+02  0.23805636046E+03  0.00000000000E+00 0. -1.
         22    1    1    2    0    0 -0.21584439776E+02 -0.34295281586E+01 -0.21846693330E+02  0.30901904687E+02  0.00000000000E+00 0.  1.
         22    1    1    2    0    0 -0.26875787537E+02  0.13831391431E+02  0.15915788497E+03  0.16200261631E+03  0.00000000000E+00 0.  1.
</event>
<event>
 6    1  0.2144783E-005  0.6712587E+02  0.7818608E-02  0.1376067E+00
          2   -1    0    0  502    0  0.00000000000E+00  0.00000000000E+00  0.52331718686E+03  0.52331718686E+03  0.00000000000E+00 0.  1.
          1   -1    0    0  501    0 -0.00000000000E+00 -0.00000000000E+00 -0.90356628395E+02  0.90356628395E+02  0.00000000000E+00 0. -1.
          2    1    1    2  501    0 -0.66031480307E+02 -0.33706989077E+02  0.18438560187E+03  0.19873189900E+03  0.00000000000E+00 0.  1.
          1    1    1    2  502    0 -0.68115903606E+01  0.50390991082E+02 -0.55937733534E+02  0.75595501046E+02  0.00000000000E+00 0. -1.
         22    1    1    2    0    0  0.52760483152E+01  0.85364410607E+01 -0.11468486094E+02  0.15239215370E+02  0.00000000000E+00 0. -1.
         22    1    1    2    0    0  0.67567022352E+02 -0.25220443066E+02  0.31598117622E+03  0.32410719983E+03  0.00000000000E+00 0.  1.
</event>
<event>
 6    1  0.2144783E-005  0.9142637E+02  0.7818608E-02  0.1361506E+00
          2   -1    0    0  502    0  0.00000000000E+00  0.00000000000E+00  0.27592642490E+03  0.27592642490E+03  0.00000000000E+00 0. -1.
          1   -1    0    0  501    0 -0.00000000000E+00 -0.00000000000E+00 -0.23009693549E+03  0.23009693549E+03  0.00000000000E+00 0.  1.
          2    1    1    2  501    0  0.46579557011E+02  0.14308358972E+03  0.11927109376E+03  0.19201083976E+03  0.00000000000E+00 0. -1.
          1    1    1    2  502    0 -0.11711106114E+02 -0.16702326705E+03 -0.56008774079E+02  0.17655283775E+03  0.00000000000E+00 0.  1.
         22    1    1    2    0    0 -0.50568289065E+02  0.15939888910E+02 -0.66659379122E+02  0.85174554547E+02  0.00000000000E+00 0.  1.
         22    1    1    2    0    0  0.15699838168E+02  0.79997884189E+01  0.49226548852E+02  0.52285128336E+02  0.00000000000E+00 0. -1.
</event>
<event>
 6    1  0.2144783E-005  0.1570211E+03  0.7818608E-02  0.1270659E+00
          2   -1    0    0  502    0  0.00000000000E+00  0.00000000000E+00  0.25235693735E+03  0.25235693735E+03  0.00000000000E+00 0.  1.
          1   -1    0    0  501    0 -0.00000000000E+00 -0.00000000000E+00 -0.81124573580E+02  0.81124573580E+02  0.00000000000E+00 0.  1.
          2    1    1    2  501    0 -0.76874519015E+02 -0.70161475916E+01  0.62584128246E+02  0.99376511859E+02  0.00000000000E+00 0.  1.
          1    1    1    2  502    0  0.87526097284E+01 -0.38635348575E+02  0.67879156511E+02  0.78593118180E+02  0.00000000000E+00 0.  1.
         22    1    1    2    0    0 -0.26097936545E+02  0.16860839521E+02  0.47502502322E+02  0.56761588492E+02  0.00000000000E+00 0.  1.
         22    1    1    2    0    0  0.94219845832E+02  0.28790656645E+02 -0.67334233138E+01  0.98750292395E+02  0.00000000000E+00 0.  1.
</event>
<event>
 6    1  0.2144783E-005  0.2272030E+02  0.7818608E-02  0.1701378E+00
          2   -1    0    0  502    0  0.00000000000E+00  0.00000000000E+00  0.24627130930E+03  0.24627130930E+03  0.00000000000E+00 0.  1.
          1   -1    0    0  501    0 -0.00000000000E+00 -0.00000000000E+00 -0.14875241960E+03  0.14875241960E+03  0.00000000000E+00 0.  1.
          2    1    1    2  501    0  0.15510735297E+02  0.41849158463E+02  0.19009963762E+03  0.19526855148E+03  0.00000000000E+00 0.  1.
          1    1    1    2  502    0 -0.73594459000E+01 -0.24271895617E+02 -0.66945971697E+02  0.71589450949E+02  0.00000000000E+00 0.  1.
         22    1    1    2    0    0  0.50781556971E+01 -0.12421630087E+02 -0.75312512381E+02  0.76498752150E+02  0.00000000000E+00 0.  1.
         22    1    1    2    0    0 -0.13229445095E+02 -0.51556327590E+01  0.49677736153E+02  0.51666974325E+02  0.00000000000E+00 0. -1.
</event>
<event>
 6    1  0.2144783E-005  0.8034446E+02  0.7818608E-02  0.1398864E+00
          2   -1    0    0  502    0  0.00000000000E+00  0.00000000000E+00  0.15081249403E+03  0.15081249403E+03  0.00000000000E+00 0.  1.
          1   -1    0    0  501    0 -0.00000000000E+00 -0.00000000000E+00 -0.13612174074E+03  0.13612174074E+03  0.00000000000E+00 0.  1.
          2    1    1    2  501    0  0.66734852967E+01 -0.67900860408E+02  0.20898962685E+02  0.71357052150E+02  0.00000000000E+00 0.  1.
          1    1    1    2  502    0  0.10880970964E+02  0.59558773603E+02 -0.55300118260E+02  0.81998451947E+02  0.00000000000E+00 0.  1.
         22    1    1    2    0    0 -0.20555222571E+02 -0.13482444930E+02  0.86631915117E+02  0.90052108321E+02  0.00000000000E+00 0.  1.
         22    1    1    2    0    0  0.30007663100E+01  0.21824531735E+02 -0.37540006254E+02  0.43526622353E+02  0.00000000000E+00 0.  1.
</event>
<event>
 6    1  0.2144783E-005  0.8258485E+02  0.7818608E-02  0.1344184E+00
          2   -1    0    0  502    0  0.00000000000E+00  0.00000000000E+00  0.45309454725E+03  0.45309454725E+03  0.00000000000E+00 0. -1.
          1   -1    0    0  501    0 -0.00000000000E+00 -0.00000000000E+00 -0.69221373866E+02  0.69221373866E+02  0.00000000000E+00 0. -1.
          2    1    1    2  501    0 -0.82182582416E+02  0.55182463418E+01 -0.15099970270E+02  0.83740294945E+02  0.00000000000E+00 0. -1.
          1    1    1    2  502    0  0.25138676115E+02 -0.28435019221E+02  0.55838475765E+02  0.67516210873E+02  0.00000000000E+00 0. -1.
         22    1    1    2    0    0  0.16447223614E+02  0.53397376175E+02  0.29780524609E+03  0.30300124678E+03  0.00000000000E+00 0. -1.
         22    1    1    2    0    0  0.40596682687E+02 -0.30480603295E+02  0.45329421798E+02  0.68058168525E+02  0.00000000000E+00 0.  1.
</event>
<event>
 6    1  0.2144783E-005  0.8894383E+02  0.7818608E-02  0.1411204E+00
          2   -1    0    0  502    0  0.00000000000E+00  0.00000000000E+00  0.29747593236E+03  0.29747593236E+03  0.00000000000E+00 0. -1.
          1   -1    0    0  501    0 -0.00000000000E+00 -0.00000000000E+00 -0.29503229816E+03  0.29503229816E+03  0.00000000000E+00 0. -1.
          2    1    1    2  501    0 -0.60043093065E+02 -0.66934882331E+02  0.19914519985E+03  0.21850460435E+03  0.00000000000E+00 0. -1.
          1    1    1    2  502    0  0.54301008531E+02  0.49741401274E+02 -0.23103054393E+03  0.24248282157E+03  0.00000000000E+00 0. -1.
         22    1    1    2    0    0 -0.86734313086E+01  0.12145266708E+02  0.81026158210E+02  0.82389163294E+02  0.00000000000E+00 0. -1.
         22    1    1    2    0    0  0.14415515842E+02  0.50482143490E+01 -0.46697179929E+02  0.49131641316E+02  0.00000000000E+00 0. -1.
</event>
<event>
 6    1  0.2144783E-005  0.2701256E+03  0.7818608E-02  0.1127586E+00
          2   -1    0    0  502    0  0.00000000000E+00  0.00000000000E+00  0.63137421398E+03  0.63137421398E+03  0.00000000000E+00 0.  1.
          1   -1    0    0  501    0 -0.00000000000E+00 -0.00000000000E+00 -0.31261062019E+03  0.31261062019E+03  0.00000000000E+00 0. -1.
          2    1    1    2  501    0 -0.62256783318E+01 -0.18907375077E+03  0.88442939611E+02  0.20882958571E+03  0.00000000000E+00 0.  1.
          1    1    1    2  502    0  0.10572960183E+02  0.31827792574E+03 -0.12195240345E+03  0.34100588589E+03  0.00000000000E+00 0. -1.
         22    1    1    2    0    0  0.67166350439E+01  0.90519672656E+01 -0.38971534271E+01  0.11926403587E+02  0.00000000000E+00 0. -1.
         22    1    1    2    0    0 -0.11063916895E+02 -0.13825614224E+03  0.35617021107E+03  0.38222295899E+03  0.00000000000E+00 0.  1.
</event>
<event>
 6    1  0.2144783E-005  0.8113792E+02  0.7818608E-02  0.1325991E+00
          2   -1    0    0  502    0  0.00000000000E+00  0.00000000000E+00  0.56282278527E+02  0.56282278527E+02  0.00000000000E+00 0.  1.
          1   -1    0    0  501    0 -0.00000000000E+00 -0.00000000000E+00 -0.69790401714E+03  0.69790401714E+03  0.00000000000E+00 0. -1.
          2    1    1    2  501    0 -0.14764937402E+02  0.39568557161E+02  0.22427550193E+02  0.47819129017E+02  0.00000000000E+00 0.  1.
          1    1    1    2  502    0  0.44582728295E+01 -0.43504012284E+02 -0.47862238966E+03  0.48061613286E+03  0.00000000000E+00 0. -1.
         22    1    1    2    0    0  0.38263892297E+01  0.36374778611E+02  0.82446608126E+00  0.36584771666E+02  0.00000000000E+00 0.  1.
         22    1    1    2    0    0  0.64802753429E+01 -0.32439323488E+02 -0.18625136522E+03  0.18916626212E+03  0.00000000000E+00 0. -1.
</event>
<event>
 6    1  0.2144783E-005  0.8972082E+02  0.7818608E-02  0.1376867E+00
          2   -1    0    0  502    0  0.00000000000E+00  0.00000000000E+00  0.17587875936E+03  0.17587875936E+03  0.00000000000E+00 0.  1.
          1   -1    0    0  501    0 -0.00000000000E+00 -0.00000000000E+00 -0.16580119847E+03  0.16580119847E+03  0.00000000000E+00 0.  1.
          2    1    1    2  501    0 -0.15955022661E+02  0.24006780010E+02  0.29281488857E+02  0.41088852798E+02  0.00000000000E+00 0.  1.
          1    1    1    2  502    0  0.25604089597E+02 -0.36788578882E+02 -0.12596323916E+03  0.13370006193E+03  0.00000000000E+00 0.  1.
         22    1    1    2    0    0  0.22827952064E+02  0.10594624061E+02  0.12639528699E+03  0.12887641378E+03  0.00000000000E+00 0.  1.
         22    1    1    2    0    0 -0.32477019000E+02  0.21871748110E+01 -0.19635975805E+02  0.38014629323E+02  0.00000000000E+00 0.  1.
</event>
<event>
 6    1  0.2144783E-005  0.7119517E+02  0.7818608E-02  0.1436179E+00
          2   -1    0    0  502    0  0.00000000000E+00  0.00000000000E+00  0.67262785191E+02  0.67262785191E+02  0.00000000000E+00 0.  1.
          1   -1    0    0  501    0 -0.00000000000E+00 -0.00000000000E+00 -0.40609840941E+03  0.40609840941E+03  0.00000000000E+00 0.  1.
          2    1    1    2  501    0  0.52278611670E+02 -0.13050048757E+02 -0.36075466930E+01  0.54003438815E+02  0.00000000000E+00 0.  1.
          1    1    1    2  502    0 -0.44311329427E+02  0.26196487875E+02 -0.28033178041E+03  0.28501869588E+03  0.00000000000E+00 0.  1.
         22    1    1    2    0    0 -0.21387354493E+02  0.14904608545E+01 -0.90806984571E+02  0.93303530762E+02  0.00000000000E+00 0. -1.
         22    1    1    2    0    0  0.13420072251E+02 -0.14636899972E+02  0.35910687447E+02  0.41035529154E+02  0.00000000000E+00 0.  1.
</event>
<event>
 6    1  0.2144783E-005  0.3744019E+02  0.7818608E-02  0.1571953E+00
          2   -1    0    0  502    0  0.00000000000E+00  0.00000000000E+00  0.18683989003E+03  0.18683989003E+03  0.00000000000E+00 0.  1.
          1   -1    0    0  501    0 -0.00000000000E+00 -0.00000000000E+00 -0.13951810264E+03  0.13951810264E+03  0.00000000000E+00 0. -1.
          2    1    1    2  501    0  0.59711354985E+02 -0.30535404110E+02  0.10324320460E+03  0.12311383397E+03  0.00000000000E+00 0.  1.
          1    1    1    2  502    0 -0.38830305285E+02  0.38936906049E+02 -0.44848150229E+02  0.70959367529E+02  0.00000000000E+00 0. -1.
         22    1    1    2    0    0 -0.68506746521E+00 -0.11586894300E+02  0.58566554578E+02  0.59705667671E+02  0.00000000000E+00 0.  1.
         22    1    1    2    0    0 -0.20195982234E+02  0.31853923612E+01 -0.69639821553E+02  0.72579123506E+02  0.00000000000E+00 0.  1.
</event>
<event>
 6    1  0.2144783E-005  0.8998513E+02  0.7818608E-02  0.1377141E+00
          2   -1    0    0  502    0  0.00000000000E+00  0.00000000000E+00  0.46546802395E+02  0.46546802395E+02  0.00000000000E+00 0. -1.
          1   -1    0    0  501    0 -0.00000000000E+00 -0.00000000000E+00 -0.46442079130E+03  0.46442079130E+03  0.00000000000E+00 0. -1.
          2    1    1    2  501    0  0.26172063057E+02  0.54670546159E+02 -0.65070819281E+01  0.60960541477E+02  0.00000000000E+00 0. -1.
          1    1    1    2  502    0 -0.26909141339E+02 -0.85032531027E+01 -0.18480857337E+03  0.18695083844E+03  0.00000000000E+00 0. -1.
         22    1    1    2    0    0 -0.20982360447E+02 -0.58208239348E+02 -0.22982508077E+03  0.23800845852E+03  0.00000000000E+00 0. -1.
         22    1    1    2    0    0  0.21719438729E+02  0.12040946291E+02  0.32667471667E+01  0.25047755255E+02  0.00000000000E+00 0.  1.
</event>
<event>
 6    1  0.2144783E-005  0.4393311E+02  0.7818608E-02  0.1492826E+00
          2   -1    0    0  502    0  0.00000000000E+00  0.00000000000E+00  0.20124634172E+03  0.20124634172E+03  0.00000000000E+00 0. -1.
          1   -1    0    0  501    0 -0.00000000000E+00 -0.00000000000E+00 -0.71400590603E+02  0.71400590603E+02  0.00000000000E+00 0. -1.
          2    1    1    2  501    0  0.45344994733E+02 -0.13030298470E+02 -0.11421026519E+02  0.48542734496E+02  0.00000000000E+00 0. -1.
          1    1    1    2  502    0 -0.25319940937E+02 -0.76702806939E+01 -0.89658519408E+01  0.27934192596E+02  0.00000000000E+00 0. -1.
         22    1    1    2    0    0 -0.78798610073E+01 -0.14559038386E+02 -0.17647925819E+02  0.24197253851E+02  0.00000000000E+00 0. -1.
         22    1    1    2    0    0 -0.12145192789E+02  0.35259617550E+02  0.16788055539E+03  0.17197275138E+03  0.00000000000E+00 0. -1.
</event>
<event>
 6    1  0.2144783E-005  0.4580702E+02  0.7818608E-02  0.1502546E+00
          2   -1    0    0  502    0  0.00000000000E+00  0.00000000000E+00  0.52377654784E+03  0.52377654784E+03  0.00000000000E+00 0. -1.
          1   -1    0    0  501    0 -0.00000000000E+00 -0.00000000000E+00 -0.17390687077E+03  0.17390687077E+03  0.00000000000E+00 0.  1.
          2    1    1    2  501    0  0.20072780282E+02 -0.24244448422E+02  0.43329080621E+03  0.43443254084E+03  0.00000000000E+00 0. -1.
          1    1    1    2  502    0  0.74090682930E+01  0.29742520337E+02 -0.12226297991E+03  0.12604661069E+03  0.00000000000E+00 0.  1.
         22    1    1    2    0    0 -0.60320408747E+01  0.13682306806E+02 -0.45602788404E+02  0.47991721649E+02  0.00000000000E+00 0.  1.
         22    1    1    2    0    0 -0.21449807701E+02 -0.19180378720E+02  0.84444639176E+02  0.89212545440E+02  0.00000000000E+00 0.  1.
</event>
<event>
 6    1  0.2144783E-005  0.4017308E+02  0.7818608E-02  0.1593816E+00
          2   -1    0    0  502    0  0.00000000000E+00  0.00000000000E+00  0.25177547395E+03  0.25177547395E+03  0.00000000000E+00 0.  1.
          1   -1    0    0  501    0 -0.00000000000E+00 -0.00000000000E+00 -0.14254221609E+03  0.14254221609E+03  0.00000000000E+00 0. -1.
          2    1    1    2  501    0 -0.14380743615E+02 -0.17552454695E+02  0.16312020942E+03  0.16469091406E+03  0.00000000000E+00 0.  1.
          1    1    1    2  502    0  0.31108739009E+02  0.21561169679E+02 -0.89199341577E+02  0.96897679118E+02  0.00000000000E+00 0. -1.
         22    1    1    2    0    0 -0.86917040759E+01 -0.14425011042E+02  0.82263453013E+02  0.83969651451E+02  0.00000000000E+00 0. -1.
         22    1    1    2    0    0 -0.80362913175E+01  0.10416296058E+02 -0.46951062992E+02  0.48759445422E+02  0.00000000000E+00 0. -1.
</event>
<event>
 6    1  0.2144783E-005  0.4565916E+02  0.7818608E-02  0.1529896E+00
          2   -1    0    0  502    0  0.00000000000E+00  0.00000000000E+00  0.10504215328E+03  0.10504215328E+03  0.00000000000E+00 0.  1.
          1   -1    0    0  501    0 -0.00000000000E+00 -0.00000000000E+00 -0.24010119804E+03  0.24010119804E+03  0.00000000000E+00 0. -1.
          2    1    1    2  501    0 -0.14852106152E+00  0.33261725494E+02  0.55169528341E+02  0.64420814173E+02  0.00000000000E+00 0.  1.
          1    1    1    2  502    0 -0.20411475261E+02 -0.21781659779E+02 -0.14018665153E+03  0.14332957229E+03  0.00000000000E+00 0. -1.
         22    1    1    2    0    0  0.19590956952E+02  0.45676099569E+01  0.40613806567E+02  0.45322730929E+02  0.00000000000E+00 0.  1.
         22    1    1    2    0    0  0.96903937054E+00 -0.16047675672E+02 -0.90655728134E+02  0.92070233927E+02  0.00000000000E+00 0.  1.
</event>
<event>
 6    1  0.2144783E-005  0.8361057E+02  0.7818608E-02  0.1342501E+00
          2   -1    0    0  502    0  0.00000000000E+00  0.00000000000E+00  0.23538409502E+03  0.23538409502E+03  0.00000000000E+00 0. -1.
          1   -1    0    0  501    0 -0.00000000000E+00 -0.00000000000E+00 -0.98617509841E+02  0.98617509841E+02  0.00000000000E+00 0. -1.
          2    1    1    2  501    0  0.30404740908E+02  0.52850971747E+02  0.22398702575E+02  0.64956719139E+02  0.00000000000E+00 0. -1.
          1    1    1    2  502    0  0.16714688512E+02 -0.73474953426E+02 -0.21340628477E+02  0.78315847801E+02  0.00000000000E+00 0. -1.
         22    1    1    2    0    0 -0.36120358828E+02  0.42040661993E+02  0.15191241505E+03  0.16170800670E+03  0.00000000000E+00 0. -1.
         22    1    1    2    0    0 -0.10999070592E+02 -0.21416680314E+02 -0.16203903970E+02  0.29021031226E+02  0.00000000000E+00 0. -1.
</event>
<event>
 6    1  0.2144783E-005  0.1627632E+03  0.7818608E-02  0.1239290E+00
          2   -1    0    0  502    0  0.00000000000E+00  0.00000000000E+00  0.25742754684E+03  0.25742754684E+03  0.00000000000E+00 0.  1.
          1   -1    0    0  501    0 -0.00000000000E+00 -0.00000000000E+00 -0.24215758903E+03  0.24215758903E+03  0.00000000000E+00 0. -1.
          2    1    1    2  501    0 -0.36719614992E+01  0.14642281762E+03 -0.13725019997E+03  0.20072553951E+03  0.00000000000E+00 0.  1.
          1    1    1    2  502    0  0.21181988535E+02 -0.12995026954E+03  0.59816863913E+02  0.14461606550E+03  0.00000000000E+00 0. -1.
         22    1    1    2    0    0 -0.18573641716E+02 -0.68409871172E+02  0.59895063436E+02  0.92802528329E+02  0.00000000000E+00 0.  1.
         22    1    1    2    0    0  0.10636146803E+01  0.51937323096E+02  0.32808230435E+02  0.61441002522E+02  0.00000000000E+00 0. -1.
</event>
<event>
 6    1  0.2144783E-005  0.1074572E+03  0.7818608E-02  0.1365494E+00
          2   -1    0    0  502    0  0.00000000000E+00  0.00000000000E+00  0.22317278560E+03  0.22317278560E+03  0.00000000000E+00 0. -1.
          1   -1    0    0  501    0 -0.00000000000E+00 -0.00000000000E+00 -0.62997989305E+03  0.62997989305E+03  0.00000000000E+00 0. -1.
          2    1    1    2  501    0  0.84795514305E+02  0.15173685525E+02  0.18784760814E+03  0.20665731020E+03  0.00000000000E+00 0. -1.
          1    1    1    2  502    0 -0.28890420046E+02 -0.13400402272E+02 -0.42263603265E+03  0.42383421670E+03  0.00000000000E+00 0. -1.
         22    1    1    2    0    0 -0.53940492801E+02  0.15795180802E+02 -0.18958407907E+03  0.19774020213E+03  0.00000000000E+00 0. -1.
         22    1    1    2    0    0 -0.19646014576E+01 -0.17568464055E+02  0.17565396134E+02  0.24920949611E+02  0.00000000000E+00 0. -1.
</event>
<event>
 6    1  0.2144783E-005  0.1055233E+03  0.7818608E-02  0.1381568E+00
          2   -1    0    0  502    0  0.00000000000E+00  0.00000000000E+00  0.23229210667E+03  0.23229210667E+03  0.00000000000E+00 0.  1.
          1   -1    0    0  501    0 -0.00000000000E+00 -0.00000000000E+00 -0.20228279254E+03  0.20228279254E+03  0.00000000000E+00 0. -1.
          2    1    1    2  501    0  0.67524797783E+02  0.25120068752E+02  0.13987184284E+03  0.15733641851E+03  0.00000000000E+00 0.  1.
          1    1    1    2  502    0 -0.31915654764E+02 -0.31739047121E+02 -0.13303404848E+03  0.14044228062E+03  0.00000000000E+00 0. -1.
         22    1    1    2    0    0 -0.49589209044E+02  0.34904274995E+01 -0.45049360109E+02  0.67087387667E+02  0.00000000000E+00 0.  1.
         22    1    1    2    0    0  0.13980066026E+02  0.31285508694E+01  0.68220879881E+02  0.69708812416E+02  0.00000000000E+00 0.  1.
</event>
<event>
 6    1  0.2144783E-005  0.5916245E+02  0.7818608E-02  0.1405137E+00
          2   -1    0    0  502    0  0.00000000000E+00  0.00000000000E+00  0.28462240162E+02  0.28462240162E+02  0.00000000000E+00 0. -1.
          1   -1    0    0  501    0 -0.00000000000E+00 -0.00000000000E+00 -0.34961030791E+03  0.34961030791E+03  0.00000000000E+00 0. -1.
          2    1    1    2  501    0 -0.91027746229E+01 -0.19671599276E+02 -0.15574737550E+02  0.26690911818E+02  0.00000000000E+00 0. -1.
          1    1    1    2  502    0  0.15340262680E+02  0.15749629254E+02 -0.14872728283E+03  0.15034353707E+03  0.00000000000E+00 0. -1.
         22    1    1    2    0    0  0.95316764087E+01  0.31764247103E+02 -0.16476954691E+03  0.16807386424E+03  0.00000000000E+00 0. -1.
         22    1    1    2    0    0 -0.15769164466E+02 -0.27842277081E+02  0.79234995409E+01  0.32964234952E+02  0.00000000000E+00 0. -1.
</event>
<event>
 6    1  0.2144783E-005  0.4963452E+02  0.7818608E-02  0.1559056E+00
          2   -1    0    0  502    0  0.00000000000E+00  0.00000000000E+00  0.45925347945E+03  0.45925347945E+03  0.00000000000E+00 0.  1.
          1   -1    0    0  501    0 -0.00000000000E+00 -0.00000000000E+00 -0.40927955978E+02  0.40927955978E+02  0.00000000000E+00 0.  1.
          2    1    1    2  501    0 -0.33796550505E+02 -0.34042642793E+02  0.26656434735E+03  0.27084619183E+03  0.00000000000E+00 0.  1.
          1    1    1    2  502    0  0.18829014001E+02 -0.88984676740E+01 -0.60592975597E+01  0.21689388698E+02  0.00000000000E+00 0.  1.
         22    1    1    2    0    0  0.23319816683E+02  0.49688232685E+02  0.17719150158E+03  0.18549814703E+03  0.00000000000E+00 0.  1.
         22    1    1    2    0    0 -0.83522801785E+01 -0.67471222171E+01 -0.19371027893E+02  0.22147707873E+02  0.00000000000E+00 0.  1.
</event>
<event>
 6    1  0.2144783E-005  0.1415187E+03  0.7818608E-02  0.1332461E+00
          2   -1    0    0  502    0  0.00000000000E+00  0.00000000000E+00  0.46932901707E+02  0.46932901707E+02  0.00000000000E+00 0. -1.
          1   -1    0    0  501    0 -0.00000000000E+00 -0.00000000000E+00 -0.79227424544E+03  0.79227424544E+03  0.00000000000E+00 0. -1.
          2    1    1    2  501    0 -0.47193024658E+02  0.12405779131E+03 -0.44254576433E+03  0.46202193745E+03  0.00000000000E+00 0. -1.
          1    1    1    2  502    0  0.17719321615E+02 -0.81322925572E+02 -0.15481609661E+03  0.17577092010E+03  0.00000000000E+00 0. -1.
         22    1    1    2    0    0 -0.96346177461E+01 -0.96145151260E+01  0.20893643702E+02  0.24936100484E+02  0.00000000000E+00 0.  1.
         22    1    1    2    0    0  0.39108320789E+02 -0.33120350616E+02 -0.16887312650E+03  0.17647818912E+03  0.00000000000E+00 0. -1.
</event>
<event>
 6    1  0.2144783E-005  0.4587867E+02  0.7818608E-02  0.1527349E+00
          2   -1    0    0  502    0  0.00000000000E+00  0.00000000000E+00  0.10182346405E+03  0.10182346405E+03  0.00000000000E+00 0.  1.
          1   -1    0    0  501    0 -0.00000000000E+00 -0.00000000000E+00 -0.43765475955E+03  0.43765475955E+03  0.00000000000E+00 0. -1.
          2    1    1    2  501    0 -0.39046455075E+02  0.29629161446E+02  0.38137606928E+01  0.49163580347E+02  0.00000000000E+00 0.  1.
          1    1    1    2  502    0  0.23132953189E+02 -0.43727939463E+02 -0.35555605014E+03  0.35898101761E+03  0.00000000000E+00 0. -1.
         22    1    1    2    0    0 -0.69138298306E+01 -0.14870822291E+02 -0.51742742708E+02  0.54279405132E+02  0.00000000000E+00 0.  1.
         22    1    1    2    0    0  0.22827331717E+02  0.28969600308E+02  0.67653736653E+02  0.77054220510E+02  0.00000000000E+00 0.  1.
</event>
<event>
 6    1  0.2144783E-005  0.1655066E+03  0.7818608E-02  0.1234673E+00
          2   -1    0    0  502    0  0.00000000000E+00  0.00000000000E+00  0.94747570959E+03  0.94747570959E+03  0.00000000000E+00 0. -1.
          1   -1    0    0  501    0 -0.00000000000E+00 -0.00000000000E+00 -0.32814803152E+03  0.32814803152E+03  0.00000000000E+00 0.  1.
          2    1    1    2  501    0 -0.89567653780E+02  0.19335376530E+03  0.85893573365E+03  0.88497380622E+03  0.00000000000E+00 0. -1.
          1    1    1    2  502    0  0.35353693226E+02 -0.75490398495E+02 -0.18588487044E+03  0.20372007497E+03  0.00000000000E+00 0.  1.
         22    1    1    2    0    0  0.35220415306E+02 -0.67004010500E+02 -0.93006713656E+02  0.11991773790E+03  0.00000000000E+00 0. -1.
         22    1    1    2    0    0  0.18993545247E+02 -0.50859356301E+02  0.39283528510E+02  0.67012122012E+02  0.00000000000E+00 0.  1.
</event>
<event>
 6    1  0.2144783E-005  0.1754773E+03  0.7818608E-02  0.1175499E+00
          2   -1    0    0  502    0  0.00000000000E+00  0.00000000000E+00  0.20950773794E+03  0.20950773794E+03  0.00000000000E+00 0.  1.
          1   -1    0    0  501    0 -0.00000000000E+00 -0.00000000000E+00 -0.76145895935E+03  0.76145895935E+03  0.00000000000E+00 0.  1.
          2    1    1    2  501    0  0.31260033411E+02 -0.12550691725E+03  0.13800046780E+03  0.18913832260E+03  0.00000000000E+00 0.  1.
          1    1    1    2  502    0  0.51711916063E+01  0.12870749595E+03 -0.62195528912E+03  0.63515410918E+03  0.00000000000E+00 0.  1.
         22    1    1    2    0    0 -0.27956367859E+02 -0.33300210523E+02  0.23891683904E+02  0.49611239498E+02  0.00000000000E+00 0.  1.
         22    1    1    2    0    0 -0.84748571586E+01  0.30099631819E+02 -0.91888083984E+02  0.97063026007E+02  0.00000000000E+00 0.  1.
</event>
<event>
 6    1  0.2144783E-005  0.3632338E+02  0.7818608E-02  0.1587982E+00
          2   -1    0    0  502    0  0.00000000000E+00  0.00000000000E+00  0.44467810235E+02  0.44467810235E+02  0.00000000000E+00 0. -1.
          1   -1    0    0  501    0 -0.00000000000E+00 -0.00000000000E+00 -0.20760377915E+03  0.20760377915E+03  0.00000000000E+00 0. -1.
          2    1    1    2  501    0  0.77791747666E+01  0.18894642512E+02 -0.73964804749E+01  0.21730876630E+02  0.00000000000E+00 0. -1.
          1    1    1    2  502    0 -0.14201797729E+02 -0.14492853048E+02 -0.90671766475E+02  0.92914493401E+02  0.00000000000E+00 0. -1.
         22    1    1    2    0    0 -0.52722721471E+01 -0.19513148510E+02 -0.97614239208E+02  0.99685001452E+02  0.00000000000E+00 0. -1.
         22    1    1    2    0    0  0.11694895110E+02  0.15111359047E+02  0.32546517245E+02  0.37741217901E+02  0.00000000000E+00 0. -1.
</event>
<event>
 6    1  0.2144783E-005  0.5443351E+02  0.7818608E-02  0.1467514E+00
          2   -1    0    0  502    0  0.00000000000E+00  0.00000000000E+00  0.49766280201E+03  0.49766280201E+03  0.00000000000E+00 0.  1.
          1   -1    0    0  501    0 -0.00000000000E+00 -0.00000000000E+00 -0.32238984163E+02  0.32238984163E+02  0.00000000000E+00 0.  1.
          2    1    1    2  501    0  0.33858043561E+02  0.71429253514E+02  0.11358847811E+03  0.13838658797E+03  0.00000000000E+00 0.  1.
          1    1    1    2  502    0  0.73092013350E+01 -0.31415096065E+02  0.96957746542E+02  0.10218188342E+03  0.00000000000E+00 0.  1.
         22    1    1    2    0    0 -0.51847474334E+02 -0.14095023536E+02  0.25570388722E+03  0.26128778812E+03  0.00000000000E+00 0.  1.
         22    1    1    2    0    0  0.10680229438E+02 -0.25919133913E+02 -0.82629402450E+00  0.28045526657E+02  0.00000000000E+00 0. -1.
</event>
<event>
 6    1  0.2144783E-005  0.1979693E+03  0.7818608E-02  0.1262988E+00
          2   -1    0    0  502    0  0.00000000000E+00  0.00000000000E+00  0.21066051180E+03  0.21066051180E+03  0.00000000000E+00 0. -1.
          1   -1    0    0  501    0 -0.00000000000E+00 -0.00000000000E+00 -0.12045543064E+04  0.12045543064E+04  0.00000000000E+00 0.  1.
          2    1    1    2  501    0 -0.17893898075E+03  0.15972611790E+01  0.11390315124E+03  0.21212175263E+03  0.00000000000E+00 0. -1.
          1    1    1    2  502    0  0.17699814500E+03  0.48392926441E+00 -0.10549099947E+04  0.10696558673E+04  0.00000000000E+00 0.  1.
         22    1    1    2    0    0  0.16660130721E+02 -0.12436507272E+02 -0.89904320393E+02  0.92276830754E+02  0.00000000000E+00 0. -1.
         22    1    1    2    0    0 -0.14719294972E+02  0.10355316829E+02  0.37017369240E+02  0.41160367546E+02  0.00000000000E+00 0.  1.
</event>
<event>
 6    1  0.2144783E-005  0.7688253E+02  0.7818608E-02  0.1394715E+00
          2   -1    0    0  502    0  0.00000000000E+00  0.00000000000E+00  0.59841720501E+03  0.59841720501E+03  0.00000000000E+00 0. -1.
          1   -1    0    0  501    0 -0.00000000000E+00 -0.00000000000E+00 -0.76844938804E+02  0.76844938804E+02  0.00000000000E+00 0.  1.
          2    1    1    2  501    0 -0.72174502211E+02  0.57642677481E+00  0.42694798384E+03  0.43300585671E+03  0.00000000000E+00 0. -1.
          1    1    1    2  502    0  0.54641600601E+02 -0.22552618169E+02 -0.29091522021E+02  0.65883546930E+02  0.00000000000E+00 0.  1.
         22    1    1    2    0    0  0.12734594854E+02 -0.76065169429E+01 -0.22592348215E+02  0.27026712785E+02  0.00000000000E+00 0. -1.
         22    1    1    2    0    0  0.47983067568E+01  0.29582708337E+02  0.14630815260E+03  0.14934602739E+03  0.00000000000E+00 0. -1.
</event>
<event>
 6    1  0.2144783E-005  0.2231689E+03  0.7818608E-02  0.1220641E+00
          2   -1    0    0  502    0  0.00000000000E+00  0.00000000000E+00  0.83614518298E+03  0.83614518298E+03  0.00000000000E+00 0.  1.
          1   -1    0    0  501    0 -0.00000000000E+00 -0.00000000000E+00 -0.10943433310E+03  0.10943433310E+03  0.00000000000E+00 0. -1.
          2    1    1    2  501    0  0.11938501784E+03  0.57072468084E+02  0.30497373753E+03  0.33244402488E+03  0.00000000000E+00 0.  1.
          1    1    1    2  502    0 -0.19265556745E+03 -0.89328885250E+02  0.58713714597E+02  0.22032502738E+03  0.00000000000E+00 0. -1.
         22    1    1    2    0    0  0.58374199003E+02  0.57858856994E+02  0.35157512322E+03  0.36105437500E+03  0.00000000000E+00 0.  1.
         22    1    1    2    0    0  0.14896350604E+02 -0.25602439828E+02  0.11448274535E+02  0.31756088807E+02  0.00000000000E+00 0.  1.
</event>
<event>
 6    1  0.2144783E-005  0.5910322E+02  0.7818608E-02  0.1461099E+00
          2   -1    0    0  502    0  0.00000000000E+00  0.00000000000E+00  0.55300488450E+03  0.55300488450E+03  0.00000000000E+00 0.  1.
          1   -1    0    0  501    0 -0.00000000000E+00 -0.00000000000E+00 -0.21743445230E+03  0.21743445230E+03  0.00000000000E+00 0. -1.
          2    1    1    2  501    0  0.56413184292E+02  0.11360889552E+03  0.46716106540E+03  0.48407529324E+03  0.00000000000E+00 0.  1.
          1    1    1    2  502    0 -0.18935321642E+02 -0.10640372339E+03 -0.10532011155E+03  0.15090601265E+03  0.00000000000E+00 0. -1.
         22    1    1    2    0    0 -0.30289366779E+02  0.28771641130E+01 -0.77234472364E+02  0.83011369911E+02  0.00000000000E+00 0. -1.
         22    1    1    2    0    0 -0.71884958712E+01 -0.10082336235E+02  0.50963950712E+02  0.52446660990E+02  0.00000000000E+00 0. -1.
</event>
<event>
 6    1  0.2144783E-005  0.3943611E+02  0.7818608E-02  0.1539022E+00
          2   -1    0    0  502    0  0.00000000000E+00  0.00000000000E+00  0.10328080782E+03  0.10328080782E+03  0.00000000000E+00 0. -1.
          1   -1    0    0  501    0 -0.00000000000E+00 -0.00000000000E+00 -0.14593637047E+03  0.14593637047E+03  0.00000000000E+00 0. -1.
          2    1    1    2  501    0  0.55518127012E+02  0.33748122718E+02 -0.40973629999E+02  0.76811695523E+02  0.00000000000E+00 0. -1.
          1    1    1    2  502    0 -0.17384598858E+02 -0.32731916402E+02  0.65772421523E+01  0.37641237269E+02  0.00000000000E+00 0. -1.
         22    1    1    2    0    0 -0.10516829052E+02 -0.21595207450E+02 -0.64493493036E+02  0.68821270855E+02  0.00000000000E+00 0. -1.
         22    1    1    2    0    0 -0.27616699102E+02  0.20579001134E+02  0.56234318239E+02  0.65942974643E+02  0.00000000000E+00 0. -1.
</event>
<event>
 6    1  0.2144783E-005  0.5826915E+02  0.7818608E-02  0.1468889E+00
          2   -1    0    0  502    0  0.00000000000E+00  0.00000000000E+00  0.28974848018E+03  0.28974848018E+03  0.00000000000E+00 0.  1.
          1   -1    0    0  501    0 -0.00000000000E+00 -0.00000000000E+00 -0.18452671243E+03  0.18452671243E+03  0.00000000000E+00 0.  1.
          2    1    1    2  501    0  0.30866425453E+02  0.37311410438E+02  0.20021237106E+03  0.20598512347E+03  0.00000000000E+00 0.  1.
          1    1    1    2  502    0 -0.17700750128E+02 -0.39189575210E+02 -0.12986077166E+03  0.13679531928E+03  0.00000000000E+00 0.  1.
         22    1    1    2    0    0 -0.14132034149E+02  0.17388457628E+02  0.80359082986E+02  0.83424547144E+02  0.00000000000E+00 0.  1.
         22    1    1    2    0    0  0.96635882391E+00 -0.15510292856E+02 -0.45488914632E+02  0.48070202707E+02  0.00000000000E+00 0.  1.
</event>
<event>
 6    1  0.2144783E-005  0.1230207E+03  0.7818608E-02  0.1272654E+00
          2   -1    0    0  502    0  0.00000000000E+00  0.00000000000E+00  0.42096895676E+03  0.42096895676E+03  0.00000000000E+00 0.  1.
          1   -1    0    0  501    0 -0.00000000000E+00 -0.00000000000E+00 -0.75281603776E+02  0.75281603776E+02  0.00000000000E+00 0. -1.
          2    1    1    2  501    0  0.13230615555E+02 -0.53912975801E+02  0.63763073159E+02  0.84542224044E+02  0.00000000000E+00 0.  1.
          1    1    1    2  502    0 -0.40849385501E+02  0.10639260810E+03  0.20992614158E+02  0.11588248014E+03  0.00000000000E+00 0. -1.
         22    1    1    2    0    0 -0.24304444551E+02 -0.18286863484E+02  0.30640942536E+01  0.30569659380E+02  0.00000000000E+00 0. -1.
         22    1    1    2    0    0  0.51923214498E+02 -0.34192768820E+02  0.25786757141E+03  0.26525619697E+03  0.00000000000E+00 0.  1.
</event>
<event>
 6    1  0.2144783E-005  0.4585918E+02  0.7818608E-02  0.1547780E+00
          2   -1    0    0  502    0  0.00000000000E+00  0.00000000000E+00  0.72041803263E+02  0.72041803263E+02  0.00000000000E+00 0. -1.
          1   -1    0    0  501    0 -0.00000000000E+00 -0.00000000000E+00 -0.13622993095E+03  0.13622993095E+03  0.00000000000E+00 0. -1.
          2    1    1    2  501    0  0.29793209583E+02 -0.55915729265E+01  0.87428530812E+01  0.31548985801E+02  0.00000000000E+00 0. -1.
          1    1    1    2  502    0 -0.22835759982E+02  0.86334961370E+01 -0.47831891246E+02  0.53701946051E+02  0.00000000000E+00 0. -1.
         22    1    1    2    0    0 -0.22476497891E+02 -0.55766197862E+01 -0.70905016700E+02  0.74590971564E+02  0.00000000000E+00 0. -1.
         22    1    1    2    0    0  0.15519048290E+02  0.25346965757E+01  0.45805927177E+02  0.48429830798E+02  0.00000000000E+00 0.  1.
</event>
<event>
 6    1  0.2144783E-005  0.7468677E+02  0.7818608E-02  0.1466389E+00
          2   -1    0    0  502    0  0.00000000000E+00  0.00000000000E+00  0.48173309941E+03  0.48173309941E+03  0.00000000000E+00 0.  1.
          1   -1    0    0  501    0 -0.00000000000E+00 -0.00000000000E+00 -0.65181830202E+03  0.65181830202E+03  0.00000000000E+00 0.  1.
          2    1    1    2  501    0  0.57954576199E+02  0.36628106262E+01  0.39927817230E+03  0.40347888168E+03  0.00000000000E+00 0.  1.
          1    1    1    2  502    0 -0.63625627499E+02 -0.49651881117E+01 -0.60170086452E+03  0.60507586627E+03  0.00000000000E+00 0.  1.
         22    1    1    2    0    0 -0.97966985003E+01  0.50680008481E+01 -0.44849083361E+02  0.46185497859E+02  0.00000000000E+00 0. -1.
         22    1    1    2    0    0  0.15467749801E+02 -0.37656233625E+01  0.77186572975E+02  0.78811155624E+02  0.00000000000E+00 0.  1.
</event>
<event>
 6    1  0.2144783E-005  0.1392259E+03  0.7818608E-02  0.1295736E+00
          2   -1    0    0  502    0  0.00000000000E+00  0.00000000000E+00  0.77236490312E+02  0.77236490312E+02  0.00000000000E+00 0.  1.
          1   -1    0    0  501    0 -0.00000000000E+00 -0.00000000000E+00 -0.37890452833E+03  0.37890452833E+03  0.00000000000E+00 0. -1.
          2    1    1    2  501    0  0.52105995623E+02  0.10322147179E+03 -0.29446264593E+02  0.11931801841E+03  0.00000000000E+00 0.  1.
          1    1    1    2  502    0 -0.25866038220E+02 -0.35313218733E+02 -0.28452129987E+02  0.52207270100E+02  0.00000000000E+00 0. -1.
         22    1    1    2    0    0 -0.47032810314E+02 -0.49571392046E+02 -0.24739284907E+03  0.25665663819E+03  0.00000000000E+00 0. -1.
         22    1    1    2    0    0  0.20792852911E+02 -0.18336861008E+02  0.36232056268E+01  0.27959091953E+02  0.00000000000E+00 0.  1.
</event>
<event>
 6    1  0.2144783E-005  0.4558235E+03  0.7818608E-02  0.1140687E+00
          2   -1    0    0  502    0  0.00000000000E+00  0.00000000000E+00  0.25521470202E+03  0.25521470202E+03  0.00000000000E+00 0. -1.
          1   -1    0    0  501    0 -0.00000000000E+00 -0.00000000000E+00 -0.87231201621E+03  0.87231201621E+03  0.00000000000E+00 0. -1.
          2    1    1    2  501    0 -0.39667359720E+03 -0.14361312010E+03 -0.17593896536E+03  0.45708772737E+03  0.00000000000E+00 0. -1.
          1    1    1    2  502    0  0.24127516510E+03  0.18111293909E+03 -0.25335174591E+03  0.39395775047E+03  0.00000000000E+00 0. -1.
         22    1    1    2    0    0  0.99557468984E+01 -0.18460526372E+02  0.15288300468E+02  0.25954576887E+02  0.00000000000E+00 0. -1.
         22    1    1    2    0    0  0.14544268520E+03 -0.19039292622E+02 -0.20309490340E+03  0.25052666350E+03  0.00000000000E+00 0. -1.
</event>
<event>
 6    1  0.2144783E-005  0.3552845E+02  0.7818608E-02  0.1608572E+00
          2   -1    0    0  502    0  0.00000000000E+00  0.00000000000E+00  0.16785712839E+03  0.16785712839E+03  0.00000000000E+00 0.  1.
          1   -1    0    0  501    0 -0.00000000000E+00 -0.00000000000E+00 -0.17106351084E+03  0.17106351084E+03  0.00000000000E+00 0.  1.
          2    1    1    2  501    0 -0.10011248476E+02  0.53014242799E+02  0.44941058246E+00  0.53953100055E+02  0.00000000000E+00 0.  1.
          1    1    1    2  502    0  0.32940911705E+02 -0.23767834989E+02 -0.11072307619E+03  0.11793902341E+03  0.00000000000E+00 0.  1.
         22    1    1    2    0    0 -0.21369059649E+02 -0.17050312705E+02  0.13435000844E+03  0.13710315329E+03  0.00000000000E+00 0.  1.
         22    1    1    2    0    0 -0.15606035797E+01 -0.12196095105E+02 -0.27282725294E+02  0.29925362467E+02  0.00000000000E+00 0. -1.
</event>
<event>
 6    1  0.2144783E-005  0.1901145E+03  0.7818608E-02  0.1215227E+00
          2   -1    0    0  502    0  0.00000000000E+00  0.00000000000E+00  0.51246875745E+03  0.51246875745E+03  0.00000000000E+00 0.  1.
          1   -1    0    0  501    0 -0.00000000000E+00 -0.00000000000E+00 -0.10846299155E+03  0.10846299155E+03  0.00000000000E+00 0. -1.
          2    1    1    2  501    0 -0.46563563974E+01  0.19634352306E+03  0.29191771402E+03  0.35183577485E+03  0.00000000000E+00 0.  1.
          1    1    1    2  502    0 -0.62618694101E+01 -0.35545548933E+02  0.36001176169E+02  0.50978247744E+02  0.00000000000E+00 0. -1.
         22    1    1    2    0    0  0.49102561266E+02 -0.21746328043E+02  0.46229418978E+02  0.70859886292E+02  0.00000000000E+00 0. -1.
         22    1    1    2    0    0 -0.38184335458E+02 -0.13905164608E+03  0.29857456738E+02  0.14725784012E+03  0.00000000000E+00 0. -1.
</event>
<event>
 6    1  0.2144783E-005  0.4993372E+03  0.7818608E-02  0.1093983E+00
          2   -1    0    0  502    0  0.00000000000E+00  0.00000000000E+00  0.20857526121E+03  0.20857526121E+03  0.00000000000E+00 0.  1.
          1   -1    0    0  501    0 -0.00000000000E+00 -0.00000000000E+00 -0.11197764829E+04  0.11197764829E+04  0.00000000000E+00 0.  1.
          2    1    1    2  501    0 -0.84514715348E+02 -0.19061960324E+03 -0.22872595592E+03  0.30950627321E+03  0.00000000000E+00 0.  1.
          1    1    1    2  502    0  0.22360981271E+03  0.11804311307E+03 -0.76029909893E+03  0.80124293739E+03  0.00000000000E+00 0.  1.
         22    1    1    2    0    0 -0.51115804724E+02 -0.72287657989E+01  0.84071033348E+02  0.98656065174E+02  0.00000000000E+00 0.  1.
         22    1    1    2    0    0 -0.87979292640E+02  0.79805255967E+02 -0.62472001638E+01  0.11894646831E+03  0.00000000000E+00 0. -1.
</event>
<event>
 6    1  0.2144783E-005  0.1963332E+03  0.7818608E-02  0.1270756E+00
          2   -1    0    0  502    0  0.00000000000E+00  0.00000000000E+00  0.27606185240E+03  0.27606185240E+03  0.00000000000E+00 0. -1.
          1   -1    0    0  501    0 -0.00000000000E+00 -0.00000000000E+00 -0.11696389133E+03  0.11696389133E+03  0.00000000000E+00 0. -1.
          2    1    1    2  501    0 -0.79975676460E+02  0.95078310228E+02  0.79962918798E+02  0.14774999927E+03  0.00000000000E+00 0. -1.
          1    1    1    2  502    0  0.30406192325E+02 -0.10870979120E+02  0.81439175862E+02  0.87607386012E+02  0.00000000000E+00 0. -1.
         22    1    1    2    0    0  0.43330409848E+02 -0.98793749270E+02 -0.41342947928E+02  0.11552908143E+03  0.00000000000E+00 0. -1.
         22    1    1    2    0    0  0.62390742864E+01  0.14586418162E+02  0.39038814334E+02  0.42139277015E+02  0.00000000000E+00 0. -1.
</event>
<event>
 6    1  0.2144783E-005  0.2573369E+02  0.7818608E-02  0.1653152E+00
          2   -1    0    0  502    0  0.00000000000E+00  0.00000000000E+00  0.79550579286E+02  0.79550579286E+02  0.00000000000E+00 0. -1.
          1   -1    0    0  501    0 -0.00000000000E+00 -0.00000000000E+00 -0.18520925158E+03  0.18520925158E+03  0.00000000000E+00 0. -1.
          2    1    1    2  501    0 -0.24155973357E+02  0.15470109117E+02  0.32443607266E+02  0.43306154036E+02  0.00000000000E+00 0. -1.
          1    1    1    2  502    0  0.23159529825E+02 -0.16453239022E+02 -0.77181130038E+02  0.82243539138E+02  0.00000000000E+00 0. -1.
         22    1    1    2    0    0 -0.76910563586E+01 -0.19965805196E+02  0.34793312634E+02  0.40845566823E+02  0.00000000000E+00 0.  1.
         22    1    1    2    0    0  0.86874998899E+01  0.20948935101E+02 -0.95714462154E+02  0.98364570865E+02  0.00000000000E+00 0.  1.
</event>
<event>
 6    1  0.2144783E-005  0.7792464E+02  0.7818608E-02  0.1423517E+00
          2   -1    0    0  502    0  0.00000000000E+00  0.00000000000E+00  0.39381880295E+02  0.39381880295E+02  0.00000000000E+00 0.  1.
          1   -1    0    0  501    0 -0.00000000000E+00 -0.00000000000E+00 -0.39048458104E+03  0.39048458104E+03  0.00000000000E+00 0.  1.
          2    1    1    2  501    0 -0.15345881457E+02 -0.19965065743E+02 -0.30871341481E+02  0.39838921329E+02  0.00000000000E+00 0.  1.
          1    1    1    2  502    0  0.15026581904E+02  0.78898656219E+02 -0.10854078912E+03  0.13502554951E+03  0.00000000000E+00 0.  1.
         22    1    1    2    0    0 -0.75571094377E+00  0.18335078817E+02  0.95265543857E+01  0.20676108259E+02  0.00000000000E+00 0.  1.
         22    1    1    2    0    0  0.10750104973E+01 -0.77268669294E+02 -0.22121712453E+03  0.23432588224E+03  0.00000000000E+00 0.  1.
</event>
<event>
 6    1  0.2144783E-005  0.1139817E+03  0.7818608E-02  0.1346981E+00
          2   -1    0    0  502    0  0.00000000000E+00  0.00000000000E+00  0.27602995447E+03  0.27602995447E+03  0.00000000000E+00 0. -1.
          1   -1    0    0  501    0 -0.00000000000E+00 -0.00000000000E+00 -0.42881663139E+03  0.42881663139E+03  0.00000000000E+00 0. -1.
          2    1    1    2  501    0 -0.16264619412E+01 -0.12837876516E+03  0.19881710148E+03  0.23666852888E+03  0.00000000000E+00 0. -1.
          1    1    1    2  502    0 -0.13860811528E+02  0.83783247024E+02 -0.32004499793E+03  0.33112015233E+03  0.00000000000E+00 0. -1.
         22    1    1    2    0    0  0.10662028473E+02  0.17221518814E+02  0.48366901304E+02  0.52436787690E+02  0.00000000000E+00 0. -1.
         22    1    1    2    0    0  0.48252449961E+01  0.27373999321E+02 -0.79925681779E+02  0.84621116962E+02  0.00000000000E+00 0. -1.
</event>
<event>
 6    1  0.2144783E-005  0.6437220E+02  0.7818608E-02  0.1442813E+00
          2   -1    0    0  502    0  0.00000000000E+00  0.00000000000E+00  0.17343811550E+03  0.17343811550E+03  0.00000000000E+00 0. -1.
          1   -1    0    0  501    0 -0.00000000000E+00 -0.00000000000E+00 -0.13811083666E+03  0.13811083666E+03  0.00000000000E+00 0. -1.
          2    1    1    2  501    0 -0.59978075034E+02 -0.21913979954E+02 -0.36462199925E+02  0.73532877175E+02  0.00000000000E+00 0. -1.
          1    1    1    2  502    0  0.48718486585E+02 -0.10598105983E+01 -0.43416846512E+02  0.65265892277E+02  0.00000000000E+00 0. -1.
         22    1    1    2    0    0 -0.44565957936E+01  0.23916245613E+02  0.14069940009E+03  0.14278714661E+03  0.00000000000E+00 0. -1.
         22    1    1    2    0    0  0.15716184243E+02 -0.94245506037E+00 -0.25493074820E+02  0.29963036103E+02  0.00000000000E+00 0. -1.
</event>
<event>
 6    1  0.2144783E-005  0.5660150E+02  0.7818608E-02  0.1417242E+00
          2   -1    0    0  502    0  0.00000000000E+00  0.00000000000E+00  0.65467616619E+03  0.65467616619E+03  0.00000000000E+00 0.  1.
          1   -1    0    0  501    0 -0.00000000000E+00 -0.00000000000E+00 -0.32589170959E+02  0.32589170959E+02  0.00000000000E+00 0. -1.
          2    1    1    2  501    0  0.41565909277E+02 -0.58454874525E+02  0.33308806521E+03  0.34072328414E+03  0.00000000000E+00 0.  1.
          1    1    1    2  502    0 -0.30531080516E+02  0.64191477406E+01  0.38181253735E+01  0.31431360399E+02  0.00000000000E+00 0. -1.
         22    1    1    2    0    0 -0.20949034269E+02 -0.16135447853E+01 -0.35166544449E+01  0.21303342978E+02  0.00000000000E+00 0. -1.
         22    1    1    2    0    0  0.99142055077E+01  0.53649271569E+02  0.28869745909E+03  0.29380734963E+03  0.00000000000E+00 0.  1.
</event>
<event>
 6    1  0.2144783E-005  0.2144534E+03  0.7818608E-02  0.1216844E+00
          2   -1    0    0  502    0  0.00000000000E+00  0.00000000000E+00  0.61338407797E+03  0.61338407797E+03  0.00000000000E+00 0.  1.
          1   -1    0    0  501    0 -0.00000000000E+00 -0.00000000000E+00 -0.23740014061E+03  0.23740014061E+03  0.00000000000E+00 0.  1.
          2    1    1    2  501    0 -0.22610624070E+03  0.80773568552E+01  0.46002791429E+03  0.51265481340E+03  0.00000000000E+00 0.  1.
          1    1    1    2  502    0  0.16903027003E+03 -0.23286878928E+02 -0.99230690722E+02  0.19738348689E+03  0.00000000000E+00 0.  1.
         22    1    1    2    0    0  0.23012608807E+02  0.27888194662E+02  0.67776720562E+02  0.76818066988E+02  0.00000000000E+00 0. -1.
         22    1    1    2    0    0  0.34063361871E+02 -0.12678672590E+02 -0.52590006768E+02  0.63927851305E+02  0.00000000000E+00 0.  1.
</event>
<event>
 6    1  0.2144783E-005  0.5300805E+02  0.7818608E-02  0.1433271E+00
          2   -1    0    0  502    0  0.00000000000E+00  0.00000000000E+00  0.29402794988E+03  0.29402794988E+03  0.00000000000E+00 0.  1.
          1   -1    0    0  501    0 -0.00000000000E+00 -0.00000000000E+00 -0.31806618604E+02  0.31806618604E+02  0.00000000000E+00 0. -1.
          2    1    1    2  501    0  0.35161314851E+02  0.36107805462E+01  0.20673724622E+02  0.40948244016E+02  0.00000000000E+00 0.  1.
          1    1    1    2  502    0 -0.47541523954E+01  0.21280372184E+02  0.40240837098E+02  0.45768779486E+02  0.00000000000E+00 0. -1.
         22    1    1    2    0    0 -0.15874496122E+02  0.23229077423E+02 -0.33904354254E+01  0.28338749398E+02  0.00000000000E+00 0. -1.
         22    1    1    2    0    0 -0.14532666333E+02 -0.48120230153E+02  0.20469720498E+03  0.21077879558E+03  0.00000000000E+00 0.  1.
</event>
<event>
 6    1  0.2144783E-005  0.9550188E+02  0.7818608E-02  0.1371943E+00
          2   -1    0    0  502    0  0.00000000000E+00  0.00000000000E+00  0.13341636109E+03  0.13341636109E+03  0.00000000000E+00 0. -1.
          1   -1    0    0  501    0 -0.00000000000E+00 -0.00000000000E+00 -0.64565153149E+03  0.64565153149E+03  0.00000000000E+00 0. -1.
          2    1    1    2  501    0 -0.15797123803E+03  0.64852825124E+02  0.71518440130E+01  0.17091503692E+03  0.00000000000E+00 0. -1.
          1    1    1    2  502    0  0.12809538734E+03 -0.93496916310E+02 -0.40048419660E+03  0.43074086566E+03  0.00000000000E+00 0. -1.
         22    1    1    2    0    0 -0.84760276141E+01 -0.94095480708E+01  0.22621820369E+02  0.25925458449E+02  0.00000000000E+00 0. -1.
         22    1    1    2    0    0  0.38351878306E+02  0.38053639257E+02 -0.14152463818E+03  0.15148653155E+03  0.00000000000E+00 0. -1.
</event>
<event>
 6    1  0.2144783E-005  0.8460253E+02  0.7818608E-02  0.1432643E+00
          2   -1    0    0  502    0  0.00000000000E+00  0.00000000000E+00  0.18409770804E+03  0.18409770804E+03  0.00000000000E+00 0. -1.
          1   -1    0    0  501    0 -0.00000000000E+00 -0.00000000000E+00 -0.20203824192E+03  0.20203824192E+03  0.00000000000E+00 0. -1.
          2    1    1    2  501    0  0.19841536954E+02  0.15754043054E+02  0.10034441181E+03  0.10349336908E+03  0.00000000000E+00 0. -1.
          1    1    1    2  502    0  0.19026445248E+01 -0.28533372954E+02 -0.15253457346E+03  0.15519204080E+03  0.00000000000E+00 0. -1.
         22    1    1    2    0    0  0.95249941919E+01 -0.80663061891E+01  0.72653731785E+02  0.73718081582E+02  0.00000000000E+00 0.  1.
         22    1    1    2    0    0 -0.31269175671E+02  0.20845636089E+02 -0.38404104014E+02  0.53732458498E+02  0.00000000000E+00 0.  1.
</event>
<event>
 6    1  0.2144783E-005  0.9735622E+02  0.7818608E-02  0.1340361E+00
          2   -1    0    0  502    0  0.00000000000E+00  0.00000000000E+00  0.84100856941E+03  0.84100856941E+03  0.00000000000E+00 0.  1.
          1   -1    0    0  501    0 -0.00000000000E+00 -0.00000000000E+00 -0.38308794880E+03  0.38308794880E+03  0.00000000000E+00 0.  1.
          2    1    1    2  501    0  0.11252915441E+00  0.71222613823E+02  0.69333184494E+03  0.69698043056E+03  0.00000000000E+00 0.  1.
          1    1    1    2  502    0 -0.18322088388E+02 -0.70056606833E+02 -0.35141409146E+03  0.35879728366E+03  0.00000000000E+00 0.  1.
         22    1    1    2    0    0  0.29140827947E+02 -0.21864966466E+02 -0.11873462428E+02  0.38317668536E+02  0.00000000000E+00 0.  1.
         22    1    1    2    0    0 -0.10931268713E+02  0.20698959476E+02  0.12787632956E+03  0.13000113546E+03  0.00000000000E+00 0. -1.
</event>
<event>
 6    1  0.2144783E-005  0.1948229E+03  0.7818608E-02  0.1232888E+00
          2   -1    0    0  502    0  0.00000000000E+00  0.00000000000E+00  0.65968932137E+03  0.65968932137E+03  0.00000000000E+00 0.  1.
          1   -1    0    0  501    0 -0.00000000000E+00 -0.00000000000E+00 -0.95086306916E+02  0.95086306916E+02  0.00000000000E+00 0.  1.
          2    1    1    2  501    0  0.84248305326E+01  0.18691018956E+02  0.61707437789E+02  0.65024148111E+02  0.00000000000E+00 0.  1.
          1    1    1    2  502    0 -0.78369672396E+02  0.16903547639E+03  0.38037255043E+03  0.42355409920E+03  0.00000000000E+00 0.  1.
         22    1    1    2    0    0  0.56438598092E+02 -0.19006089426E+03  0.67416953521E+02  0.20941228355E+03  0.00000000000E+00 0.  1.
         22    1    1    2    0    0  0.13506243772E+02  0.23343989067E+01  0.55106072716E+02  0.56785097423E+02  0.00000000000E+00 0.  1.
</event>
<event>
 6    1  0.2144783E-005  0.1203518E+03  0.7818608E-02  0.1330215E+00
          2   -1    0    0  502    0  0.00000000000E+00  0.00000000000E+00  0.19135235245E+03  0.19135235245E+03  0.00000000000E+00 0.  1.
          1   -1    0    0  501    0 -0.00000000000E+00 -0.00000000000E+00 -0.10990608211E+03  0.10990608211E+03  0.00000000000E+00 0. -1.
          2    1    1    2  501    0  0.70651462955E+02  0.19838218828E+01  0.86177205755E+02  0.11145436536E+03  0.00000000000E+00 0.  1.
          1    1    1    2  502    0 -0.11161084662E+02 -0.40188103358E+02  0.88981932055E+01  0.42647758495E+02  0.00000000000E+00 0. -1.
         22    1    1    2    0    0  0.36800680415E+01  0.22723898341E+02  0.50697598999E+02  0.55679125361E+02  0.00000000000E+00 0.  1.
         22    1    1    2    0    0 -0.63170446335E+02  0.15480383134E+02 -0.64326727617E+02  0.91477185341E+02  0.00000000000E+00 0. -1.
</event>
<event>
 6    1  0.2144783E-005  0.3418729E+03  0.7818608E-02  0.1166518E+00
          2   -1    0    0  502    0  0.00000000000E+00  0.00000000000E+00  0.14253101952E+03  0.14253101952E+03  0.00000000000E+00 0.  1.
          1   -1    0    0  501    0 -0.00000000000E+00 -0.00000000000E+00 -0.88849760456E+03  0.88849760456E+03  0.00000000000E+00 0. -1.
          2    1    1    2  501    0 -0.30521278159E+03  0.47608597474E+02 -0.37056659459E+03  0.48243240110E+03  0.00000000000E+00 0.  1.
          1    1    1    2  502    0  0.15585309642E+03  0.55586503425E+02 -0.24154653667E+03  0.29278793760E+03  0.00000000000E+00 0. -1.
         22    1    1    2    0    0  0.27054163577E+02  0.56705615274E+00  0.19927684384E+02  0.33605980487E+02  0.00000000000E+00 0.  1.
         22    1    1    2    0    0  0.12230552160E+03 -0.10376215705E+03 -0.15378113817E+03  0.22220230491E+03  0.00000000000E+00 0. -1.
</event>
<event>
 6    1  0.2144783E-005  0.6208794E+02  0.7818608E-02  0.1508554E+00
          2   -1    0    0  502    0  0.00000000000E+00  0.00000000000E+00  0.98532816775E+02  0.98532816775E+02  0.00000000000E+00 0.  1.
          1   -1    0    0  501    0 -0.00000000000E+00 -0.00000000000E+00 -0.27020683687E+03  0.27020683687E+03  0.00000000000E+00 0.  1.
          2    1    1    2  501    0  0.36208370655E+02 -0.15218970481E+02  0.70789469541E+02  0.80955618495E+02  0.00000000000E+00 0.  1.
          1    1    1    2  502    0 -0.18522252736E+02 -0.86646202814E+01 -0.57792897297E+02  0.61303902560E+02  0.00000000000E+00 0.  1.
         22    1    1    2    0    0  0.23860325672E+01 -0.10375499022E+02  0.17480010803E+02  0.20466922315E+02  0.00000000000E+00 0. -1.
         22    1    1    2    0    0 -0.20072150486E+02  0.34259089784E+02 -0.20215060314E+03  0.20601321028E+03  0.00000000000E+00 0.  1.
</event>
<event>
 6    1  0.2144783E-005  0.2279282E+03  0.7818608E-02  0.1218317E+00
          2   -1    0    0  502    0  0.00000000000E+00  0.00000000000E+00  0.46079734372E+03  0.46079734372E+03  0.00000000000E+00 0.  1.
          1   -1    0    0  501    0 -0.00000000000E+00 -0.00000000000E+00 -0.30473176161E+03  0.30473176161E+03  0.00000000000E+00 0. -1.
          2    1    1    2  501    0 -0.17404464018E+03 -0.16874683537E+03  0.17860835884E+03  0.30111123704E+03  0.00000000000E+00 0.  1.
          1    1    1    2  502    0  0.13892011110E+03  0.15105420676E+03 -0.17003053016E+03  0.26650807086E+03  0.00000000000E+00 0. -1.
         22    1    1    2    0    0  0.59339919049E+01  0.18209517449E+02 -0.20120240600E+02  0.27778100502E+02  0.00000000000E+00 0. -1.
         22    1    1    2    0    0  0.29190537182E+02 -0.51688883237E+00  0.16760799404E+03  0.17013169693E+03  0.00000000000E+00 0. -1.
</event>
<event>
 6    1  0.2144783E-005  0.1661877E+03  0.7818608E-02  0.1288217E+00
          2   -1    0    0  502    0  0.00000000000E+00  0.00000000000E+00  0.10861312786E+03  0.10861312786E+03  0.00000000000E+00 0.  1.
          1   -1    0    0  501    0 -0.00000000000E+00 -0.00000000000E+00 -0.33131383217E+03  0.33131383217E+03  0.00000000000E+00 0.  1.
          2    1    1    2  501    0  0.11377431025E+03 -0.43123771984E+02 -0.27829263376E+01  0.12170455234E+03  0.00000000000E+00 0.  1.
          1    1    1    2  502    0  0.25586626112E+02  0.31584981288E+02 -0.46633436659E+02  0.61862459483E+02  0.00000000000E+00 0.  1.
         22    1    1    2    0    0 -0.18754894205E+02  0.31880851910E+00  0.20529902500E+02  0.27808714320E+02  0.00000000000E+00 0. -1.
         22    1    1    2    0    0 -0.12060604215E+03  0.11219982178E+02 -0.19381424381E+03  0.22855123388E+03  0.00000000000E+00 0.  1.
</event>
<event>
 6    1  0.2144783E-005  0.8532391E+02  0.7818608E-02  0.1348569E+00
          2   -1    0    0  502    0  0.00000000000E+00  0.00000000000E+00  0.11351296317E+03  0.11351296317E+03  0.00000000000E+00 0. -1.
          1   -1    0    0  501    0 -0.00000000000E+00 -0.00000000000E+00 -0.45777977033E+03  0.45777977033E+03  0.00000000000E+00 0. -1.
          2    1    1    2  501    0  0.56385826858E+01 -0.13324050977E+03 -0.77446534460E+02  0.15421670713E+03  0.00000000000E+00 0. -1.
          1    1    1    2  502    0 -0.74114427484E+02  0.69469667037E+02 -0.23318639425E+03  0.25435187726E+03  0.00000000000E+00 0. -1.
         22    1    1    2    0    0  0.12375572875E+02  0.33546946638E+02 -0.77507162474E+02  0.85357557765E+02  0.00000000000E+00 0.  1.
         22    1    1    2    0    0  0.56100271924E+02  0.30223896091E+02  0.43873284028E+02  0.77366591344E+02  0.00000000000E+00 0.  1.
</event>
<event>
 6    1  0.2144783E-005  0.8696098E+02  0.7818608E-02  0.1371968E+00
          2   -1    0    0  502    0  0.00000000000E+00  0.00000000000E+00  0.12385398944E+03  0.12385398944E+03  0.00000000000E+00 0.  1.
          1   -1    0    0  501    0 -0.00000000000E+00 -0.00000000000E+00 -0.34488134876E+03  0.34488134876E+03  0.00000000000E+00 0. -1.
          2    1    1    2  501    0 -0.95705743114E+02  0.55779597711E+02  0.43423388297E+02  0.11898127347E+03  0.00000000000E+00 0.  1.
          1    1    1    2  502    0  0.39053386236E+02 -0.13471147739E+02 -0.18052291224E+03  0.18518952628E+03  0.00000000000E+00 0. -1.
         22    1    1    2    0    0  0.20064169584E+02 -0.22247851946E+02  0.30508163485E+02  0.42758459473E+02  0.00000000000E+00 0.  1.
         22    1    1    2    0    0  0.36588187294E+02 -0.20060598026E+02 -0.11443599886E+03  0.12180607898E+03  0.00000000000E+00 0. -1.
</event>
<event>
 6    1  0.2144783E-005  0.3068307E+02  0.7818608E-02  0.1606599E+00
          2   -1    0    0  502    0  0.00000000000E+00  0.00000000000E+00  0.15677827994E+03  0.15677827994E+03  0.00000000000E+00 0.  1.
          1   -1    0    0  501    0 -0.00000000000E+00 -0.00000000000E+00 -0.18340179393E+03  0.18340179393E+03  0.00000000000E+00 0.  1.
          2    1    1    2  501    0  0.33858903193E+02  0.67001545215E+02  0.66792298126E+02  0.10048305069E+03  0.00000000000E+00 0.  1.
          1    1    1    2  502    0 -0.40099794421E+02 -0.52872636452E+02 -0.89254426901E+02  0.11121988095E+03  0.00000000000E+00 0.  1.
         22    1    1    2    0    0 -0.37446494344E+01 -0.11841352620E+02 -0.65307976188E+02  0.66478355764E+02  0.00000000000E+00 0. -1.
         22    1    1    2    0    0  0.99855406617E+01 -0.22875561433E+01  0.61146590973E+02  0.61998786465E+02  0.00000000000E+00 0.  1.
</event>
<event>
 6    1  0.2144783E-005  0.7358433E+02  0.7818608E-02  0.1377928E+00
          2   -1    0    0  502    0  0.00000000000E+00  0.00000000000E+00  0.14920406035E+03  0.14920406035E+03  0.00000000000E+00 0. -1.
          1   -1    0    0  501    0 -0.00000000000E+00 -0.00000000000E+00 -0.10621174552E+03  0.10621174552E+03  0.00000000000E+00 0. -1.
          2    1    1    2  501    0  0.46059198244E+02 -0.33772848823E+02 -0.12514287680E+02  0.58469329196E+02  0.00000000000E+00 0. -1.
          1    1    1    2  502    0 -0.36939321017E+02  0.17819333207E+02 -0.26634089848E+02  0.48902114629E+02  0.00000000000E+00 0. -1.
         22    1    1    2    0    0  0.32514701831E+02  0.30868887374E+02  0.92348107467E+02  0.10265606166E+03  0.00000000000E+00 0.  1.
         22    1    1    2    0    0 -0.41634579059E+02 -0.14915371759E+02 -0.10207415110E+02  0.45388300379E+02  0.00000000000E+00 0. -1.
</event>
<event>
 6    1  0.2144783E-005  0.9684469E+02  0.7818608E-02  0.1404592E+00
          2   -1    0    0  502    0  0.00000000000E+00  0.00000000000E+00  0.65677049170E+02  0.65677049170E+02  0.00000000000E+00 0. -1.
          1   -1    0    0  501    0 -0.00000000000E+00 -0.00000000000E+00 -0.34593641750E+03  0.34593641750E+03  0.00000000000E+00 0. -1.
          2    1    1    2  501    0  0.63358840236E+02 -0.67978250103E+00 -0.12262628143E+03  0.13802901738E+03  0.00000000000E+00 0. -1.
          1    1    1    2  502    0 -0.45070242910E+02 -0.26321772079E+02 -0.13331409394E+03  0.14316707067E+03  0.00000000000E+00 0. -1.
         22    1    1    2    0    0 -0.24781348541E+02  0.38058560154E+02 -0.69738425312E+02  0.83222696432E+02  0.00000000000E+00 0. -1.
         22    1    1    2    0    0  0.64927512153E+01 -0.11057005574E+02  0.45419432359E+02  0.47194682184E+02  0.00000000000E+00 0. -1.
</event>
<event>
 6    1  0.2144783E-005  0.7293375E+02  0.7818608E-02  0.1457274E+00
          2   -1    0    0  502    0  0.00000000000E+00  0.00000000000E+00  0.96028802783E+02  0.96028802783E+02  0.00000000000E+00 0. -1.
          1   -1    0    0  501    0 -0.00000000000E+00 -0.00000000000E+00 -0.53433539009E+03  0.53433539009E+03  0.00000000000E+00 0. -1.
          2    1    1    2  501    0  0.65610412332E+02 -0.27869392679E+02  0.74416269867E+00  0.71288028678E+02  0.00000000000E+00 0. -1.
          1    1    1    2  502    0 -0.55008494668E+02  0.14115601279E+02 -0.43158642765E+03  0.43530682193E+03  0.00000000000E+00 0. -1.
         22    1    1    2    0    0  0.39003026733E+01  0.12942071630E+02  0.56542201130E+02  0.58135446052E+02  0.00000000000E+00 0. -1.
         22    1    1    2    0    0 -0.14502220337E+02  0.81171977001E+00 -0.64006523484E+02  0.65633896213E+02  0.00000000000E+00 0.  1.
</event>
<event>
 6    1  0.2144783E-005  0.8329721E+02  0.7818608E-02  0.1406321E+00
          2   -1    0    0  502    0  0.00000000000E+00  0.00000000000E+00  0.63891038368E+02  0.63891038368E+02  0.00000000000E+00 0. -1.
          1   -1    0    0  501    0 -0.00000000000E+00 -0.00000000000E+00 -0.28144993913E+03  0.28144993913E+03  0.00000000000E+00 0. -1.
          2    1    1    2  501    0  0.44375349817E+02  0.53363164448E+02 -0.21784867589E+02  0.72741868598E+02  0.00000000000E+00 0. -1.
          1    1    1    2  502    0 -0.27233541547E+01 -0.39430411160E+02 -0.10823554370E+03  0.11522632903E+03  0.00000000000E+00 0. -1.
         22    1    1    2    0    0 -0.16313349883E+00 -0.19610658079E+02  0.28167518248E+02  0.34322202830E+02  0.00000000000E+00 0. -1.
         22    1    1    2    0    0 -0.41488862164E+02  0.56779047921E+01 -0.11570600772E+03  0.12305057704E+03  0.00000000000E+00 0. -1.
</event>
<event>
 6    1  0.2144783E-005  0.1522044E+03  0.7818608E-02  0.1333400E+00
          2   -1    0    0  502    0  0.00000000000E+00  0.00000000000E+00  0.21027145115E+03  0.21027145115E+03  0.00000000000E+00 0.  1.
          1   -1    0    0  501    0 -0.00000000000E+00 -0.00000000000E+00 -0.31937140054E+03  0.31937140054E+03  0.00000000000E+00 0. -1.
          2    1    1    2  501    0  0.10887825570E+03  0.95086921269E+02  0.86263695914E+02  0.16833722819E+03  0.00000000000E+00 0.  1.
          1    1    1    2  502    0 -0.58197270712E+02 -0.75941998469E+02 -0.20685607791E+03  0.22791126874E+03  0.00000000000E+00 0. -1.
         22    1    1    2    0    0 -0.21711241233E+01 -0.10541204562E+02  0.61947375172E+02  0.62875337489E+02  0.00000000000E+00 0.  1.
         22    1    1    2    0    0 -0.48509860863E+02 -0.86037182390E+01 -0.50454942563E+02  0.70519017276E+02  0.00000000000E+00 0. -1.
</event>
<event>
 6    1  0.2144783E-005  0.4153513E+02  0.7818608E-02  0.1551754E+00
          2   -1    0    0  502    0  0.00000000000E+00  0.00000000000E+00  0.35628196909E+02  0.35628196909E+02  0.00000000000E+00 0. -1.
          1   -1    0    0  501    0 -0.00000000000E+00 -0.00000000000E+00 -0.51714810427E+03  0.51714810427E+03  0.00000000000E+00 0. -1.
          2    1    1    2  501    0 -0.18013996303E+02  0.18061764773E+02 -0.58431348686E+02  0.63756991137E+02  0.00000000000E+00 0. -1.
          1    1    1    2  502    0  0.19490475591E+00  0.37866610401E+02 -0.31261356712E+03  0.31489865118E+03  0.00000000000E+00 0. -1.
         22    1    1    2    0    0  0.11299812719E+02 -0.74953581740E+02 -0.12712713719E+03  0.14801025030E+03  0.00000000000E+00 0. -1.
         22    1    1    2    0    0  0.65192788281E+01  0.19025206567E+02  0.16652145629E+02  0.26110408564E+02  0.00000000000E+00 0. -1.
</event>
<event>
 6    1  0.2144783E-005  0.1314487E+03  0.7818608E-02  0.1293168E+00
          2   -1    0    0  502    0  0.00000000000E+00  0.00000000000E+00  0.12968284199E+04  0.12968284199E+04  0.00000000000E+00 0.  1.
          1   -1    0    0  501    0 -0.00000000000E+00 -0.00000000000E+00 -0.98331782669E+02  0.98331782669E+02  0.00000000000E+00 0.  1.
          2    1    1    2  501    0 -0.98085691926E+01 -0.41700554511E+02  0.39527712277E+03  0.39759168510E+03  0.00000000000E+00 0.  1.
          1    1    1    2  502    0 -0.12664533557E+03 -0.46713657347E+02  0.78054297354E+03  0.79212911848E+03  0.00000000000E+00 0.  1.
         22    1    1    2    0    0  0.10236241248E+03  0.82787561912E+02 -0.36762558453E+02  0.13668697670E+03  0.00000000000E+00 0.  1.
         22    1    1    2    0    0  0.34091492287E+02  0.56266499466E+01  0.59439099400E+02  0.68752422310E+02  0.00000000000E+00 0. -1.
</event>
<event>
 6    1  0.2144783E-005  0.3026427E+03  0.7818608E-02  0.1155263E+00
          2   -1    0    0  502    0  0.00000000000E+00  0.00000000000E+00  0.54927689815E+03  0.54927689815E+03  0.00000000000E+00 0. -1.
          1   -1    0    0  501    0 -0.00000000000E+00 -0.00000000000E+00 -0.22947039419E+03  0.22947039419E+03  0.00000000000E+00 0. -1.
          2    1    1    2  501    0 -0.38152189410E+02 -0.26770929102E+03  0.60388242050E+02  0.27707506894E+03  0.00000000000E+00 0. -1.
          1    1    1    2  502    0  0.38720166898E+02  0.25792124566E+03  0.59264521488E+02  0.26746009758E+03  0.00000000000E+00 0. -1.
         22    1    1    2    0    0 -0.24310557893E+02 -0.44455268928E+02  0.14381752662E+03  0.15248198295E+03  0.00000000000E+00 0.  1.
         22    1    1    2    0    0  0.23742580405E+02  0.54243314282E+02  0.56336213798E+02  0.81730142871E+02  0.00000000000E+00 0.  1.
</event>
<event>
 6    1  0.2144783E-005  0.1661616E+03  0.7818608E-02  0.1287211E+00
          2   -1    0    0  502    0  0.00000000000E+00  0.00000000000E+00  0.31334610105E+03  0.31334610105E+03  0.00000000000E+00 0.  1.
          1   -1    0    0  501    0 -0.00000000000E+00 -0.00000000000E+00 -0.16669946664E+03  0.16669946664E+03  0.00000000000E+00 0. -1.
          2    1    1    2  501    0 -0.47972499716E+02 -0.11270911911E+03  0.21592932841E+03  0.24825426709E+03  0.00000000000E+00 0.  1.
          1    1    1    2  502    0 -0.21484603787E+02  0.67425702608E+02 -0.14144005621E+02  0.72165549032E+02  0.00000000000E+00 0. -1.
         22    1    1    2    0    0  0.62523806540E+02  0.63107102633E+02 -0.85789875614E+02  0.12349751230E+03  0.00000000000E+00 0. -1.
         22    1    1    2    0    0  0.69332969631E+01 -0.17823686131E+02  0.30651187232E+02  0.36128239270E+02  0.00000000000E+00 0.  1.
</event>
<event>
 6    1  0.2144783E-005  0.1928895E+02  0.7818608E-02  0.1784197E+00
          2   -1    0    0  502    0  0.00000000000E+00  0.00000000000E+00  0.99151686263E+02  0.99151686263E+02  0.00000000000E+00 0.  1.
          1   -1    0    0  501    0 -0.00000000000E+00 -0.00000000000E+00 -0.13124840100E+03  0.13124840100E+03  0.00000000000E+00 0. -1.
          2    1    1    2  501    0  0.32611999868E+02  0.22497425958E+02  0.42917626208E+01  0.39850921402E+02  0.00000000000E+00 0.  1.
          1    1    1    2  502    0 -0.13192342181E+02 -0.16306367863E+02 -0.58161601642E+02  0.61828047281E+02  0.00000000000E+00 0. -1.
         22    1    1    2    0    0 -0.92423379811E+01 -0.10477673434E+02  0.74016365213E+02  0.75323467600E+02  0.00000000000E+00 0.  1.
         22    1    1    2    0    0 -0.10177319707E+02  0.42866153384E+01 -0.52243240931E+02  0.53397650982E+02  0.00000000000E+00 0. -1.
</event>
<event>
 6    1  0.2144783E-005  0.3215305E+02  0.7818608E-02  0.1585429E+00
          2   -1    0    0  502    0  0.00000000000E+00  0.00000000000E+00  0.15194470721E+03  0.15194470721E+03  0.00000000000E+00 0. -1.
          1   -1    0    0  501    0 -0.00000000000E+00 -0.00000000000E+00 -0.27417360012E+03  0.27417360012E+03  0.00000000000E+00 0.  1.
          2    1    1    2  501    0  0.32107589904E+02 -0.93222767974E+01  0.50013335033E+02  0.60159254112E+02  0.00000000000E+00 0. -1.
          1    1    1    2  502    0 -0.32398669045E+02  0.25585528887E+02 -0.22674879674E+03  0.23047626747E+03  0.00000000000E+00 0.  1.
         22    1    1    2    0    0  0.17260237817E+02 -0.10639762764E+02  0.91860445728E+02  0.94071578335E+02  0.00000000000E+00 0. -1.
         22    1    1    2    0    0 -0.16969158676E+02 -0.56234893256E+01 -0.37353876931E+02  0.41411207422E+02  0.00000000000E+00 0. -1.
</event>
<event>
 6    1  0.2144783E-005  0.4155571E+02  0.7818608E-02  0.1546480E+00
          2   -1    0    0  502    0  0.00000000000E+00  0.00000000000E+00  0.22520944482E+03  0.22520944482E+03  0.00000000000E+00 0. -1.
          1   -1    0    0  501    0 -0.00000000000E+00 -0.00000000000E+00 -0.38314182971E+03  0.38314182971E+03  0.00000000000E+00 0. -1.
          2    1    1    2  501    0  0.19299871658E+02 -0.21430530713E+02  0.17035454150E+03  0.17277853600E+03  0.00000000000E+00 0. -1.
          1    1    1    2  502    0  0.42209061244E+02  0.93140465505E+01 -0.29031099895E+03  0.29351121346E+03  0.00000000000E+00 0. -1.
         22    1    1    2    0    0 -0.70980406326E+02  0.19700809937E+01  0.26738577148E+02  0.75875231856E+02  0.00000000000E+00 0.  1.
         22    1    1    2    0    0  0.94714734235E+01  0.10146403169E+02 -0.64714504589E+02  0.66186293220E+02  0.00000000000E+00 0. -1.
</event>
<event>
 6    1  0.2144783E-005  0.4450190E+02  0.7818608E-02  0.1525140E+00
          2   -1    0    0  502    0  0.00000000000E+00  0.00000000000E+00  0.43932944183E+03  0.43932944183E+03  0.00000000000E+00 0.  1.
          1   -1    0    0  501    0 -0.00000000000E+00 -0.00000000000E+00 -0.39002144499E+03  0.39002144499E+03  0.00000000000E+00 0. -1.
          2    1    1    2  501    0 -0.43981075771E+02  0.81750837216E+02  0.24863689324E+03  0.26540127937E+03  0.00000000000E+00 0.  1.
          1    1    1    2  502    0  0.14131911860E+02 -0.44856736896E+02 -0.35651110793E+03  0.35959978845E+03  0.00000000000E+00 0. -1.
         22    1    1    2    0    0  0.87942275562E+01 -0.13731879892E+02 -0.19212315635E+02  0.25199524514E+02  0.00000000000E+00 0.  1.
         22    1    1    2    0    0  0.21054936355E+02 -0.23162220428E+02  0.17639452717E+03  0.17915029449E+03  0.00000000000E+00 0. -1.
</event>
<event>
 6    1  0.2144783E-005  0.6958888E+02  0.7818608E-02  0.1367613E+00
          2   -1    0    0  502    0  0.00000000000E+00  0.00000000000E+00  0.27996668139E+03  0.27996668139E+03  0.00000000000E+00 0.  1.
          1   -1    0    0  501    0 -0.00000000000E+00 -0.00000000000E+00 -0.55899830156E+03  0.55899830156E+03  0.00000000000E+00 0. -1.
          2    1    1    2  501    0 -0.17057298380E+03 -0.72677120509E+02  0.11899412439E+03  0.22031048156E+03  0.00000000000E+00 0.  1.
          1    1    1    2  502    0  0.16339676700E+03  0.11339870620E+03 -0.43970565938E+03  0.48259593546E+03  0.00000000000E+00 0. -1.
         22    1    1    2    0    0 -0.68243098706E+01 -0.20973335079E+02  0.84248813246E+02  0.87087970024E+02  0.00000000000E+00 0.  1.
         22    1    1    2    0    0  0.14000526665E+02 -0.19748250611E+02 -0.42568898434E+02  0.48970595902E+02  0.00000000000E+00 0.  1.
</event>
<event>
 6    1  0.2144783E-005  0.1003665E+03  0.7818608E-02  0.1312646E+00
          2   -1    0    0  502    0  0.00000000000E+00  0.00000000000E+00  0.79044629887E+02  0.79044629887E+02  0.00000000000E+00 0.  1.
          1   -1    0    0  501    0 -0.00000000000E+00 -0.00000000000E+00 -0.39897731798E+03  0.39897731798E+03  0.00000000000E+00 0.  1.
          2    1    1    2  501    0  0.62617695322E+02  0.28357378389E+02 -0.10389632695E+02  0.69520221116E+02  0.00000000000E+00 0.  1.
          1    1    1    2  502    0 -0.88203101649E+02  0.75944268656E+01 -0.25388436987E+03  0.26887680399E+03  0.00000000000E+00 0.  1.
         22    1    1    2    0    0 -0.20526024304E+02 -0.72921041760E+01 -0.77948742426E+02  0.80935152455E+02  0.00000000000E+00 0.  1.
         22    1    1    2    0    0  0.46111430632E+02 -0.28659701079E+02  0.22290056905E+02  0.58689770298E+02  0.00000000000E+00 0.  1.
</event>
<event>
 6    1  0.2144783E-005  0.8449087E+02  0.7818608E-02  0.1445220E+00
          2   -1    0    0  502    0  0.00000000000E+00  0.00000000000E+00  0.34331377730E+03  0.34331377730E+03  0.00000000000E+00 0. -1.
          1   -1    0    0  501    0 -0.00000000000E+00 -0.00000000000E+00 -0.19082095223E+03  0.19082095223E+03  0.00000000000E+00 0. -1.
          2    1    1    2  501    0  0.53905633625E+02  0.74086837097E+02  0.29929866849E+03  0.31300857773E+03  0.00000000000E+00 0. -1.
          1    1    1    2  502    0 -0.11197394966E+02 -0.19100231644E+02 -0.34175324118E+02  0.40720428306E+02  0.00000000000E+00 0. -1.
         22    1    1    2    0    0 -0.41767060372E+02 -0.44648443113E+02 -0.13911627745E+03  0.15195824906E+03  0.00000000000E+00 0. -1.
         22    1    1    2    0    0 -0.94117828759E+00 -0.10338162341E+02  0.26485758146E+02  0.28447474435E+02  0.00000000000E+00 0. -1.
</event>
<event>
 6    1  0.2144783E-005  0.9535091E+02  0.7818608E-02  0.1382181E+00
          2   -1    0    0  502    0  0.00000000000E+00  0.00000000000E+00  0.24001184088E+03  0.24001184088E+03  0.00000000000E+00 0. -1.
          1   -1    0    0  501    0 -0.00000000000E+00 -0.00000000000E+00 -0.17796118839E+03  0.17796118839E+03  0.00000000000E+00 0.  1.
          2    1    1    2  501    0  0.14052879308E+03  0.22750898117E+02  0.70511338113E+02  0.15886407351E+03  0.00000000000E+00 0. -1.
          1    1    1    2  502    0 -0.85878694914E+02  0.49000361926E+02 -0.37741823035E+02  0.10583303319E+03  0.00000000000E+00 0.  1.
         22    1    1    2    0    0 -0.78040599968E+01 -0.13393108146E+02  0.67492826212E+02  0.69249984031E+02  0.00000000000E+00 0.  1.
         22    1    1    2    0    0 -0.46846038169E+02 -0.58358151897E+02 -0.38211688804E+02  0.84025938532E+02  0.00000000000E+00 0.  1.
</event>
<event>
 6    1  0.2144783E-005  0.4331804E+02  0.7818608E-02  0.1539562E+00
          2   -1    0    0  502    0  0.00000000000E+00  0.00000000000E+00  0.97198080089E+02  0.97198080089E+02  0.00000000000E+00 0.  1.
          1   -1    0    0  501    0 -0.00000000000E+00 -0.00000000000E+00 -0.23711702946E+03  0.23711702946E+03  0.00000000000E+00 0.  1.
          2    1    1    2  501    0 -0.72645455376E+01 -0.85600737248E+02 -0.69034323653E+02  0.11020888204E+03  0.00000000000E+00 0.  1.
          1    1    1    2  502    0  0.24012054039E+02  0.64705983946E+02 -0.60102324586E+02  0.91519028176E+02  0.00000000000E+00 0.  1.
         22    1    1    2    0    0  0.55545199394E+01  0.10405989368E+02  0.58174621488E+02  0.59358435726E+02  0.00000000000E+00 0.  1.
         22    1    1    2    0    0 -0.22302028441E+02  0.10488763935E+02 -0.68956922617E+02  0.73228763599E+02  0.00000000000E+00 0.  1.
</event>
<event>
 6    1  0.2144783E-005  0.9874091E+02  0.7818608E-02  0.1397043E+00
          2   -1    0    0  502    0  0.00000000000E+00  0.00000000000E+00  0.17837656535E+03  0.17837656535E+03  0.00000000000E+00 0.  1.
          1   -1    0    0  501    0 -0.00000000000E+00 -0.00000000000E+00 -0.23244549876E+03  0.23244549876E+03  0.00000000000E+00 0.  1.
          2    1    1    2  501    0  0.46284824819E+02  0.65524114373E+01  0.35183825921E+02  0.58507441498E+02  0.00000000000E+00 0.  1.
          1    1    1    2  502    0 -0.10639066948E+03 -0.40424744519E+02 -0.15595729202E+03  0.19306944724E+03  0.00000000000E+00 0.  1.
         22    1    1    2    0    0 -0.99708839020E+01  0.92957397018E+01  0.82251764804E+02  0.83373749560E+02  0.00000000000E+00 0.  1.
         22    1    1    2    0    0  0.70076728564E+02  0.24576593380E+02 -0.15547232118E+02  0.75871425813E+02  0.00000000000E+00 0.  1.
</event>
<event>
 6    1  0.2144783E-005  0.8992655E+02  0.7818608E-02  0.1362120E+00
          2   -1    0    0  502    0  0.00000000000E+00  0.00000000000E+00  0.56934644436E+02  0.56934644436E+02  0.00000000000E+00 0.  1.
          1   -1    0    0  501    0 -0.00000000000E+00 -0.00000000000E+00 -0.25098842825E+03  0.25098842825E+03  0.00000000000E+00 0. -1.
          2    1    1    2  501    0  0.23076497332E+02 -0.10335015509E+02  0.25361291417E+02  0.35812461197E+02  0.00000000000E+00 0.  1.
          1    1    1    2  502    0  0.15514953035E+02  0.18785132763E+02 -0.58580825871E+02  0.63445316142E+02  0.00000000000E+00 0. -1.
         22    1    1    2    0    0 -0.61243352294E+02 -0.30929103148E+02 -0.16282573414E+03  0.17669062601E+03  0.00000000000E+00 0. -1.
         22    1    1    2    0    0  0.22651901927E+02  0.22478985894E+02  0.19914847779E+01  0.31974669339E+02  0.00000000000E+00 0.  1.
</event>
<event>
 6    1  0.2144783E-005  0.1479972E+03  0.7818608E-02  0.1237014E+00
          2   -1    0    0  502    0  0.00000000000E+00  0.00000000000E+00  0.52762917633E+03  0.52762917633E+03  0.00000000000E+00 0.  1.
          1   -1    0    0  501    0 -0.00000000000E+00 -0.00000000000E+00 -0.10125769287E+03  0.10125769287E+03  0.00000000000E+00 0.  1.
          2    1    1    2  501    0  0.15333016909E+03 -0.10866268104E+03  0.28869938385E+03  0.34447794303E+03  0.00000000000E+00 0.  1.
          1    1    1    2  502    0 -0.65019203281E+02  0.19742498336E+02  0.30873802914E+02  0.74635479112E+02  0.00000000000E+00 0.  1.
         22    1    1    2    0    0 -0.56099586141E+02  0.24103883490E+02 -0.19592750405E+02  0.64125163805E+02  0.00000000000E+00 0.  1.
         22    1    1    2    0    0 -0.32211379664E+02  0.64816299212E+02  0.12639104711E+03  0.14564828325E+03  0.00000000000E+00 0.  1.
</event>
<event>
 6    1  0.2144783E-005  0.6399572E+02  0.7818608E-02  0.1452528E+00
          2   -1    0    0  502    0  0.00000000000E+00  0.00000000000E+00  0.16735055000E+03  0.16735055000E+03  0.00000000000E+00 0.  1.
          1   -1    0    0  501    0 -0.00000000000E+00 -0.00000000000E+00 -0.50102272693E+03  0.50102272693E+03  0.00000000000E+00 0.  1.
          2    1    1    2  501    0  0.86815207506E+02  0.88389282778E+02  0.39698379805E+02  0.13009806656E+03  0.00000000000E+00 0.  1.
          1    1    1    2  502    0 -0.11015895310E+03 -0.74654144803E+02 -0.38914145586E+03  0.41126549691E+03  0.00000000000E+00 0.  1.
         22    1    1    2    0    0  0.34383982999E+02 -0.96134349532E+01 -0.49305706986E+02  0.60874700490E+02  0.00000000000E+00 0.  1.
         22    1    1    2    0    0 -0.11040237404E+02 -0.41217030218E+01  0.65076606108E+02  0.66135012968E+02  0.00000000000E+00 0. -1.
</event>
<event>
 6    1  0.2144783E-005  0.4058461E+02  0.7818608E-02  0.1560717E+00
          2   -1    0    0  502    0  0.00000000000E+00  0.00000000000E+00  0.53476385693E+02  0.53476385693E+02  0.00000000000E+00 0. -1.
          1   -1    0    0  501    0 -0.00000000000E+00 -0.00000000000E+00 -0.21321194373E+03  0.21321194373E+03  0.00000000000E+00 0. -1.
          2    1    1    2  501    0  0.78325792739E+01  0.26179652876E+02  0.62693880582E+01  0.28036204262E+02  0.00000000000E+00 0. -1.
          1    1    1    2  502    0 -0.91654774099E+01 -0.18506885812E+02 -0.85388631299E+02  0.87850607020E+02  0.00000000000E+00 0. -1.
         22    1    1    2    0    0 -0.17234750876E+02 -0.12681170751E+02 -0.11198286907E+03  0.11400882288E+03  0.00000000000E+00 0.  1.
         22    1    1    2    0    0  0.18567649012E+02  0.50084036867E+01  0.31366554276E+02  0.36792695260E+02  0.00000000000E+00 0. -1.
</event>
<event>
 6    1  0.2144783E-005  0.4902191E+02  0.7818608E-02  0.1471252E+00
          2   -1    0    0  502    0  0.00000000000E+00  0.00000000000E+00  0.15580127427E+03  0.15580127427E+03  0.00000000000E+00 0. -1.
          1   -1    0    0  501    0 -0.00000000000E+00 -0.00000000000E+00 -0.34845170898E+03  0.34845170898E+03  0.00000000000E+00 0.  1.
          2    1    1    2  501    0 -0.13528186823E+02 -0.29366680341E+02  0.81638456155E+02  0.87808036514E+02  0.00000000000E+00 0. -1.
          1    1    1    2  502    0  0.35805204879E+02  0.11170893619E+02 -0.28549955518E+03  0.28795276968E+03  0.00000000000E+00 0.  1.
         22    1    1    2    0    0  0.10754482867E+02  0.29579413793E+01 -0.53287852104E+02  0.54442662507E+02  0.00000000000E+00 0. -1.
         22    1    1    2    0    0 -0.33031500923E+02  0.15237845343E+02  0.64498516420E+02  0.74049514544E+02  0.00000000000E+00 0.  1.
</event>
<event>
 6    1  0.2144783E-005  0.9307124E+02  0.7818608E-02  0.1302082E+00
          2   -1    0    0  502    0  0.00000000000E+00  0.00000000000E+00  0.12212036367E+02  0.12212036367E+02  0.00000000000E+00 0.  1.
          1   -1    0    0  501    0 -0.00000000000E+00 -0.00000000000E+00 -0.23757945128E+04  0.23757945128E+04  0.00000000000E+00 0.  1.
          2    1    1    2  501    0  0.35929705157E+02 -0.67784694791E+01 -0.13076052514E+04  0.13081163499E+04  0.00000000000E+00 0.  1.
          1    1    1    2  502    0 -0.85844746770E+02  0.20963394730E+02 -0.41510189146E+03  0.42440353999E+03  0.00000000000E+00 0.  1.
         22    1    1    2    0    0 -0.25862355856E+02 -0.46904191677E+02 -0.30131464703E+03  0.30603820213E+03  0.00000000000E+00 0. -1.
         22    1    1    2    0    0  0.75777397469E+02  0.32719266425E+02 -0.33956068658E+03  0.34944845719E+03  0.00000000000E+00 0.  1.
</event>
<event>
 6    1  0.2144783E-005  0.6119400E+02  0.7818608E-02  0.1422828E+00
          2   -1    0    0  502    0  0.00000000000E+00  0.00000000000E+00  0.27751626188E+03  0.27751626188E+03  0.00000000000E+00 0. -1.
          1   -1    0    0  501    0 -0.00000000000E+00 -0.00000000000E+00 -0.15536523646E+03  0.15536523646E+03  0.00000000000E+00 0. -1.
          2    1    1    2  501    0  0.22829726647E+02 -0.12819034444E+03  0.12738708068E+03  0.18215770407E+03  0.00000000000E+00 0. -1.
          1    1    1    2  502    0 -0.59247649786E+02  0.10485880064E+03  0.50745616992E+01  0.12054627018E+03  0.00000000000E+00 0. -1.
         22    1    1    2    0    0  0.53807916961E+01  0.18947897077E+02  0.54627492493E+02  0.58070118469E+02  0.00000000000E+00 0.  1.
         22    1    1    2    0    0  0.31037131443E+02  0.43836467246E+01 -0.64938109454E+02  0.72107405627E+02  0.00000000000E+00 0. -1.
</event>
<event>
 6    1  0.2144783E-005  0.8724894E+02  0.7818608E-02  0.1420418E+00
          2   -1    0    0  502    0  0.00000000000E+00  0.00000000000E+00  0.12690550001E+03  0.12690550001E+03  0.00000000000E+00 0. -1.
          1   -1    0    0  501    0 -0.00000000000E+00 -0.00000000000E+00 -0.27299588676E+03  0.27299588676E+03  0.00000000000E+00 0. -1.
          2    1    1    2  501    0  0.41379544594E+02  0.56840602724E+02  0.45903871491E+02  0.83965982676E+02  0.00000000000E+00 0. -1.
          1    1    1    2  502    0 -0.27472816676E+02 -0.63048165773E+02 -0.17255185940E+03  0.18575244560E+03  0.00000000000E+00 0. -1.
         22    1    1    2    0    0 -0.16930634269E+02 -0.71648869606E+01 -0.72803453332E+02  0.75088779448E+02  0.00000000000E+00 0. -1.
         22    1    1    2    0    0  0.30239063506E+01  0.13372450010E+02  0.53361054485E+02  0.55094179045E+02  0.00000000000E+00 0. -1.
</event>
<event>
 6    1  0.2144783E-005  0.4704799E+02  0.7818608E-02  0.1509633E+00
          2   -1    0    0  502    0  0.00000000000E+00  0.00000000000E+00  0.21515172501E+03  0.21515172501E+03  0.00000000000E+00 0.  1.
          1   -1    0    0  501    0 -0.00000000000E+00 -0.00000000000E+00 -0.12339296374E+03  0.12339296374E+03  0.00000000000E+00 0.  1.
          2    1    1    2  501    0  0.50053036581E+02 -0.30982639683E+02  0.10854851954E+03  0.12348283899E+03  0.00000000000E+00 0.  1.
          1    1    1    2  502    0 -0.27803077635E+02  0.10867533394E+02 -0.71944239350E+02  0.77891514195E+02  0.00000000000E+00 0.  1.
         22    1    1    2    0    0 -0.57771515928E+01  0.23409924261E+02  0.92834680960E+02  0.95914952032E+02  0.00000000000E+00 0.  1.
         22    1    1    2    0    0 -0.16472807353E+02 -0.32948179709E+01 -0.37680199875E+02  0.41255383530E+02  0.00000000000E+00 0. -1.
</event>
<event>
 6    1  0.2144783E-005  0.5986486E+02  0.7818608E-02  0.1434384E+00
          2   -1    0    0  502    0  0.00000000000E+00  0.00000000000E+00  0.24575188813E+03  0.24575188813E+03  0.00000000000E+00 0.  1.
          1   -1    0    0  501    0 -0.00000000000E+00 -0.00000000000E+00 -0.72179855840E+02  0.72179855840E+02  0.00000000000E+00 0.  1.
          2    1    1    2  501    0 -0.14135661164E+02 -0.20483112387E+02  0.23327699017E+02  0.34110941808E+02  0.00000000000E+00 0.  1.
          1    1    1    2  502    0  0.31321630728E+02  0.27304640625E+02 -0.37510490264E+02  0.55978789117E+02  0.00000000000E+00 0.  1.
         22    1    1    2    0    0 -0.72974882688E+01  0.26039417181E+02 -0.87037733986E+01  0.28408805915E+02  0.00000000000E+00 0.  1.
         22    1    1    2    0    0 -0.98884812953E+01 -0.32860945419E+02  0.19645859694E+03  0.19943320713E+03  0.00000000000E+00 0.  1.
</event>
<event>
 6    1  0.2144783E-005  0.4642881E+02  0.7818608E-02  0.1521751E+00
          2   -1    0    0  502    0  0.00000000000E+00  0.00000000000E+00  0.11295332192E+03  0.11295332192E+03  0.00000000000E+00 0. -1.
          1   -1    0    0  501    0 -0.00000000000E+00 -0.00000000000E+00 -0.92083561118E+02  0.92083561118E+02  0.00000000000E+00 0. -1.
          2    1    1    2  501    0  0.21540343819E+02 -0.73243795538E+01  0.10705683302E+02  0.25144474595E+02  0.00000000000E+00 0. -1.
          1    1    1    2  502    0 -0.49762523522E+02 -0.79157740097E+01 -0.48287186620E+01  0.50619015689E+02  0.00000000000E+00 0. -1.
         22    1    1    2    0    0 -0.37071027386E+01 -0.20991190732E+02  0.59744589968E+02  0.63433340835E+02  0.00000000000E+00 0. -1.
         22    1    1    2    0    0  0.31929282441E+02  0.36231344296E+02 -0.44751793810E+02  0.65840051913E+02  0.00000000000E+00 0. -1.
</event>
<event>
 6    1  0.2144783E-005  0.1975750E+03  0.7818608E-02  0.1172441E+00
          2   -1    0    0  502    0  0.00000000000E+00  0.00000000000E+00  0.41284776291E+03  0.41284776291E+03  0.00000000000E+00 0.  1.
          1   -1    0    0  501    0 -0.00000000000E+00 -0.00000000000E+00 -0.35921156968E+03  0.35921156968E+03  0.00000000000E+00 0. -1.
          2    1    1    2  501    0 -0.11673162233E+03 -0.14934351760E+03  0.28971577207E+03  0.34621523145E+03  0.00000000000E+00 0.  1.
          1    1    1    2  502    0 -0.13378770584E+01  0.17536045995E+03 -0.14004270071E+03  0.22442156503E+03  0.00000000000E+00 0. -1.
         22    1    1    2    0    0  0.12201428205E+03 -0.98761478743E+01 -0.12055171480E+03  0.17180727360E+03  0.00000000000E+00 0.  1.
         22    1    1    2    0    0 -0.39447826575E+01 -0.16140794474E+02  0.24514836664E+02  0.29615262503E+02  0.00000000000E+00 0. -1.
</event>
<event>
 6    1  0.2144783E-005  0.1708345E+03  0.7818608E-02  0.1250876E+00
          2   -1    0    0  502    0  0.00000000000E+00  0.00000000000E+00  0.28858063170E+03  0.28858063170E+03  0.00000000000E+00 0. -1.
          1   -1    0    0  501    0 -0.00000000000E+00 -0.00000000000E+00 -0.76875645331E+03  0.76875645331E+03  0.00000000000E+00 0. -1.
          2    1    1    2  501    0  0.14949541549E+03  0.78850584607E+02 -0.71646604925E+03  0.73613170947E+03  0.00000000000E+00 0. -1.
          1    1    1    2  502    0 -0.23350609561E+02 -0.11254076586E+02  0.24033750111E+02  0.35348640017E+02  0.00000000000E+00 0. -1.
         22    1    1    2    0    0 -0.10898127040E+03 -0.98759400882E+02  0.19994419020E+03  0.24820962059E+03  0.00000000000E+00 0. -1.
         22    1    1    2    0    0 -0.17163535538E+02  0.31162892861E+02  0.12312287324E+02  0.37647114933E+02  0.00000000000E+00 0.  1.
</event>
<event>
 6    1  0.2144783E-005  0.2623935E+03  0.7818608E-02  0.1224862E+00
          2   -1    0    0  502    0  0.00000000000E+00  0.00000000000E+00  0.92334163351E+02  0.92334163351E+02  0.00000000000E+00 0. -1.
          1   -1    0    0  501    0 -0.00000000000E+00 -0.00000000000E+00 -0.13791134619E+04  0.13791134619E+04  0.00000000000E+00 0.  1.
          2    1    1    2  501    0 -0.10308943446E+03  0.20936467593E+03 -0.16763714523E+03  0.28733814833E+03  0.00000000000E+00 0. -1.
          1    1    1    2  502    0  0.60923172475E+02 -0.18026849022E+03 -0.93850689619E+03  0.95760302615E+03  0.00000000000E+00 0.  1.
         22    1    1    2    0    0  0.55676489119E+02 -0.38887081767E+02 -0.19373511902E+03  0.20529338253E+03  0.00000000000E+00 0.  1.
         22    1    1    2    0    0 -0.13510227133E+02  0.97908960597E+01  0.13099861884E+02  0.21213068241E+02  0.00000000000E+00 0.  1.
</event>
<event>
 6    1  0.2144783E-005  0.8547391E+02  0.7818608E-02  0.1317170E+00
          2   -1    0    0  502    0  0.00000000000E+00  0.00000000000E+00  0.11044465412E+03  0.11044465412E+03  0.00000000000E+00 0.  1.
          1   -1    0    0  501    0 -0.00000000000E+00 -0.00000000000E+00 -0.33414557722E+03  0.33414557722E+03  0.00000000000E+00 0.  1.
          2    1    1    2  501    0 -0.39571652939E+02 -0.15656451540E+02  0.25914612811E+02  0.49825769922E+02  0.00000000000E+00 0.  1.
          1    1    1    2  502    0  0.64080079532E+02  0.99809970397E+01 -0.26328719649E+03  0.27115682682E+03  0.00000000000E+00 0.  1.
         22    1    1    2    0    0  0.13561936648E+02  0.79449764083E+01 -0.48326547129E+02  0.50818342488E+02  0.00000000000E+00 0.  1.
         22    1    1    2    0    0 -0.38070363241E+02 -0.22695219084E+01  0.61998207711E+02  0.72789292113E+02  0.00000000000E+00 0.  1.
</event>
<event>
 6    1  0.2144783E-005  0.1022035E+03  0.7818608E-02  0.1347144E+00
          2   -1    0    0  502    0  0.00000000000E+00  0.00000000000E+00  0.13182519525E+03  0.13182519525E+03  0.00000000000E+00 0. -1.
          1   -1    0    0  501    0 -0.00000000000E+00 -0.00000000000E+00 -0.39351343232E+03  0.39351343232E+03  0.00000000000E+00 0. -1.
          2    1    1    2  501    0  0.51366978381E+02  0.69525016514E+02 -0.10715760754E+03  0.13767733017E+03  0.00000000000E+00 0. -1.
          1    1    1    2  502    0 -0.45327763432E+02 -0.91090309085E+02 -0.22262191894E+03  0.24477044213E+03  0.00000000000E+00 0. -1.
         22    1    1    2    0    0 -0.86717248140E+01 -0.63280187130E+01 -0.34714107777E+02  0.36336096527E+02  0.00000000000E+00 0.  1.
         22    1    1    2    0    0  0.26325098650E+01  0.27893311284E+02  0.10280539718E+03  0.10655475874E+03  0.00000000000E+00 0. -1.
</event>
<event>
 6    1  0.2144783E-005  0.2856250E+02  0.7818608E-02  0.1646729E+00
          2   -1    0    0  502    0  0.00000000000E+00  0.00000000000E+00  0.10490047087E+03  0.10490047087E+03  0.00000000000E+00 0. -1.
          1   -1    0    0  501    0 -0.00000000000E+00 -0.00000000000E+00 -0.17634660942E+03  0.17634660942E+03  0.00000000000E+00 0. -1.
          2    1    1    2  501    0 -0.13158236356E+02 -0.48637012533E+02 -0.71313392836E+02  0.87317227224E+02  0.00000000000E+00 0. -1.
          1    1    1    2  502    0  0.24870333938E+02  0.11480198807E+02 -0.48176214521E+02  0.55419095269E+02  0.00000000000E+00 0. -1.
         22    1    1    2    0    0 -0.11850726025E+02  0.12409757317E+02 -0.41872128547E+02  0.45251706410E+02  0.00000000000E+00 0. -1.
         22    1    1    2    0    0  0.13862844237E+00  0.24747056409E+02  0.89915597357E+02  0.93259051394E+02  0.00000000000E+00 0. -1.
</event>
<event>
 6    1  0.2144783E-005  0.3267939E+02  0.7818608E-02  0.1574320E+00
          2   -1    0    0  502    0  0.00000000000E+00  0.00000000000E+00  0.67836833233E+02  0.67836833233E+02  0.00000000000E+00 0.  1.
          1   -1    0    0  501    0 -0.00000000000E+00 -0.00000000000E+00 -0.31380823358E+03  0.31380823358E+03  0.00000000000E+00 0. -1.
          2    1    1    2  501    0  0.37170948243E+02  0.11443090296E+01 -0.32982757192E+02  0.49707656436E+02  0.00000000000E+00 0.  1.
          1    1    1    2  502    0 -0.66531711469E+02 -0.33525555304E+01 -0.18902077946E+03  0.20041597573E+03  0.00000000000E+00 0. -1.
         22    1    1    2    0    0  0.12861672929E+02  0.15472730493E+02 -0.74269432992E+02  0.76946583397E+02  0.00000000000E+00 0. -1.
         22    1    1    2    0    0  0.16499090297E+02 -0.13264483993E+02  0.50301569293E+02  0.54574851255E+02  0.00000000000E+00 0.  1.
</event>
<event>
 6    1  0.2144783E-005  0.6931248E+02  0.7818608E-02  0.1372707E+00
          2   -1    0    0  502    0  0.00000000000E+00  0.00000000000E+00  0.47833028604E+03  0.47833028604E+03  0.00000000000E+00 0. -1.
          1   -1    0    0  501    0 -0.00000000000E+00 -0.00000000000E+00 -0.16623505915E+03  0.16623505915E+03  0.00000000000E+00 0. -1.
          2    1    1    2  501    0  0.20861800658E+03  0.49871831375E+01  0.15675053651E+03  0.26099248143E+03  0.00000000000E+00 0. -1.
          1    1    1    2  502    0 -0.21672368753E+03 -0.31127868333E+02  0.61474678578E+02  0.22741424105E+03  0.00000000000E+00 0. -1.
         22    1    1    2    0    0  0.19307910051E+02  0.11089484623E+02  0.12107817139E+03  0.12310847106E+03  0.00000000000E+00 0. -1.
         22    1    1    2    0    0 -0.11202229101E+02  0.15051200573E+02 -0.27208159598E+02  0.33050151652E+02  0.00000000000E+00 0. -1.
</event>
<event>
 6    1  0.2144783E-005  0.1926798E+03  0.7818608E-02  0.1210731E+00
          2   -1    0    0  502    0  0.00000000000E+00  0.00000000000E+00  0.37752329500E+02  0.37752329500E+02  0.00000000000E+00 0. -1.
          1   -1    0    0  501    0 -0.00000000000E+00 -0.00000000000E+00 -0.15667780714E+04  0.15667780714E+04  0.00000000000E+00 0. -1.
          2    1    1    2  501    0  0.15518934637E+03  0.54529370191E+02 -0.62900738799E+03  0.65015958010E+03  0.00000000000E+00 0. -1.
          1    1    1    2  502    0 -0.15358358938E+03 -0.67618699460E+02 -0.68795532310E+03  0.70812621334E+03  0.00000000000E+00 0. -1.
         22    1    1    2    0    0 -0.13961481367E+02 -0.42305331204E+02 -0.16962333598E+03  0.17537599642E+03  0.00000000000E+00 0.  1.
         22    1    1    2    0    0  0.12355724371E+02  0.55394660473E+02 -0.42439694818E+02  0.70868611034E+02  0.00000000000E+00 0. -1.
</event>
<event>
 6    1  0.2144783E-005  0.1314596E+03  0.7818608E-02  0.1339143E+00
          2   -1    0    0  502    0  0.00000000000E+00  0.00000000000E+00  0.68937054174E+03  0.68937054174E+03  0.00000000000E+00 0. -1.
          1   -1    0    0  501    0 -0.00000000000E+00 -0.00000000000E+00 -0.27845009966E+03  0.27845009966E+03  0.00000000000E+00 0. -1.
          2    1    1    2  501    0 -0.20308147497E+03 -0.78803546043E+02  0.56227428071E+03  0.60299622809E+03  0.00000000000E+00 0. -1.
          1    1    1    2  502    0  0.10749243870E+03  0.74317924221E+02  0.21250921363E+02  0.13239856455E+03  0.00000000000E+00 0. -1.
         22    1    1    2    0    0  0.89115124661E+02  0.12568295227E+02 -0.19109857058E+03  0.21123004324E+03  0.00000000000E+00 0. -1.
         22    1    1    2    0    0  0.64739116157E+01 -0.80826734055E+01  0.18493810593E+02  0.21195805510E+02  0.00000000000E+00 0. -1.
</event>
<event>
 6    1  0.2144783E-005  0.7757564E+02  0.7818608E-02  0.1461974E+00
          2   -1    0    0  502    0  0.00000000000E+00  0.00000000000E+00  0.11282897027E+03  0.11282897027E+03  0.00000000000E+00 0. -1.
          1   -1    0    0  501    0 -0.00000000000E+00 -0.00000000000E+00 -0.23834301894E+03  0.23834301894E+03  0.00000000000E+00 0.  1.
          2    1    1    2  501    0  0.29161949444E+02 -0.28626921789E+02  0.78089880341E+02  0.88135970852E+02  0.00000000000E+00 0. -1.
          1    1    1    2  502    0  0.23907930777E+02  0.35987063364E+01 -0.68860538728E+02  0.72981597921E+02  0.00000000000E+00 0.  1.
         22    1    1    2    0    0 -0.19908411252E+01  0.10300334788E+02  0.22090983702E+02  0.24455508705E+02  0.00000000000E+00 0. -1.
         22    1    1    2    0    0 -0.51079039096E+02  0.14727880665E+02 -0.15683437399E+03  0.16559891174E+03  0.00000000000E+00 0. -1.
</event>
<event>
 6    1  0.2144783E-005  0.8596712E+02  0.7818608E-02  0.1426130E+00
          2   -1    0    0  502    0  0.00000000000E+00  0.00000000000E+00  0.12849891573E+03  0.12849891573E+03  0.00000000000E+00 0. -1.
          1   -1    0    0  501    0 -0.00000000000E+00 -0.00000000000E+00 -0.13662338263E+03  0.13662338263E+03  0.00000000000E+00 0.  1.
          2    1    1    2  501    0 -0.27110500527E+02  0.23727974013E+02  0.42367111436E+02  0.55614459639E+02  0.00000000000E+00 0. -1.
          1    1    1    2  502    0 -0.19478907051E+02  0.16804925149E+02 -0.64591781601E+02  0.69526481139E+02  0.00000000000E+00 0.  1.
         22    1    1    2    0    0  0.33566216352E+02 -0.42223358434E+02 -0.50601990693E+02  0.73959883313E+02  0.00000000000E+00 0.  1.
         22    1    1    2    0    0  0.13023191227E+02  0.16904592720E+01  0.64702193952E+02  0.66021474267E+02  0.00000000000E+00 0. -1.
</event>
<event>
 6    1  0.2144783E-005  0.1435762E+03  0.7818608E-02  0.1291248E+00
          2   -1    0    0  502    0  0.00000000000E+00  0.00000000000E+00  0.48320496920E+03  0.48320496920E+03  0.00000000000E+00 0.  1.
          1   -1    0    0  501    0 -0.00000000000E+00 -0.00000000000E+00 -0.88112614790E+02  0.88112614790E+02  0.00000000000E+00 0.  1.
          2    1    1    2  501    0 -0.80283023754E+02 -0.12250385707E+03  0.23880702765E+03  0.28014523976E+03  0.00000000000E+00 0.  1.
          1    1    1    2  502    0  0.71353125512E+02  0.55567982409E+02  0.11643075238E+02  0.91184595138E+02  0.00000000000E+00 0.  1.
         22    1    1    2    0    0 -0.16503561524E+02  0.21976065139E+02  0.14575230168E+03  0.14832076196E+03  0.00000000000E+00 0.  1.
         22    1    1    2    0    0  0.25433459765E+02  0.44959809525E+02 -0.11100501687E+01  0.51666987134E+02  0.00000000000E+00 0.  1.
</event>
<event>
 6    1  0.2144783E-005  0.5417915E+02  0.7818608E-02  0.1514588E+00
          2   -1    0    0  502    0  0.00000000000E+00  0.00000000000E+00  0.18390582024E+03  0.18390582024E+03  0.00000000000E+00 0.  1.
          1   -1    0    0  501    0 -0.00000000000E+00 -0.00000000000E+00 -0.28783397451E+03  0.28783397451E+03  0.00000000000E+00 0.  1.
          2    1    1    2  501    0 -0.52881363318E+02 -0.11149591528E+01  0.10592797633E+03  0.11839939987E+03  0.00000000000E+00 0.  1.
          1    1    1    2  502    0  0.37851510696E+02  0.11983608963E+02 -0.22626034744E+03  0.22971741024E+03  0.00000000000E+00 0.  1.
         22    1    1    2    0    0  0.13182982504E+02  0.37817457261E+01 -0.51930535813E+02  0.53711015427E+02  0.00000000000E+00 0.  1.
         22    1    1    2    0    0  0.18468701181E+01 -0.14650395536E+02  0.68334752647E+02  0.69911969203E+02  0.00000000000E+00 0.  1.
</event>
<event>
 6    1  0.2144783E-005  0.2085915E+03  0.7818608E-02  0.1273478E+00
          2   -1    0    0  502    0  0.00000000000E+00  0.00000000000E+00  0.16698561852E+03  0.16698561852E+03  0.00000000000E+00 0. -1.
          1   -1    0    0  501    0 -0.00000000000E+00 -0.00000000000E+00 -0.53477044112E+03  0.53477044112E+03  0.00000000000E+00 0. -1.
          2    1    1    2  501    0 -0.11709484712E+03 -0.17315658607E+03 -0.10464605800E+03  0.23376313648E+03  0.00000000000E+00 0. -1.
          1    1    1    2  502    0  0.88855676596E+02  0.16130251999E+03 -0.28703124202E+03  0.34102898427E+03  0.00000000000E+00 0. -1.
         22    1    1    2    0    0  0.95004151414E+01  0.82048312657E+01  0.73106731960E+02  0.74176623014E+02  0.00000000000E+00 0. -1.
         22    1    1    2    0    0  0.18738755384E+02  0.36492348133E+01 -0.49214254546E+02  0.52787315887E+02  0.00000000000E+00 0. -1.
</event>
<event>
 6    1  0.2144783E-005  0.4243706E+02  0.7818608E-02  0.1500390E+00
          2   -1    0    0  502    0  0.00000000000E+00  0.00000000000E+00  0.48815393945E+02  0.48815393945E+02  0.00000000000E+00 0. -1.
          1   -1    0    0  501    0 -0.00000000000E+00 -0.00000000000E+00 -0.97189099253E+03  0.97189099253E+03  0.00000000000E+00 0.  1.
          2    1    1    2  501    0 -0.42000041345E+02 -0.10804220977E+02 -0.24568825790E+03  0.24948638186E+03  0.00000000000E+00 0. -1.
          1    1    1    2  502    0  0.53719577462E+02  0.29498273268E+02 -0.63505529004E+03  0.63800561325E+03  0.00000000000E+00 0.  1.
         22    1    1    2    0    0  0.22437422730E+02 -0.19702297561E+02 -0.78180269537E+02  0.83688547681E+02  0.00000000000E+00 0.  1.
         22    1    1    2    0    0 -0.34156958847E+02  0.10082452706E+01  0.35848218886E+02  0.49525843692E+02  0.00000000000E+00 0. -1.
</event>
<event>
 6    1  0.2144783E-005  0.6750118E+02  0.7818608E-02  0.1414302E+00
          2   -1    0    0  502    0  0.00000000000E+00  0.00000000000E+00  0.14724980717E+03  0.14724980717E+03  0.00000000000E+00 0. -1.
          1   -1    0    0  501    0 -0.00000000000E+00 -0.00000000000E+00 -0.29609075950E+03  0.29609075950E+03  0.00000000000E+00 0. -1.
          2    1    1    2  501    0  0.66424320096E+02  0.56116049531E+02 -0.76443816208E+02  0.11577935201E+03  0.00000000000E+00 0. -1.
          1    1    1    2  502    0 -0.43582235715E+02 -0.17514700231E+02 -0.15969688447E+03  0.16646101917E+03  0.00000000000E+00 0. -1.
         22    1    1    2    0    0 -0.13034895048E+02 -0.75759570974E+01 -0.33104911076E+02  0.36376348803E+02  0.00000000000E+00 0. -1.
         22    1    1    2    0    0 -0.98071893323E+01 -0.31025392202E+02  0.12040465942E+03  0.12472384669E+03  0.00000000000E+00 0. -1.
</event>
<event>
 6    1  0.2144783E-005  0.4823350E+02  0.7818608E-02  0.1490137E+00
          2   -1    0    0  502    0  0.00000000000E+00  0.00000000000E+00  0.24951086216E+03  0.24951086216E+03  0.00000000000E+00 0.  1.
          1   -1    0    0  501    0 -0.00000000000E+00 -0.00000000000E+00 -0.77445116246E+02  0.77445116246E+02  0.00000000000E+00 0.  1.
          2    1    1    2  501    0 -0.40248517244E+02 -0.49200739918E+02  0.77913175683E+02  0.10055405956E+03  0.00000000000E+00 0.  1.
          1    1    1    2  502    0  0.17514298994E+02  0.23997763907E+02 -0.32414999431E+02  0.43970166362E+02  0.00000000000E+00 0.  1.
         22    1    1    2    0    0  0.27825542021E+02  0.90312819559E+01  0.15038066573E+03  0.15319976981E+03  0.00000000000E+00 0.  1.
         22    1    1    2    0    0 -0.50913237698E+01  0.16171694055E+02 -0.23813096076E+02  0.29231982674E+02  0.00000000000E+00 0.  1.
</event>
<event>
 6    1  0.2144783E-005  0.7538729E+02  0.7818608E-02  0.1448141E+00
          2   -1    0    0  502    0  0.00000000000E+00  0.00000000000E+00  0.23847433222E+03  0.23847433222E+03  0.00000000000E+00 0. -1.
          1   -1    0    0  501    0 -0.00000000000E+00 -0.00000000000E+00 -0.41542382150E+03  0.41542382150E+03  0.00000000000E+00 0. -1.
          2    1    1    2  501    0 -0.40351425859E+02 -0.56206907327E+02  0.19331285743E+03  0.20532246552E+03  0.00000000000E+00 0. -1.
          1    1    1    2  502    0  0.21179512277E+02  0.12384250255E+02 -0.28859086612E+03  0.28963188602E+03  0.00000000000E+00 0. -1.
         22    1    1    2    0    0  0.22234808194E+02  0.30166504876E+02 -0.11598334680E+03  0.12188741299E+03  0.00000000000E+00 0. -1.
         22    1    1    2    0    0 -0.30628946120E+01  0.13656152197E+02  0.34311866211E+02  0.37056389181E+02  0.00000000000E+00 0.  1.
</event>
<event>
 6    1  0.2144783E-005  0.2996342E+02  0.7818608E-02  0.1631503E+00
          2   -1    0    0  502    0  0.00000000000E+00  0.00000000000E+00  0.48901896731E+02  0.48901896731E+02  0.00000000000E+00 0.  1.
          1   -1    0    0  501    0 -0.00000000000E+00 -0.00000000000E+00 -0.38305482439E+03  0.38305482439E+03  0.00000000000E+00 0.  1.
          2    1    1    2  501    0  0.63871572877E+01  0.27302657815E+02 -0.16152946308E+02  0.32359675159E+02  0.00000000000E+00 0.  1.
          1    1    1    2  502    0  0.20392725941E+01 -0.29043032049E+02 -0.25490282690E+03  0.25656014403E+03  0.00000000000E+00 0.  1.
         22    1    1    2    0    0 -0.23726293668E+02  0.94277393098E+01  0.35074914184E+02  0.43382817851E+02  0.00000000000E+00 0.  1.
         22    1    1    2    0    0  0.15299863786E+02 -0.76873650754E+01 -0.98172068644E+02  0.99654084089E+02  0.00000000000E+00 0. -1.
</event>
<event>
 6    1  0.2144783E-005  0.4254087E+02  0.7818608E-02  0.1541159E+00
          2   -1    0    0  502    0  0.00000000000E+00  0.00000000000E+00  0.16797502315E+03  0.16797502315E+03  0.00000000000E+00 0.  1.
          1   -1    0    0  501    0 -0.00000000000E+00 -0.00000000000E+00 -0.70542341021E+02  0.70542341021E+02  0.00000000000E+00 0. -1.
          2    1    1    2  501    0  0.16916274285E+02 -0.33084209982E+02  0.18952111520E+02  0.41712202254E+02  0.00000000000E+00 0.  1.
          1    1    1    2  502    0  0.21785889560E+02 -0.16667289821E+02  0.44334195066E+02  0.52133908218E+02  0.00000000000E+00 0. -1.
         22    1    1    2    0    0 -0.19663242487E+02  0.85987708394E+01 -0.47026677470E+02  0.51692265948E+02  0.00000000000E+00 0. -1.
         22    1    1    2    0    0 -0.19038921358E+02  0.41152728964E+02  0.81173053010E+02  0.92978987748E+02  0.00000000000E+00 0. -1.
</event>
<event>
 6    1  0.2144783E-005  0.1448825E+03  0.7818608E-02  0.1320584E+00
          2   -1    0    0  502    0  0.00000000000E+00  0.00000000000E+00  0.40682624788E+02  0.40682624788E+02  0.00000000000E+00 0. -1.
          1   -1    0    0  501    0 -0.00000000000E+00 -0.00000000000E+00 -0.20265958955E+04  0.20265958955E+04  0.00000000000E+00 0. -1.
          2    1    1    2  501    0 -0.97442485316E+01 -0.61930229050E+02 -0.55761396582E+02  0.83902544648E+02  0.00000000000E+00 0. -1.
          1    1    1    2  502    0 -0.82084013105E+01  0.94408414944E+02 -0.17964645222E+04  0.17989622304E+04  0.00000000000E+00 0. -1.
         22    1    1    2    0    0  0.24437237865E+02 -0.18234318216E+02 -0.15500084921E+03  0.15797130186E+03  0.00000000000E+00 0.  1.
         22    1    1    2    0    0 -0.64845880228E+01 -0.14243867678E+02  0.21313497286E+02  0.26442443435E+02  0.00000000000E+00 0. -1.
</event>
<event>
 6    1  0.2144783E-005  0.6726746E+02  0.7818608E-02  0.1493879E+00
          2   -1    0    0  502    0  0.00000000000E+00  0.00000000000E+00  0.45231126794E+03  0.45231126794E+03  0.00000000000E+00 0.  1.
          1   -1    0    0  501    0 -0.00000000000E+00 -0.00000000000E+00 -0.33896041232E+03  0.33896041232E+03  0.00000000000E+00 0.  1.
          2    1    1    2  501    0 -0.74618092614E+02 -0.61286388996E+01  0.41585169271E+03  0.42253763180E+03  0.00000000000E+00 0.  1.
          1    1    1    2  502    0  0.42448095787E+02 -0.51174955122E+01 -0.19084892489E+03  0.19557950232E+03  0.00000000000E+00 0.  1.
         22    1    1    2    0    0  0.22312296268E+02  0.84793019066E+01 -0.14051571099E+03  0.14252860121E+03  0.00000000000E+00 0. -1.
         22    1    1    2    0    0  0.98577005586E+01  0.27668325053E+01  0.28863798789E+02  0.30625944932E+02  0.00000000000E+00 0.  1.
</event>
<event>
 6    1  0.2144783E-005  0.8826427E+02  0.7818608E-02  0.1352243E+00
          2   -1    0    0  502    0  0.00000000000E+00  0.00000000000E+00  0.11516388289E+03  0.11516388289E+03  0.00000000000E+00 0.  1.
          1   -1    0    0  501    0 -0.00000000000E+00 -0.00000000000E+00 -0.27693993442E+03  0.27693993442E+03  0.00000000000E+00 0.  1.
          2    1    1    2  501    0  0.12065109012E+02  0.21394506304E+02 -0.25306677130E+02  0.35266409838E+02  0.00000000000E+00 0.  1.
          1    1    1    2  502    0  0.11597871999E+03 -0.14315300392E+02 -0.13554737514E+03  0.17896670702E+03  0.00000000000E+00 0.  1.
         22    1    1    2    0    0 -0.13802088811E+03 -0.63571035532E+01  0.33378079570E+02  0.14214174094E+03  0.00000000000E+00 0.  1.
         22    1    1    2    0    0  0.99770591145E+01 -0.72210235865E+00 -0.34300078830E+02  0.35728959516E+02  0.00000000000E+00 0. -1.
</event>
<event>
 6    1  0.2144783E-005  0.1160103E+03  0.7818608E-02  0.1309935E+00
          2   -1    0    0  502    0  0.00000000000E+00  0.00000000000E+00  0.14165268675E+03  0.14165268675E+03  0.00000000000E+00 0.  1.
          1   -1    0    0  501    0 -0.00000000000E+00 -0.00000000000E+00 -0.26511597394E+03  0.26511597394E+03  0.00000000000E+00 0.  1.
          2    1    1    2  501    0 -0.88149125409E+02 -0.34335741880E+02  0.41933748198E+02  0.10347777886E+03  0.00000000000E+00 0.  1.
          1    1    1    2  502    0  0.96207164626E+02  0.82058507364E+01 -0.14359705163E+03  0.17304123135E+03  0.00000000000E+00 0.  1.
         22    1    1    2    0    0 -0.24771506713E+02  0.27384339509E+02  0.46810455182E+02  0.59621710052E+02  0.00000000000E+00 0. -1.
         22    1    1    2    0    0  0.16713467496E+02 -0.12544483663E+01 -0.68610438940E+02  0.70627940420E+02  0.00000000000E+00 0. -1.
</event>
<event>
 6    1  0.2144783E-005  0.4300222E+02  0.7818608E-02  0.1527810E+00
          2   -1    0    0  502    0  0.00000000000E+00  0.00000000000E+00  0.21140831302E+03  0.21140831302E+03  0.00000000000E+00 0. -1.
          1   -1    0    0  501    0 -0.00000000000E+00 -0.00000000000E+00 -0.60391921223E+03  0.60391921223E+03  0.00000000000E+00 0. -1.
          2    1    1    2  501    0  0.16036965593E+02 -0.34927378289E+02  0.18311725515E+03  0.18710701525E+03  0.00000000000E+00 0. -1.
          1    1    1    2  502    0 -0.38985218967E+02  0.24001275020E+02 -0.44463244465E+03  0.44698313093E+03  0.00000000000E+00 0. -1.
         22    1    1    2    0    0  0.67148831628E+01 -0.17579655853E+02  0.19563898719E+02  0.27145535340E+02  0.00000000000E+00 0.  1.
         22    1    1    2    0    0  0.16233370211E+02  0.28505759121E+02 -0.15055960843E+03  0.15409184373E+03  0.00000000000E+00 0. -1.
</event>
<event>
 6    1  0.2144783E-005  0.4878582E+02  0.7818608E-02  0.1490896E+00
          2   -1    0    0  502    0  0.00000000000E+00  0.00000000000E+00  0.83097230156E+02  0.83097230156E+02  0.00000000000E+00 0. -1.
          1   -1    0    0  501    0 -0.00000000000E+00 -0.00000000000E+00 -0.92658264009E+02  0.92658264009E+02  0.00000000000E+00 0. -1.
          2    1    1    2  501    0 -0.17860771789E+02 -0.15497797307E+02 -0.11093995676E+02  0.26120214975E+02  0.00000000000E+00 0. -1.
          1    1    1    2  502    0 -0.92376316327E+01  0.20286155254E+02 -0.45248070411E+01  0.22745017299E+02  0.00000000000E+00 0. -1.
         22    1    1    2    0    0  0.17545287608E+02 -0.21788883716E+02  0.61799242936E+02  0.67836118685E+02  0.00000000000E+00 0. -1.
         22    1    1    2    0    0  0.95531158132E+01  0.17000525769E+02 -0.55741474071E+02  0.59054143206E+02  0.00000000000E+00 0. -1.
</event>
<event>
 6    1  0.2144783E-005  0.1191917E+03  0.7818608E-02  0.1351120E+00
          2   -1    0    0  502    0  0.00000000000E+00  0.00000000000E+00  0.28002581366E+03  0.28002581366E+03  0.00000000000E+00 0. -1.
          1   -1    0    0  501    0 -0.00000000000E+00 -0.00000000000E+00 -0.84598507992E+02  0.84598507992E+02  0.00000000000E+00 0. -1.
          2    1    1    2  501    0  0.26022739098E+02 -0.10279068952E+03  0.12403163742E+03  0.16317768194E+03  0.00000000000E+00 0. -1.
          1    1    1    2  502    0 -0.17125185651E+02  0.32022616050E+02 -0.18742059053E+01  0.36362516002E+02  0.00000000000E+00 0. -1.
         22    1    1    2    0    0 -0.24154644264E+01 -0.16326150932E+02  0.75935556319E+02  0.77708341805E+02  0.00000000000E+00 0.  1.
         22    1    1    2    0    0 -0.64820890215E+01  0.87094224403E+02 -0.26656821629E+01  0.87375781907E+02  0.00000000000E+00 0. -1.
</event>
<event>
 6    1  0.2144783E-005  0.7813417E+02  0.7818608E-02  0.1427431E+00
          2   -1    0    0  502    0  0.00000000000E+00  0.00000000000E+00  0.13605405406E+03  0.13605405406E+03  0.00000000000E+00 0.  1.
          1   -1    0    0  501    0 -0.00000000000E+00 -0.00000000000E+00 -0.12328190209E+04  0.12328190209E+04  0.00000000000E+00 0.  1.
          2    1    1    2  501    0  0.93981112004E+01 -0.11459881867E+03  0.78131083249E+02  0.13901683317E+03  0.00000000000E+00 0.  1.
          1    1    1    2  502    0 -0.28521218614E+02  0.78323634407E+02 -0.10385199004E+04  0.10418597003E+04  0.00000000000E+00 0.  1.
         22    1    1    2    0    0  0.28005185726E+02  0.43090771517E+02 -0.15663479849E+03  0.16485012925E+03  0.00000000000E+00 0.  1.
         22    1    1    2    0    0 -0.88820783126E+01 -0.68155872539E+01  0.20258648826E+02  0.23146412185E+02  0.00000000000E+00 0.  1.
</event>
<event>
 6    1  0.2144783E-005  0.1527624E+03  0.7818608E-02  0.1325981E+00
          2   -1    0    0  502    0  0.00000000000E+00  0.00000000000E+00  0.12744210346E+03  0.12744210346E+03  0.00000000000E+00 0. -1.
          1   -1    0    0  501    0 -0.00000000000E+00 -0.00000000000E+00 -0.26287857882E+03  0.26287857882E+03  0.00000000000E+00 0.  1.
          2    1    1    2  501    0  0.42457988737E+02 -0.11268267402E+03  0.33977024528E+02  0.12511796045E+03  0.00000000000E+00 0. -1.
          1    1    1    2  502    0 -0.30734555782E+02  0.37722444225E+02 -0.16424039175E+02  0.51355085242E+02  0.00000000000E+00 0.  1.
         22    1    1    2    0    0 -0.16727699446E+02  0.86009978767E+02 -0.17099487348E+03  0.19213739650E+03  0.00000000000E+00 0.  1.
         22    1    1    2    0    0  0.50042664922E+01 -0.11049748970E+02  0.18005412767E+02  0.21710240080E+02  0.00000000000E+00 0.  1.
</event>
<event>
 6    1  0.2144783E-005  0.8572695E+02  0.7818608E-02  0.1354716E+00
          2   -1    0    0  502    0  0.00000000000E+00  0.00000000000E+00  0.43522169297E+02  0.43522169297E+02  0.00000000000E+00 0. -1.
          1   -1    0    0  501    0 -0.00000000000E+00 -0.00000000000E+00 -0.14417016839E+04  0.14417016839E+04  0.00000000000E+00 0. -1.
          2    1    1    2  501    0 -0.12572741365E+03  0.92541060693E+02 -0.96718287259E+03  0.97970094391E+03  0.00000000000E+00 0. -1.
          1    1    1    2  502    0  0.10683376679E+03 -0.57595487565E+02 -0.12808364283E+03  0.17645428154E+03  0.00000000000E+00 0. -1.
         22    1    1    2    0    0  0.54202107765E+01 -0.59638896335E+02 -0.29328537297E+03  0.29933674455E+03  0.00000000000E+00 0. -1.
         22    1    1    2    0    0  0.13473436079E+02  0.24693323206E+02 -0.96276261848E+01  0.29731883168E+02  0.00000000000E+00 0. -1.
</event>
<event>
 6    1  0.2144783E-005  0.4232836E+02  0.7818608E-02  0.1528764E+00
          2   -1    0    0  502    0  0.00000000000E+00  0.00000000000E+00  0.41784599234E+02  0.41784599234E+02  0.00000000000E+00 0.  1.
          1   -1    0    0  501    0 -0.00000000000E+00 -0.00000000000E+00 -0.98731497197E+03  0.98731497197E+03  0.00000000000E+00 0.  1.
          2    1    1    2  501    0  0.12080564762E+02  0.40832190893E+02 -0.21716816251E+02  0.47799874123E+02  0.00000000000E+00 0.  1.
          1    1    1    2  502    0  0.24154407639E+02 -0.62068368719E+02 -0.79272509997E+03  0.79551807140E+03  0.00000000000E+00 0.  1.
         22    1    1    2    0    0 -0.53687639128E+01  0.18440082051E+02  0.22221135226E+02  0.29370718458E+02  0.00000000000E+00 0. -1.
         22    1    1    2    0    0 -0.30866208488E+02  0.27960957751E+01 -0.15330959174E+03  0.15641090722E+03  0.00000000000E+00 0.  1.
</event>
<event>
 6    1  0.2144783E-005  0.5055142E+02  0.7818608E-02  0.1556546E+00
          2   -1    0    0  502    0  0.00000000000E+00  0.00000000000E+00  0.98164236513E+02  0.98164236513E+02  0.00000000000E+00 0.  1.
          1   -1    0    0  501    0 -0.00000000000E+00 -0.00000000000E+00 -0.21562351700E+03  0.21562351700E+03  0.00000000000E+00 0. -1.
          2    1    1    2  501    0 -0.42758165546E+02 -0.39761866851E+02  0.28476188526E+02  0.64962759250E+02  0.00000000000E+00 0.  1.
          1    1    1    2  502    0  0.25568624338E+02  0.14499023473E+02 -0.11156360534E+03  0.11537076869E+03  0.00000000000E+00 0. -1.
         22    1    1    2    0    0  0.94197313088E+01  0.18210788631E+02 -0.82081980876E+02  0.84603875473E+02  0.00000000000E+00 0. -1.
         22    1    1    2    0    0  0.77698098990E+01  0.70520547467E+01  0.47710117199E+02  0.48850350102E+02  0.00000000000E+00 0.  1.
</event>
<event>
 6    1  0.2144783E-005  0.5554249E+02  0.7818608E-02  0.1509743E+00
          2   -1    0    0  502    0  0.00000000000E+00  0.00000000000E+00  0.24224477257E+03  0.24224477257E+03  0.00000000000E+00 0.  1.
          1   -1    0    0  501    0 -0.00000000000E+00 -0.00000000000E+00 -0.30666600186E+03  0.30666600186E+03  0.00000000000E+00 0.  1.
          2    1    1    2  501    0 -0.19807085942E+02 -0.61384652409E+02  0.17438791697E+03  0.18593424050E+03  0.00000000000E+00 0.  1.
          1    1    1    2  502    0  0.86378487165E+01  0.33041011780E+02 -0.22654768636E+03  0.22910734402E+03  0.00000000000E+00 0.  1.
         22    1    1    2    0    0  0.11426486331E+02  0.91410926004E+01  0.58626957062E+02  0.60425526544E+02  0.00000000000E+00 0.  1.
         22    1    1    2    0    0 -0.25724910550E+00  0.19202548029E+02 -0.70888416966E+02  0.73443663361E+02  0.00000000000E+00 0.  1.
</event>
<event>
 6    1  0.2144783E-005  0.7355624E+02  0.7818608E-02  0.1417570E+00
          2   -1    0    0  502    0  0.00000000000E+00  0.00000000000E+00  0.93748535342E+02  0.93748535342E+02  0.00000000000E+00 0.  1.
          1   -1    0    0  501    0 -0.00000000000E+00 -0.00000000000E+00 -0.20537697695E+03  0.20537697695E+03  0.00000000000E+00 0. -1.
          2    1    1    2  501    0 -0.22323028680E+02  0.58306886013E+02  0.19137518724E+02  0.65301264834E+02  0.00000000000E+00 0.  1.
          1    1    1    2  502    0  0.11006061366E+02 -0.42797523264E+02 -0.95020324315E+02  0.10479324128E+03  0.00000000000E+00 0. -1.
         22    1    1    2    0    0  0.18630568626E+02  0.14980244704E+02  0.40253965487E+02  0.46817598786E+02  0.00000000000E+00 0.  1.
         22    1    1    2    0    0 -0.73136013117E+01 -0.30489607453E+02 -0.75999601504E+02  0.82213407395E+02  0.00000000000E+00 0. -1.
</event>
