<event>
 6    1  0.2809573E-005  0.1274179E+03  0.7818608E-02  0.1321920E+00
          2   -1    0    0  502    0  0.00000000000E+00  0.00000000000E+00  0.84713425504E+02  0.84713425504E+02  0.00000000000E+00 0.  1.
          1   -1    0    0  501    0 -0.00000000000E+00 -0.00000000000E+00 -0.25980525520E+03  0.25980525520E+03  0.00000000000E+00 0.  1.
          2    1    1    2  501    0  0.39190709066E+02  0.16770373649E+02 -0.80952001359E+02  0.91489800707E+02  0.00000000000E+00 0.  1.
          1    1    1    2  502    0  0.45644145520E+02 -0.43237828274E+02 -0.77433794374E+02  0.99744124265E+02  0.00000000000E+00 0.  1.
         22    1    1    2    0    0 -0.16817687639E+02 -0.14896772493E+02  0.46495836028E+02  0.51639241050E+02  0.00000000000E+00 0.  1.
         22    1    1    2    0    0 -0.68017166947E+02  0.41364227119E+02 -0.63201869992E+02  0.10164551468E+03  0.00000000000E+00 0.  1.
</event>
<event>
 6    1  0.2809573E-005  0.1258126E+03  0.7818608E-02  0.1234815E+00
          2   -1    0    0  502    0  0.00000000000E+00  0.00000000000E+00  0.62615777107E+02  0.62615777107E+02  0.00000000000E+00 0.  1.
          1   -1    0    0  501    0 -0.00000000000E+00 -0.00000000000E+00 -0.62001279292E+03  0.62001279292E+03  0.00000000000E+00 0.  1.
          2    1    1    2  501    0  0.91710109343E+02  0.36606121638E+02 -0.45176831710E+02  0.10858958707E+03  0.00000000000E+00 0.  1.
          1    1    1    2  502    0  0.23694695683E+02 -0.10998042622E+02 -0.30758117887E+03  0.30868847912E+03  0.00000000000E+00 0.  1.
         22    1    1    2    0    0 -0.12989411502E+03 -0.41401839533E+02 -0.20207562109E+03  0.24376453818E+03  0.00000000000E+00 0.  1.
         22    1    1    2    0    0  0.14489309994E+02  0.15793760517E+02 -0.25633841467E+01  0.21585965664E+02  0.00000000000E+00 0.  1.
</event>
<event>
 6    1  0.2809573E-005  0.2570923E+03  0.7818608E-02  0.1189641E+00
          2   -1    0    0  502    0  0.00000000000E+00  0.00000000000E+00  0.24092324661E+03  0.24092324661E+03  0.00000000000E+00 0.  1.
          1   -1    0    0  501    0 -0.00000000000E+00 -0.00000000000E+00 -0.50713781713E+03  0.50713781713E+03  0.00000000000E+00 0. -1.
          2    1    1    2  501    0 -0.46544144391E+02  0.12855459646E+03  0.23485821462E+02  0.13872355769E+03  0.00000000000E+00 0.  1.
          1    1    1    2  502    0  0.14560419535E+03 -0.12481507786E+03 -0.38138964391E+03  0.42689278027E+03  0.00000000000E+00 0. -1.
         22    1    1    2    0    0 -0.96932796785E+02 -0.41449291386E+02  0.29139417892E+02  0.10937603268E+03  0.00000000000E+00 0. -1.
         22    1    1    2    0    0 -0.21272541760E+01  0.37709772779E+02  0.62549834044E+02  0.73068693106E+02  0.00000000000E+00 0.  1.
</event>
<event>
 6    1  0.2809573E-005  0.1093520E+03  0.7818608E-02  0.1322188E+00
          2   -1    0    0  502    0  0.00000000000E+00  0.00000000000E+00  0.10577355464E+03  0.10577355464E+03  0.00000000000E+00 0.  1.
          1   -1    0    0  501    0 -0.00000000000E+00 -0.00000000000E+00 -0.18818955024E+03  0.18818955024E+03  0.00000000000E+00 0.  1.
          2    1    1    2  501    0  0.30934849486E+02  0.63368375837E+01 -0.13639877756E+02  0.34397190125E+02  0.00000000000E+00 0.  1.
          1    1    1    2  502    0 -0.90417242920E+02  0.47428360273E+02 -0.50795274255E+02  0.11403897168E+03  0.00000000000E+00 0.  1.
         22    1    1    2    0    0  0.80477783036E+02 -0.25295964417E+02 -0.49787847948E+02  0.97956057400E+02  0.00000000000E+00 0.  1.
         22    1    1    2    0    0 -0.20995389602E+02 -0.28469233440E+02  0.31807004356E+02  0.47570885668E+02  0.00000000000E+00 0.  1.
</event>
<event>
 6    1  0.2809573E-005  0.7995437E+02  0.7818608E-02  0.1334299E+00
          2   -1    0    0  502    0  0.00000000000E+00  0.00000000000E+00  0.21272288488E+03  0.21272288488E+03  0.00000000000E+00 0. -1.
          1   -1    0    0  501    0 -0.00000000000E+00 -0.00000000000E+00 -0.62157294568E+02  0.62157294568E+02  0.00000000000E+00 0. -1.
          2    1    1    2  501    0 -0.33306546103E+02 -0.19091429643E+02  0.25124421311E+01  0.38472341553E+02  0.00000000000E+00 0. -1.
          1    1    1    2  502    0  0.35666211814E+02  0.25624147468E+02  0.31631503437E+01  0.44030456717E+02  0.00000000000E+00 0. -1.
         22    1    1    2    0    0  0.44220605121E+02 -0.56080282894E+01  0.49059431608E+01  0.44843953626E+02  0.00000000000E+00 0. -1.
         22    1    1    2    0    0 -0.46580270831E+02 -0.92468953608E+00  0.13998405467E+03  0.14753342755E+03  0.00000000000E+00 0. -1.
</event>
<event>
 6    1  0.4125531E-005  0.1206762E+04  0.7818608E-02  0.1048642E+00
          2   -1    0    0  502    0  0.00000000000E+00  0.00000000000E+00  0.91858835221E+03  0.91858835221E+03  0.00000000000E+00 0. -1.
          1   -1    0    0  501    0 -0.00000000000E+00 -0.00000000000E+00 -0.94861390649E+03  0.94861390649E+03  0.00000000000E+00 0. -1.
          2    1    1    2  501    0 -0.25529690609E+03  0.43767915887E+03 -0.16775702588E+03  0.53374336165E+03  0.00000000000E+00 0. -1.
          1    1    1    2  502    0  0.64901530398E+02 -0.96707423843E+02 -0.53381218792E+03  0.54636982571E+03  0.00000000000E+00 0. -1.
         22    1    1    2    0    0 -0.12655225707E+02  0.54887045689E+00  0.14507144835E+02  0.19259108176E+02  0.00000000000E+00 0. -1.
         22    1    1    2    0    0  0.20305060140E+03 -0.34152060548E+03  0.65703651469E+03  0.76782996317E+03  0.00000000000E+00 0. -1.
</event>
<event>
 6    1  0.2809573E-005  0.9025744E+02  0.7818608E-02  0.1372557E+00
          2   -1    0    0  502    0  0.00000000000E+00  0.00000000000E+00  0.32208532500E+02  0.32208532500E+02  0.00000000000E+00 0.  1.
          1   -1    0    0  501    0 -0.00000000000E+00 -0.00000000000E+00 -0.85049015775E+03  0.85049015775E+03  0.00000000000E+00 0.  1.
          2    1    1    2  501    0 -0.22899001471E+02  0.36852918760E+02 -0.89455157795E+02  0.99421965106E+02  0.00000000000E+00 0.  1.
          1    1    1    2  502    0  0.28619819748E+02 -0.74329239010E+02 -0.58589454277E+03  0.59128364184E+03  0.00000000000E+00 0.  1.
         22    1    1    2    0    0  0.71734570478E+01  0.60668671368E+02 -0.15210634173E+03  0.16391609246E+03  0.00000000000E+00 0.  1.
         22    1    1    2    0    0 -0.12894275325E+02 -0.23192351118E+02  0.91744170545E+01  0.28076990844E+02  0.00000000000E+00 0.  1.
</event>
<event>
 6    1  0.2809573E-005  0.2261641E+03  0.7818608E-02  0.1217818E+00
          2   -1    0    0  502    0  0.00000000000E+00  0.00000000000E+00  0.10859293690E+03  0.10859293690E+03  0.00000000000E+00 0. -1.
          1   -1    0    0  501    0 -0.00000000000E+00 -0.00000000000E+00 -0.24279858017E+04  0.24279858017E+04  0.00000000000E+00 0. -1.
          2    1    1    2  501    0 -0.44749602473E+02 -0.11949084727E+03 -0.15042059231E+03  0.19724843242E+03  0.00000000000E+00 0. -1.
          1    1    1    2  502    0  0.11326902753E+03  0.15103131104E+03 -0.21825610850E+04  0.21907106654E+04  0.00000000000E+00 0. -1.
         22    1    1    2    0    0 -0.87112431096E+02 -0.55337442255E+02 -0.18175255727E+02  0.10479097331E+03  0.00000000000E+00 0. -1.
         22    1    1    2    0    0  0.18593006037E+02  0.23796978483E+02  0.31764068280E+02  0.43828667469E+02  0.00000000000E+00 0. -1.
</event>
<event>
 6    1  0.2809573E-005  0.1244266E+03  0.7818608E-02  0.1238187E+00
          2   -1    0    0  502    0  0.00000000000E+00  0.00000000000E+00  0.35324667888E+03  0.35324667888E+03  0.00000000000E+00 0.  1.
          1   -1    0    0  501    0 -0.00000000000E+00 -0.00000000000E+00 -0.57312118437E+03  0.57312118437E+03  0.00000000000E+00 0.  1.
          2    1    1    2  501    0 -0.98813247065E+02 -0.82682289800E+02  0.73265445114E+02  0.14821688261E+03  0.00000000000E+00 0.  1.
          1    1    1    2  502    0  0.44090125797E+02  0.40105848349E+02 -0.51337077510E+03  0.51681908923E+03  0.00000000000E+00 0.  1.
         22    1    1    2    0    0  0.77007747921E+02  0.70287436788E+02  0.17618313700E+03  0.20472179848E+03  0.00000000000E+00 0.  1.
         22    1    1    2    0    0 -0.22284626653E+02 -0.27710995336E+02  0.44047687502E+02  0.56610092933E+02  0.00000000000E+00 0.  1.
</event>
<event>
 6    1  0.2809573E-005  0.2183136E+03  0.7818608E-02  0.1206933E+00
          2   -1    0    0  502    0  0.00000000000E+00  0.00000000000E+00  0.14520116349E+04  0.14520116349E+04  0.00000000000E+00 0. -1.
          1   -1    0    0  501    0 -0.00000000000E+00 -0.00000000000E+00 -0.87735482535E+02  0.87735482535E+02  0.00000000000E+00 0. -1.
          2    1    1    2  501    0  0.13574935437E+03 -0.41469898764E+02  0.68780779811E+01  0.14210892889E+03  0.00000000000E+00 0. -1.
          1    1    1    2  502    0 -0.12842231311E+03  0.22078156484E+02  0.11294465858E+04  0.11369385760E+04  0.00000000000E+00 0. -1.
         22    1    1    2    0    0  0.27647666470E+02 -0.32043526623E+02  0.17169079783E+03  0.17683017593E+03  0.00000000000E+00 0. -1.
         22    1    1    2    0    0 -0.34974707728E+02  0.51435268904E+02  0.56260690757E+02  0.83869436580E+02  0.00000000000E+00 0. -1.
</event>
<event>
 6    1  0.2809573E-005  0.1419730E+03  0.7818608E-02  0.1264617E+00
          2   -1    0    0  502    0  0.00000000000E+00  0.00000000000E+00  0.57396980732E+03  0.57396980732E+03  0.00000000000E+00 0. -1.
          1   -1    0    0  501    0 -0.00000000000E+00 -0.00000000000E+00 -0.57231223765E+03  0.57231223765E+03  0.00000000000E+00 0.  1.
          2    1    1    2  501    0  0.74220315697E+02  0.18901402198E+02  0.10130804907E+03  0.12700094123E+03  0.00000000000E+00 0. -1.
          1    1    1    2  502    0 -0.10281432432E+03 -0.43965607175E+02 -0.54368089837E+03  0.55506096886E+03  0.00000000000E+00 0.  1.
         22    1    1    2    0    0  0.73964595120E+02  0.38315895278E+02  0.33831644545E+03  0.34842055970E+03  0.00000000000E+00 0. -1.
         22    1    1    2    0    0 -0.45370586500E+02 -0.13251690301E+02  0.10571397352E+03  0.11579957519E+03  0.00000000000E+00 0. -1.
</event>
<event>
 6    1  0.2809573E-005  0.2310831E+03  0.7818608E-02  0.1178908E+00
          2   -1    0    0  502    0  0.00000000000E+00  0.00000000000E+00  0.17286956745E+03  0.17286956745E+03  0.00000000000E+00 0. -1.
          1   -1    0    0  501    0 -0.00000000000E+00 -0.00000000000E+00 -0.51072082229E+03  0.51072082229E+03  0.00000000000E+00 0. -1.
          2    1    1    2  501    0 -0.19091390378E+02 -0.19096680036E+03 -0.19126159353E+03  0.27094980566E+03  0.00000000000E+00 0. -1.
          1    1    1    2  502    0  0.65222996975E+02  0.21785341639E+03 -0.16280067973E+03  0.27967518961E+03  0.00000000000E+00 0. -1.
         22    1    1    2    0    0 -0.65468673444E+02  0.90137240947E+01  0.47652096336E+02  0.81474638445E+02  0.00000000000E+00 0. -1.
         22    1    1    2    0    0  0.19337066847E+02 -0.35900340120E+02 -0.31441077912E+02  0.51490756018E+02  0.00000000000E+00 0. -1.
</event>
<event>
 6    1  0.2809573E-005  0.5512773E+02  0.7818608E-02  0.1444624E+00
          2   -1    0    0  502    0  0.00000000000E+00  0.00000000000E+00  0.33685593549E+02  0.33685593549E+02  0.00000000000E+00 0. -1.
          1   -1    0    0  501    0 -0.00000000000E+00 -0.00000000000E+00 -0.55511543966E+03  0.55511543966E+03  0.00000000000E+00 0. -1.
          2    1    1    2  501    0 -0.18095775121E+02  0.97269638661E+01 -0.39593418884E+02  0.44606162379E+02  0.00000000000E+00 0. -1.
          1    1    1    2  502    0  0.32303187401E+02 -0.41389751686E+02 -0.36158599130E+03  0.36537793662E+03  0.00000000000E+00 0. -1.
         22    1    1    2    0    0 -0.41204486954E+02  0.53421462489E+01 -0.13274552380E+03  0.13909609038E+03  0.00000000000E+00 0. -1.
         22    1    1    2    0    0  0.26997074674E+02  0.26320641571E+02  0.12495087872E+02  0.39720843830E+02  0.00000000000E+00 0. -1.
</event>
<event>
 6    1  0.2809573E-005  0.1017944E+03  0.7818608E-02  0.1395984E+00
          2   -1    0    0  502    0  0.00000000000E+00  0.00000000000E+00  0.48585647036E+02  0.48585647036E+02  0.00000000000E+00 0. -1.
          1   -1    0    0  501    0 -0.00000000000E+00 -0.00000000000E+00 -0.32175609290E+03  0.32175609290E+03  0.00000000000E+00 0.  1.
          2    1    1    2  501    0 -0.46852012848E+02 -0.96690449740E+01 -0.63306952327E+02  0.79349680224E+02  0.00000000000E+00 0. -1.
          1    1    1    2  502    0  0.88236587209E+01 -0.22638470975E+02 -0.13997532275E+03  0.14206846343E+03  0.00000000000E+00 0.  1.
         22    1    1    2    0    0  0.45305923167E+02  0.21956768857E+02 -0.10236118714E+03  0.11407251643E+03  0.00000000000E+00 0. -1.
         22    1    1    2    0    0 -0.72775690394E+01  0.10350747092E+02  0.32473016349E+02  0.34851079858E+02  0.00000000000E+00 0. -1.
</event>
<event>
 6    1  0.2888022E-005  0.4305222E+02  0.7818608E-02  0.1518407E+00
          2   -1    0    0  502    0  0.00000000000E+00  0.00000000000E+00  0.17086122539E+03  0.17086122539E+03  0.00000000000E+00 0.  1.
          1   -1    0    0  501    0 -0.00000000000E+00 -0.00000000000E+00 -0.38983531073E+03  0.38983531073E+03  0.00000000000E+00 0.  1.
          2    1    1    2  501    0  0.25010309734E+02 -0.22357872647E+02 -0.28346034557E+02  0.43919104469E+02  0.00000000000E+00 0.  1.
          1    1    1    2  502    0 -0.92098110734E+01  0.41293158897E+02 -0.32891989979E+03  0.33162968213E+03  0.00000000000E+00 0.  1.
         22    1    1    2    0    0  0.98469460232E+01 -0.78073685413E+01 -0.20428372459E+02  0.23984072858E+02  0.00000000000E+00 0. -1.
         22    1    1    2    0    0 -0.25647444683E+02 -0.11127917709E+02  0.15872022146E+03  0.16116367666E+03  0.00000000000E+00 0.  1.
</event>
<event>
 6    1  0.2809573E-005  0.1611712E+03  0.7818608E-02  0.1280070E+00
          2   -1    0    0  502    0  0.00000000000E+00  0.00000000000E+00  0.45140848721E+03  0.45140848721E+03  0.00000000000E+00 0.  1.
          1   -1    0    0  501    0 -0.00000000000E+00 -0.00000000000E+00 -0.66448309335E+03  0.66448309335E+03  0.00000000000E+00 0.  1.
          2    1    1    2  501    0  0.70455663957E+02 -0.12563206188E+03  0.38560327478E+03  0.41162762429E+03  0.00000000000E+00 0.  1.
          1    1    1    2  502    0 -0.91099317843E+02  0.13035238591E+03 -0.54415062867E+03  0.56691334162E+03  0.00000000000E+00 0.  1.
         22    1    1    2    0    0  0.38657895771E+00 -0.17569837700E+02  0.37945200262E+02  0.41817303392E+02  0.00000000000E+00 0. -1.
         22    1    1    2    0    0  0.20257074928E+02  0.12849513668E+02 -0.92472452506E+02  0.95533311252E+02  0.00000000000E+00 0.  1.
</event>
<event>
 6    1  0.2809573E-005  0.1538045E+03  0.7818608E-02  0.1197824E+00
          2   -1    0    0  502    0  0.00000000000E+00  0.00000000000E+00  0.12385628306E+03  0.12385628306E+03  0.00000000000E+00 0.  1.
          1   -1    0    0  501    0 -0.00000000000E+00 -0.00000000000E+00 -0.13079614472E+04  0.13079614472E+04  0.00000000000E+00 0.  1.
          2    1    1    2  501    0  0.60779550963E+01  0.11541705991E+03 -0.71278087470E+02  0.13578882505E+03  0.00000000000E+00 0.  1.
          1    1    1    2  502    0 -0.12497576388E+03 -0.48633142778E+01 -0.10812521940E+04  0.10884617129E+04  0.00000000000E+00 0.  1.
         22    1    1    2    0    0  0.20995817443E+02  0.28267078441E+02 -0.74651682319E+01  0.35994177451E+02  0.00000000000E+00 0.  1.
         22    1    1    2    0    0  0.97901991337E+02 -0.13882082407E+03 -0.24109714448E+02  0.17157301488E+03  0.00000000000E+00 0.  1.
</event>
<event>
 6    1  0.2809573E-005  0.1138074E+03  0.7818608E-02  0.1275620E+00
          2   -1    0    0  502    0  0.00000000000E+00  0.00000000000E+00  0.33009677510E+03  0.33009677510E+03  0.00000000000E+00 0.  1.
          1   -1    0    0  501    0 -0.00000000000E+00 -0.00000000000E+00 -0.13434084898E+03  0.13434084898E+03  0.00000000000E+00 0.  1.
          2    1    1    2  501    0  0.53670689918E+02  0.28485331458E+02  0.10434038453E+03  0.12074300356E+03  0.00000000000E+00 0.  1.
          1    1    1    2  502    0 -0.96791075444E+02 -0.10968201507E+02 -0.81769774943E+02  0.12718140518E+03  0.00000000000E+00 0.  1.
         22    1    1    2    0    0  0.40301907034E+02 -0.62272258779E+02  0.14681827001E+03  0.16449219535E+03  0.00000000000E+00 0.  1.
         22    1    1    2    0    0  0.28184784922E+01  0.44755128828E+02  0.26367046536E+02  0.52021019986E+02  0.00000000000E+00 0. -1.
</event>
<event>
 6    1  0.2809573E-005  0.4260668E+02  0.7818608E-02  0.1494714E+00
          2   -1    0    0  502    0  0.00000000000E+00  0.00000000000E+00  0.54818928428E+02  0.54818928428E+02  0.00000000000E+00 0.  1.
          1   -1    0    0  501    0 -0.00000000000E+00 -0.00000000000E+00 -0.13118271499E+04  0.13118271499E+04  0.00000000000E+00 0.  1.
          2    1    1    2  501    0 -0.21644165051E+02 -0.29233558672E+02 -0.97879537401E+02  0.10441970444E+03  0.00000000000E+00 0.  1.
          1    1    1    2  502    0  0.31984698905E+02  0.19315686376E+01 -0.11356969828E+04  0.11361489289E+04  0.00000000000E+00 0.  1.
         22    1    1    2    0    0 -0.60352556722E+01  0.39475886216E+02  0.42835890544E+02  0.58563499061E+02  0.00000000000E+00 0.  1.
         22    1    1    2    0    0 -0.43052781822E+01 -0.12173896181E+02 -0.66267591743E+02  0.67513945847E+02  0.00000000000E+00 0.  1.
</event>
<event>
 6    1  0.2809573E-005  0.8991506E+02  0.7818608E-02  0.1308322E+00
          2   -1    0    0  502    0  0.00000000000E+00  0.00000000000E+00  0.89206646438E+02  0.89206646438E+02  0.00000000000E+00 0.  1.
          1   -1    0    0  501    0 -0.00000000000E+00 -0.00000000000E+00 -0.13146551919E+04  0.13146551919E+04  0.00000000000E+00 0.  1.
          2    1    1    2  501    0 -0.27048403292E+02  0.18641792996E+02 -0.24229437924E+02  0.40819091476E+02  0.00000000000E+00 0.  1.
          1    1    1    2  502    0 -0.14990036526E+02 -0.14927461078E+02 -0.12292889838E+04  0.12294709984E+04  0.00000000000E+00 0.  1.
         22    1    1    2    0    0  0.84138268832E+02 -0.18149825227E+02  0.17739034803E+02  0.87882522685E+02  0.00000000000E+00 0.  1.
         22    1    1    2    0    0 -0.42099829014E+02  0.14435493309E+02  0.10330841407E+02  0.45689225800E+02  0.00000000000E+00 0.  1.
</event>
<event>
 6    1  0.2809573E-005  0.1860796E+03  0.7818608E-02  0.1162784E+00
          2   -1    0    0  502    0  0.00000000000E+00  0.00000000000E+00  0.87260046642E+03  0.87260046642E+03  0.00000000000E+00 0. -1.
          1   -1    0    0  501    0 -0.00000000000E+00 -0.00000000000E+00 -0.10923481520E+04  0.10923481520E+04  0.00000000000E+00 0.  1.
          2    1    1    2  501    0 -0.12900485237E+03 -0.31141603496E+02  0.25403130399E+03  0.28660766705E+03  0.00000000000E+00 0. -1.
          1    1    1    2  502    0 -0.67172846272E+02 -0.32699079368E+02 -0.10500070048E+04  0.10526614513E+04  0.00000000000E+00 0.  1.
         22    1    1    2    0    0  0.20852687934E+03  0.79734463024E+02  0.53786322062E+03  0.58235546541E+03  0.00000000000E+00 0. -1.
         22    1    1    2    0    0 -0.12349180695E+02 -0.15893780160E+02  0.38364794588E+02  0.43324034615E+02  0.00000000000E+00 0. -1.
</event>
<event>
 6    1  0.2809573E-005  0.1130630E+03  0.7818608E-02  0.1355855E+00
          2   -1    0    0  502    0  0.00000000000E+00  0.00000000000E+00  0.13124262773E+03  0.13124262773E+03  0.00000000000E+00 0. -1.
          1   -1    0    0  501    0 -0.00000000000E+00 -0.00000000000E+00 -0.10862191502E+03  0.10862191502E+03  0.00000000000E+00 0. -1.
          2    1    1    2  501    0 -0.13488444469E+02  0.48233495566E+02 -0.35324024553E+02  0.61287804164E+02  0.00000000000E+00 0. -1.
          1    1    1    2  502    0 -0.27086672753E+02  0.43648831659E+01 -0.41965840525E+01  0.27755204261E+02  0.00000000000E+00 0. -1.
         22    1    1    2    0    0  0.17600348415E+02  0.29301326543E+01  0.84755785938E+02  0.86613516218E+02  0.00000000000E+00 0. -1.
         22    1    1    2    0    0  0.22974768808E+02 -0.55528511386E+02 -0.22614464621E+02  0.64208018102E+02  0.00000000000E+00 0. -1.
</event>
<event>
 6    1  0.2809573E-005  0.2839216E+03  0.7818608E-02  0.1206902E+00
          2   -1    0    0  502    0  0.00000000000E+00  0.00000000000E+00  0.19686102357E+03  0.19686102357E+03  0.00000000000E+00 0. -1.
          1   -1    0    0  501    0 -0.00000000000E+00 -0.00000000000E+00 -0.87457073614E+03  0.87457073614E+03  0.00000000000E+00 0.  1.
          2    1    1    2  501    0  0.17000837308E+02  0.18823509930E+02 -0.16109640298E+03  0.16308097390E+03  0.00000000000E+00 0. -1.
          1    1    1    2  502    0  0.89532932918E+02 -0.26303917513E+02 -0.67540383106E+03  0.68181990083E+03  0.00000000000E+00 0.  1.
         22    1    1    2    0    0 -0.11531687427E+03  0.24613925752E+02  0.73169454451E+02  0.13877174027E+03  0.00000000000E+00 0. -1.
         22    1    1    2    0    0  0.87831040466E+01 -0.17133518170E+02  0.85621067027E+02  0.87759144711E+02  0.00000000000E+00 0. -1.
</event>
<event>
 6    1  0.2809573E-005  0.8996885E+02  0.7818608E-02  0.1429299E+00
          2   -1    0    0  502    0  0.00000000000E+00  0.00000000000E+00  0.18130616078E+02  0.18130616078E+02  0.00000000000E+00 0. -1.
          1   -1    0    0  501    0 -0.00000000000E+00 -0.00000000000E+00 -0.18233285601E+04  0.18233285601E+04  0.00000000000E+00 0.  1.
          2    1    1    2  501    0 -0.20741494758E+02  0.22748459628E+02 -0.67903203335E+02  0.74555664060E+02  0.00000000000E+00 0. -1.
          1    1    1    2  502    0 -0.23752648205E+02 -0.25538715002E+02 -0.14414846147E+04  0.14419064841E+04  0.00000000000E+00 0.  1.
         22    1    1    2    0    0 -0.10641238199E+02 -0.24414498971E+01  0.96412336593E+01  0.14565370386E+02  0.00000000000E+00 0. -1.
         22    1    1    2    0    0  0.55135381162E+02  0.52317052716E+01 -0.30545135958E+03  0.31043165764E+03  0.00000000000E+00 0. -1.
</event>
<event>
 6    1  0.2809573E-005  0.1286913E+03  0.7818608E-02  0.1290250E+00
          2   -1    0    0  502    0  0.00000000000E+00  0.00000000000E+00  0.54771552005E+02  0.54771552005E+02  0.00000000000E+00 0.  1.
          1   -1    0    0  501    0 -0.00000000000E+00 -0.00000000000E+00 -0.91263984879E+03  0.91263984879E+03  0.00000000000E+00 0.  1.
          2    1    1    2  501    0 -0.33669820775E+02 -0.29693306754E+01 -0.77644929339E+02  0.84682990074E+02  0.00000000000E+00 0.  1.
          1    1    1    2  502    0  0.24640054092E+02 -0.22632600926E+01 -0.74839155818E+03  0.74880049343E+03  0.00000000000E+00 0.  1.
         22    1    1    2    0    0 -0.13207763895E+02  0.22728934409E+02  0.44964319586E+02  0.52084926057E+02  0.00000000000E+00 0.  1.
         22    1    1    2    0    0  0.22237530578E+02 -0.17496343641E+02 -0.76796128860E+02  0.81842991238E+02  0.00000000000E+00 0.  1.
</event>
<event>
 6    1  0.2809573E-005  0.8937438E+02  0.7818608E-02  0.1325034E+00
          2   -1    0    0  502    0  0.00000000000E+00  0.00000000000E+00  0.50404764717E+03  0.50404764717E+03  0.00000000000E+00 0. -1.
          1   -1    0    0  501    0 -0.00000000000E+00 -0.00000000000E+00 -0.37550800065E+03  0.37550800065E+03  0.00000000000E+00 0. -1.
          2    1    1    2  501    0  0.35916709533E+00 -0.26992051221E+02  0.67941172555E+02  0.73107474024E+02  0.00000000000E+00 0. -1.
          1    1    1    2  502    0  0.21081334358E+02  0.15529852914E+02 -0.36262164680E+03  0.36356575433E+03  0.00000000000E+00 0. -1.
         22    1    1    2    0    0  0.53593940618E+02  0.10590863698E+02  0.20331716573E+03  0.21052873140E+03  0.00000000000E+00 0. -1.
         22    1    1    2    0    0 -0.75034442071E+02  0.87133460880E+00  0.21990295504E+03  0.23235368806E+03  0.00000000000E+00 0. -1.
</event>
<event>
 6    1  0.2809573E-005  0.8304055E+02  0.7818608E-02  0.1325097E+00
          2   -1    0    0  502    0  0.00000000000E+00  0.00000000000E+00  0.19656077005E+02  0.19656077005E+02  0.00000000000E+00 0.  1.
          1   -1    0    0  501    0 -0.00000000000E+00 -0.00000000000E+00 -0.84538287425E+03  0.84538287425E+03  0.00000000000E+00 0. -1.
          2    1    1    2  501    0  0.16943752461E+02  0.17391902470E+02 -0.23989422629E+02  0.34132996017E+02  0.00000000000E+00 0.  1.
          1    1    1    2  502    0  0.39188540249E+02  0.41644039269E+01 -0.46668462074E+03  0.46834561937E+03  0.00000000000E+00 0. -1.
         22    1    1    2    0    0  0.31279993854E+02  0.23026989338E+02 -0.12115588872E+03  0.12722982994E+03  0.00000000000E+00 0.  1.
         22    1    1    2    0    0 -0.87412286563E+02 -0.44583295735E+02 -0.21389686515E+03  0.23533050593E+03  0.00000000000E+00 0. -1.
</event>
<event>
 6    1  0.2809573E-005  0.1114230E+03  0.7818608E-02  0.1334973E+00
          2   -1    0    0  502    0  0.00000000000E+00  0.00000000000E+00  0.73500388849E+02  0.73500388849E+02  0.00000000000E+00 0.  1.
          1   -1    0    0  501    0 -0.00000000000E+00 -0.00000000000E+00 -0.28853058822E+03  0.28853058822E+03  0.00000000000E+00 0. -1.
          2    1    1    2  501    0 -0.23146594917E+02  0.43818331800E+02 -0.17635904377E+01  0.49587511626E+02  0.00000000000E+00 0.  1.
          1    1    1    2  502    0  0.37660854813E+02 -0.50449151113E+01 -0.17458455469E+03  0.17867164826E+03  0.00000000000E+00 0. -1.
         22    1    1    2    0    0  0.26212636877E+02  0.50195363003E+01  0.31683045140E+02  0.41425999397E+02  0.00000000000E+00 0.  1.
         22    1    1    2    0    0 -0.40726896772E+02 -0.43792952989E+02 -0.70365099382E+02  0.92345817790E+02  0.00000000000E+00 0.  1.
</event>
<event>
 6    1  0.2809573E-005  0.4919503E+02  0.7818608E-02  0.1451113E+00
          2   -1    0    0  502    0  0.00000000000E+00  0.00000000000E+00  0.11887989095E+03  0.11887989095E+03  0.00000000000E+00 0.  1.
          1   -1    0    0  501    0 -0.00000000000E+00 -0.00000000000E+00 -0.16506069880E+03  0.16506069880E+03  0.00000000000E+00 0.  1.
          2    1    1    2  501    0  0.18626540854E+02  0.10347497484E+02 -0.38619459967E+02  0.44107611775E+02  0.00000000000E+00 0.  1.
          1    1    1    2  502    0  0.44857827392E+01  0.20323620665E+02 -0.85105881742E+02  0.87613828308E+02  0.00000000000E+00 0.  1.
         22    1    1    2    0    0 -0.38983195041E+02 -0.30160859952E+02  0.10753036954E+03  0.11828840747E+03  0.00000000000E+00 0.  1.
         22    1    1    2    0    0  0.15870871448E+02 -0.51025819658E+00 -0.29985835689E+02  0.33930742195E+02  0.00000000000E+00 0.  1.
</event>
<event>
 6    1  0.2809573E-005  0.9789329E+02  0.7818608E-02  0.1369136E+00
          2   -1    0    0  502    0  0.00000000000E+00  0.00000000000E+00  0.21906147933E+03  0.21906147933E+03  0.00000000000E+00 0.  1.
          1   -1    0    0  501    0 -0.00000000000E+00 -0.00000000000E+00 -0.63421377851E+03  0.63421377851E+03  0.00000000000E+00 0.  1.
          2    1    1    2  501    0 -0.20771212448E+02 -0.80512068209E+01  0.33148108950E+02  0.39938231368E+02  0.00000000000E+00 0.  1.
          1    1    1    2  502    0  0.90228232536E+02  0.11988128604E+02 -0.59947370045E+03  0.60634442910E+03  0.00000000000E+00 0.  1.
         22    1    1    2    0    0 -0.72387832440E+02 -0.25748997874E+02  0.27853054617E+02  0.81723936691E+02  0.00000000000E+00 0.  1.
         22    1    1    2    0    0  0.29308123518E+01  0.21812076091E+02  0.12332023770E+03  0.12526866068E+03  0.00000000000E+00 0.  1.
</event>
<event>
 6    1  0.2809573E-005  0.2223771E+03  0.7818608E-02  0.1179594E+00
          2   -1    0    0  502    0  0.00000000000E+00  0.00000000000E+00  0.17192483124E+03  0.17192483124E+03  0.00000000000E+00 0. -1.
          1   -1    0    0  501    0 -0.00000000000E+00 -0.00000000000E+00 -0.82156489101E+03  0.82156489101E+03  0.00000000000E+00 0. -1.
          2    1    1    2  501    0 -0.19418410985E+03  0.67048075661E+02 -0.56068123749E+03  0.59713178030E+03  0.00000000000E+00 0. -1.
          1    1    1    2  502    0  0.23585249517E+03 -0.13470274733E+02 -0.10059956566E+03  0.25676471796E+03  0.00000000000E+00 0. -1.
         22    1    1    2    0    0 -0.32292527243E+02 -0.65491870943E+02  0.56445144211E+02  0.92293265087E+02  0.00000000000E+00 0. -1.
         22    1    1    2    0    0 -0.93758580817E+01  0.11914070015E+02 -0.44804400827E+02  0.47299958906E+02  0.00000000000E+00 0.  1.
</event>
<event>
 6    1  0.2809573E-005  0.9548812E+02  0.7818608E-02  0.1318797E+00
          2   -1    0    0  502    0  0.00000000000E+00  0.00000000000E+00  0.47027830041E+02  0.47027830041E+02  0.00000000000E+00 0. -1.
          1   -1    0    0  501    0 -0.00000000000E+00 -0.00000000000E+00 -0.78344491455E+03  0.78344491455E+03  0.00000000000E+00 0. -1.
          2    1    1    2  501    0 -0.20475300867E+02  0.13211751872E+02 -0.47876742666E+03  0.47938714748E+03  0.00000000000E+00 0. -1.
          1    1    1    2  502    0 -0.41789272913E+00  0.79036309649E+02 -0.12145965782E+03  0.14491156391E+03  0.00000000000E+00 0. -1.
         22    1    1    2    0    0  0.22326067914E+02 -0.35824388150E+02 -0.14320608742E+03  0.14929776814E+03  0.00000000000E+00 0. -1.
         22    1    1    2    0    0 -0.14328743173E+01 -0.56423673371E+02  0.70160874001E+01  0.56876265066E+02  0.00000000000E+00 0. -1.
</event>
<event>
 6    1  0.2809573E-005  0.8891704E+02  0.7818608E-02  0.1306898E+00
          2   -1    0    0  502    0  0.00000000000E+00  0.00000000000E+00  0.29373213829E+03  0.29373213829E+03  0.00000000000E+00 0. -1.
          1   -1    0    0  501    0 -0.00000000000E+00 -0.00000000000E+00 -0.26552653149E+03  0.26552653149E+03  0.00000000000E+00 0. -1.
          2    1    1    2  501    0 -0.82385557890E+02 -0.73523350746E+02 -0.12865701198E+03  0.16954553957E+03  0.00000000000E+00 0. -1.
          1    1    1    2  502    0  0.26326733828E+02  0.29925089949E+02 -0.93584118342E+02  0.10171821434E+03  0.00000000000E+00 0. -1.
         22    1    1    2    0    0  0.68060079704E+02  0.51056077453E+02  0.25821463249E+03  0.27187073017E+03  0.00000000000E+00 0. -1.
         22    1    1    2    0    0 -0.12001255641E+02 -0.74578166560E+01 -0.77678953580E+01  0.16124185701E+02  0.00000000000E+00 0. -1.
</event>
<event>
 6    1  0.2809573E-005  0.1382176E+03  0.7818608E-02  0.1233914E+00
          2   -1    0    0  502    0  0.00000000000E+00  0.00000000000E+00  0.24623125419E+03  0.24623125419E+03  0.00000000000E+00 0.  1.
          1   -1    0    0  501    0 -0.00000000000E+00 -0.00000000000E+00 -0.14564707405E+03  0.14564707405E+03  0.00000000000E+00 0.  1.
          2    1    1    2  501    0 -0.86428594558E+02 -0.77533963878E+02  0.77636974037E+01  0.11636877807E+03  0.00000000000E+00 0.  1.
          1    1    1    2  502    0  0.30602191919E+02  0.11047473460E+03  0.68485306401E+02  0.13353425901E+03  0.00000000000E+00 0.  1.
         22    1    1    2    0    0  0.85282070488E+02 -0.41110491207E+02  0.45255629582E+02  0.10493415099E+03  0.00000000000E+00 0.  1.
         22    1    1    2    0    0 -0.29455667849E+02  0.81697204829E+01 -0.20920453250E+02  0.37041140174E+02  0.00000000000E+00 0.  1.
</event>
<event>
 6    1  0.2809573E-005  0.1883075E+03  0.7818608E-02  0.1267460E+00
          2   -1    0    0  502    0  0.00000000000E+00  0.00000000000E+00  0.12772909545E+03  0.12772909545E+03  0.00000000000E+00 0.  1.
          1   -1    0    0  501    0 -0.00000000000E+00 -0.00000000000E+00 -0.41826828023E+03  0.41826828023E+03  0.00000000000E+00 0.  1.
          2    1    1    2  501    0  0.33215621548E+02  0.24883146636E+01 -0.73632482974E+02  0.80815912874E+02  0.00000000000E+00 0.  1.
          1    1    1    2  502    0  0.71282343866E+02 -0.63806673292E+01 -0.28170545755E+03  0.29065417643E+03  0.00000000000E+00 0.  1.
         22    1    1    2    0    0 -0.12064712095E+03  0.14214345214E+02  0.16540627906E+02  0.12260247866E+03  0.00000000000E+00 0.  1.
         22    1    1    2    0    0  0.16149155534E+02 -0.10321992549E+02  0.48258127836E+02  0.51924807721E+02  0.00000000000E+00 0.  1.
</event>
<event>
 6    1  0.2809573E-005  0.6064638E+02  0.7818608E-02  0.1449285E+00
          2   -1    0    0  502    0  0.00000000000E+00  0.00000000000E+00  0.47462955978E+02  0.47462955978E+02  0.00000000000E+00 0. -1.
          1   -1    0    0  501    0 -0.00000000000E+00 -0.00000000000E+00 -0.27183777801E+04  0.27183777801E+04  0.00000000000E+00 0. -1.
          2    1    1    2  501    0  0.23120487897E+02  0.50743732187E+01 -0.47658756034E+02  0.53213374736E+02  0.00000000000E+00 0. -1.
          1    1    1    2  502    0 -0.54541523906E+02 -0.20176326283E+02 -0.25788971297E+04  0.25795527262E+04  0.00000000000E+00 0. -1.
         22    1    1    2    0    0 -0.26171803740E+02  0.37008572394E+01  0.28918564300E+02  0.39178348823E+02  0.00000000000E+00 0. -1.
         22    1    1    2    0    0  0.57592839748E+02  0.11401095825E+02 -0.73277502769E+02  0.93896286340E+02  0.00000000000E+00 0. -1.
</event>
<event>
 6    1  0.2809573E-005  0.1209876E+03  0.7818608E-02  0.1299206E+00
          2   -1    0    0  502    0  0.00000000000E+00  0.00000000000E+00  0.12922282611E+03  0.12922282611E+03  0.00000000000E+00 0. -1.
          1   -1    0    0  501    0 -0.00000000000E+00 -0.00000000000E+00 -0.25461357374E+03  0.25461357374E+03  0.00000000000E+00 0. -1.
          2    1    1    2  501    0 -0.68582756599E+02 -0.47115723698E+02 -0.93129838962E+02  0.12488655983E+03  0.00000000000E+00 0. -1.
          1    1    1    2  502    0  0.12141037003E+02  0.91832031129E+02 -0.61982738544E+02  0.11145576072E+03  0.00000000000E+00 0. -1.
         22    1    1    2    0    0  0.28792088017E+02 -0.16342193932E+02 -0.49133081570E+02  0.59246192616E+02  0.00000000000E+00 0. -1.
         22    1    1    2    0    0  0.27649631578E+02 -0.28374113499E+02  0.78854911447E+02  0.88247886675E+02  0.00000000000E+00 0. -1.
</event>
<event>
 6    1  0.2809573E-005  0.1540792E+03  0.7818608E-02  0.1265326E+00
          2   -1    0    0  502    0  0.00000000000E+00  0.00000000000E+00  0.43942823895E+03  0.43942823895E+03  0.00000000000E+00 0.  1.
          1   -1    0    0  501    0 -0.00000000000E+00 -0.00000000000E+00 -0.11965498810E+03  0.11965498810E+03  0.00000000000E+00 0. -1.
          2    1    1    2  501    0 -0.36856804152E+01 -0.29143247344E+02  0.18324184514E+02  0.34622086072E+02  0.00000000000E+00 0.  1.
          1    1    1    2  502    0 -0.75203790176E+02 -0.20320494990E+02 -0.80044633759E+02  0.11169456552E+03  0.00000000000E+00 0. -1.
         22    1    1    2    0    0  0.14349548396E+02 -0.33528623682E+02  0.34527213481E+02  0.50221575203E+02  0.00000000000E+00 0.  1.
         22    1    1    2    0    0  0.64539922196E+02  0.82992366016E+02  0.34696648662E+03  0.36254500025E+03  0.00000000000E+00 0.  1.
</event>
<event>
 6    1  0.2809573E-005  0.2151252E+03  0.7818608E-02  0.1216728E+00
          2   -1    0    0  502    0  0.00000000000E+00  0.00000000000E+00  0.53335251830E+03  0.53335251830E+03  0.00000000000E+00 0.  1.
          1   -1    0    0  501    0 -0.00000000000E+00 -0.00000000000E+00 -0.10635308428E+04  0.10635308428E+04  0.00000000000E+00 0. -1.
          2    1    1    2  501    0  0.41394537974E+02 -0.34945672379E+02  0.11183075497E+02  0.55315178475E+02  0.00000000000E+00 0.  1.
          1    1    1    2  502    0  0.32219256012E+02 -0.17284904680E+02 -0.10286549545E+04  0.10293045535E+04  0.00000000000E+00 0. -1.
         22    1    1    2    0    0 -0.10945881702E+03  0.50113338071E+02  0.34094671688E+03  0.36157605428E+03  0.00000000000E+00 0.  1.
         22    1    1    2    0    0  0.35845023038E+02  0.21172389881E+01  0.14634683755E+03  0.15068757493E+03  0.00000000000E+00 0. -1.
</event>
<event>
 6    1  0.2809573E-005  0.6636977E+02  0.7818608E-02  0.1374301E+00
          2   -1    0    0  502    0  0.00000000000E+00  0.00000000000E+00  0.21615343477E+03  0.21615343477E+03  0.00000000000E+00 0.  1.
          1   -1    0    0  501    0 -0.00000000000E+00 -0.00000000000E+00 -0.37591916751E+02  0.37591916751E+02  0.00000000000E+00 0.  1.
          2    1    1    2  501    0 -0.21653002289E+02  0.62121235367E+01  0.23367162787E+02  0.32457160746E+02  0.00000000000E+00 0.  1.
          1    1    1    2  502    0  0.18349305181E+02  0.15375817724E+02  0.15612311996E+01  0.23990627632E+02  0.00000000000E+00 0.  1.
         22    1    1    2    0    0 -0.43156105516E+02  0.21946299268E+02  0.26696586058E+02  0.55288309813E+02  0.00000000000E+00 0.  1.
         22    1    1    2    0    0  0.46459802624E+02 -0.43534240528E+02  0.12693653798E+03  0.14200925333E+03  0.00000000000E+00 0.  1.
</event>
<event>
 6    1  0.2809573E-005  0.1213796E+03  0.7818608E-02  0.1308907E+00
          2   -1    0    0  502    0  0.00000000000E+00  0.00000000000E+00  0.99852308288E+02  0.99852308288E+02  0.00000000000E+00 0. -1.
          1   -1    0    0  501    0 -0.00000000000E+00 -0.00000000000E+00 -0.20134487209E+03  0.20134487209E+03  0.00000000000E+00 0. -1.
          2    1    1    2  501    0 -0.27136540325E+02  0.23813459271E+02  0.61052146650E+01  0.36616202826E+02  0.00000000000E+00 0. -1.
          1    1    1    2  502    0  0.17097261418E+02  0.51847080465E+02 -0.10886469099E+03  0.12178652243E+03  0.00000000000E+00 0. -1.
         22    1    1    2    0    0 -0.15384805701E+02 -0.96458404358E+02 -0.24896887409E+02  0.10080064990E+03  0.00000000000E+00 0. -1.
         22    1    1    2    0    0  0.25424084608E+02  0.20797864622E+02  0.26163799927E+02  0.41993805229E+02  0.00000000000E+00 0. -1.
</event>
<event>
 6    1  0.2809573E-005  0.1155708E+03  0.7818608E-02  0.1299314E+00
          2   -1    0    0  502    0  0.00000000000E+00  0.00000000000E+00  0.43558520450E+03  0.43558520450E+03  0.00000000000E+00 0.  1.
          1   -1    0    0  501    0 -0.00000000000E+00 -0.00000000000E+00 -0.40942595474E+02  0.40942595474E+02  0.00000000000E+00 0. -1.
          2    1    1    2  501    0 -0.18846102482E+02  0.14236785879E+02  0.13658686658E+02  0.27284086426E+02  0.00000000000E+00 0.  1.
          1    1    1    2  502    0 -0.24826830735E+02 -0.60127756770E+02  0.28098376194E+02  0.70860690113E+02  0.00000000000E+00 0. -1.
         22    1    1    2    0    0 -0.41624432232E+02  0.18034371736E+02  0.14576790080E+03  0.15266339714E+03  0.00000000000E+00 0.  1.
         22    1    1    2    0    0  0.85297365449E+02  0.27856599155E+02  0.20711764538E+03  0.22571962630E+03  0.00000000000E+00 0.  1.
</event>
<event>
 6    1  0.2809573E-005  0.2191609E+03  0.7818608E-02  0.1148333E+00
          2   -1    0    0  502    0  0.00000000000E+00  0.00000000000E+00  0.53996310154E+03  0.53996310154E+03  0.00000000000E+00 0.  1.
          1   -1    0    0  501    0 -0.00000000000E+00 -0.00000000000E+00 -0.10235823320E+04  0.10235823320E+04  0.00000000000E+00 0.  1.
          2    1    1    2  501    0 -0.29669988350E+03 -0.34451718149E+02  0.38229908181E+03  0.48514980130E+03  0.00000000000E+00 0.  1.
          1    1    1    2  502    0  0.19732183633E+03 -0.68299210239E+02 -0.86681710496E+03  0.89161235000E+03  0.00000000000E+00 0.  1.
         22    1    1    2    0    0 -0.24840824988E+02  0.64835700917E+01  0.13714383086E+02  0.29106486745E+02  0.00000000000E+00 0.  1.
         22    1    1    2    0    0  0.12421887216E+03  0.96267358296E+02 -0.12815590375E+02  0.15767679547E+03  0.00000000000E+00 0. -1.
</event>
<event>
 6    1  0.2809573E-005  0.2179302E+03  0.7818608E-02  0.1276773E+00
          2   -1    0    0  502    0  0.00000000000E+00  0.00000000000E+00  0.66102325852E+02  0.66102325852E+02  0.00000000000E+00 0. -1.
          1   -1    0    0  501    0 -0.00000000000E+00 -0.00000000000E+00 -0.98619053657E+03  0.98619053657E+03  0.00000000000E+00 0.  1.
          2    1    1    2  501    0  0.42935483832E+02 -0.24212162132E+02 -0.10351882292E+03  0.11465527143E+03  0.00000000000E+00 0. -1.
          1    1    1    2  502    0 -0.14287147407E+03 -0.10133387826E+03 -0.65821606200E+03  0.68112348166E+03  0.00000000000E+00 0.  1.
         22    1    1    2    0    0 -0.10313071064E+02 -0.64397682042E+00  0.13159811530E+02  0.16731849283E+02  0.00000000000E+00 0. -1.
         22    1    1    2    0    0  0.11024906130E+03  0.12619001721E+03 -0.17151313732E+03  0.23978226005E+03  0.00000000000E+00 0. -1.
</event>
<event>
 6    1  0.2809573E-005  0.1139921E+03  0.7818608E-02  0.1257748E+00
          2   -1    0    0  502    0  0.00000000000E+00  0.00000000000E+00  0.42502232984E+03  0.42502232984E+03  0.00000000000E+00 0.  1.
          1   -1    0    0  501    0 -0.00000000000E+00 -0.00000000000E+00 -0.71083827473E+02  0.71083827473E+02  0.00000000000E+00 0. -1.
          2    1    1    2  501    0 -0.32052245501E+02  0.42259132951E+02  0.44923006903E+02  0.69507246447E+02  0.00000000000E+00 0.  1.
          1    1    1    2  502    0  0.69788138766E+02 -0.11031723866E+03  0.80867557077E+02  0.15355728327E+03  0.00000000000E+00 0. -1.
         22    1    1    2    0    0  0.39866778292E+02 -0.19099282898E+01  0.33442245023E+02  0.52071024473E+02  0.00000000000E+00 0. -1.
         22    1    1    2    0    0 -0.77602671558E+02  0.69968034000E+02  0.19470569337E+03  0.22097060312E+03  0.00000000000E+00 0.  1.
</event>
<event>
 6    1  0.2809573E-005  0.1196481E+03  0.7818608E-02  0.1308311E+00
          2   -1    0    0  502    0  0.00000000000E+00  0.00000000000E+00  0.42835447653E+02  0.42835447653E+02  0.00000000000E+00 0.  1.
          1   -1    0    0  501    0 -0.00000000000E+00 -0.00000000000E+00 -0.10172871927E+04  0.10172871927E+04  0.00000000000E+00 0.  1.
          2    1    1    2  501    0 -0.62189136231E+02 -0.84535942986E+01 -0.13743749549E+03  0.15108943407E+03  0.00000000000E+00 0.  1.
          1    1    1    2  502    0 -0.10269546769E+02 -0.20036463038E+02 -0.72291863603E+03  0.72326915997E+03  0.00000000000E+00 0.  1.
         22    1    1    2    0    0  0.31886275986E+02 -0.13715741781E+02  0.19564221961E+02  0.39844886118E+02  0.00000000000E+00 0.  1.
         22    1    1    2    0    0  0.40572407014E+02  0.42205799118E+02 -0.13365983553E+03  0.14591916023E+03  0.00000000000E+00 0.  1.
</event>
<event>
 6    1  0.2809573E-005  0.1143469E+03  0.7818608E-02  0.1335419E+00
          2   -1    0    0  502    0  0.00000000000E+00  0.00000000000E+00  0.28099565356E+02  0.28099565356E+02  0.00000000000E+00 0.  1.
          1   -1    0    0  501    0 -0.00000000000E+00 -0.00000000000E+00 -0.85798871858E+03  0.85798871858E+03  0.00000000000E+00 0.  1.
          2    1    1    2  501    0 -0.41881858766E+02 -0.10533015785E+02 -0.13256118975E+03  0.13941844765E+03  0.00000000000E+00 0.  1.
          1    1    1    2  502    0  0.37230525967E+02 -0.41995079837E+02 -0.53390838395E+03  0.53684994295E+03  0.00000000000E+00 0.  1.
         22    1    1    2    0    0  0.19647763044E+02  0.71904783234E+02 -0.16898385730E+03  0.18469400768E+03  0.00000000000E+00 0.  1.
         22    1    1    2    0    0 -0.14996430245E+02 -0.19376687613E+02  0.55642777800E+01  0.25125885659E+02  0.00000000000E+00 0.  1.
</event>
<event>
 6    1  0.2809573E-005  0.9750980E+02  0.7818608E-02  0.1325654E+00
          2   -1    0    0  502    0  0.00000000000E+00  0.00000000000E+00  0.43481119662E+03  0.43481119662E+03  0.00000000000E+00 0. -1.
          1   -1    0    0  501    0 -0.00000000000E+00 -0.00000000000E+00 -0.37833109984E+02  0.37833109984E+02  0.00000000000E+00 0. -1.
          2    1    1    2  501    0 -0.27417055761E+01  0.27140907467E+02  0.95098559186E+02  0.98933724113E+02  0.00000000000E+00 0. -1.
          1    1    1    2  502    0  0.45423481548E+02 -0.48735471737E+02  0.32267891086E+02  0.74024696396E+02  0.00000000000E+00 0. -1.
         22    1    1    2    0    0 -0.81892674297E+01  0.46191042672E+02  0.24748424288E+03  0.25189110146E+03  0.00000000000E+00 0. -1.
         22    1    1    2    0    0 -0.34492508542E+02 -0.24596478401E+02  0.22127393484E+02  0.47794784628E+02  0.00000000000E+00 0.  1.
</event>
<event>
 6    1  0.2809573E-005  0.5070059E+02  0.7818608E-02  0.1457141E+00
          2   -1    0    0  502    0  0.00000000000E+00  0.00000000000E+00  0.67939148070E+02  0.67939148070E+02  0.00000000000E+00 0. -1.
          1   -1    0    0  501    0 -0.00000000000E+00 -0.00000000000E+00 -0.84599616170E+03  0.84599616170E+03  0.00000000000E+00 0.  1.
          2    1    1    2  501    0  0.13748602044E+02 -0.32863411136E+02 -0.11978718173E+03  0.12497198389E+03  0.00000000000E+00 0. -1.
          1    1    1    2  502    0 -0.19282419525E+02  0.26668551881E+02 -0.66323231274E+03  0.66404828441E+03  0.00000000000E+00 0.  1.
         22    1    1    2    0    0  0.91055292290E+01  0.38474193033E+02  0.53494379720E+02  0.66519341952E+02  0.00000000000E+00 0. -1.
         22    1    1    2    0    0 -0.35717117479E+01 -0.32279333778E+02 -0.48531898877E+02  0.58395699521E+02  0.00000000000E+00 0.  1.
</event>
<event>
 6    1  0.2809573E-005  0.3796027E+02  0.7818608E-02  0.1558502E+00
          2   -1    0    0  502    0  0.00000000000E+00  0.00000000000E+00  0.10116019682E+03  0.10116019682E+03  0.00000000000E+00 0. -1.
          1   -1    0    0  501    0 -0.00000000000E+00 -0.00000000000E+00 -0.17521897515E+04  0.17521897515E+04  0.00000000000E+00 0.  1.
          2    1    1    2  501    0  0.40012857085E+01 -0.23390013460E+02 -0.13379533706E+02  0.27241786637E+02  0.00000000000E+00 0. -1.
          1    1    1    2  502    0 -0.21335651147E+02  0.19654747626E+02 -0.16879865870E+04  0.16882358358E+04  0.00000000000E+00 0.  1.
         22    1    1    2    0    0  0.26417381600E+02 -0.18664878760E+02 -0.35893961466E+02  0.48318032032E+02  0.00000000000E+00 0. -1.
         22    1    1    2    0    0 -0.90830161610E+01  0.22400144594E+02  0.86230527572E+02  0.89554293843E+02  0.00000000000E+00 0. -1.
</event>
<event>
 6    1  0.2809573E-005  0.9314023E+02  0.7818608E-02  0.1311369E+00
          2   -1    0    0  502    0  0.00000000000E+00  0.00000000000E+00  0.15162849248E+03  0.15162849248E+03  0.00000000000E+00 0.  1.
          1   -1    0    0  501    0 -0.00000000000E+00 -0.00000000000E+00 -0.21327822605E+03  0.21327822605E+03  0.00000000000E+00 0.  1.
          2    1    1    2  501    0  0.34139387453E+02 -0.10545361036E+02  0.53028320411E+00  0.35734907518E+02  0.00000000000E+00 0.  1.
          1    1    1    2  502    0  0.97589968945E+01 -0.21601526766E+02 -0.16183912081E+03  0.16356578189E+03  0.00000000000E+00 0.  1.
         22    1    1    2    0    0 -0.65472811873E+02  0.48902340098E+02  0.24006929370E+02  0.85173121460E+02  0.00000000000E+00 0.  1.
         22    1    1    2    0    0  0.21574427525E+02 -0.16755452296E+02  0.75652174664E+02  0.80432907669E+02  0.00000000000E+00 0.  1.
</event>
<event>
 6    1  0.2809573E-005  0.5894592E+02  0.7818608E-02  0.1444526E+00
          2   -1    0    0  502    0  0.00000000000E+00  0.00000000000E+00  0.77033559827E+02  0.77033559827E+02  0.00000000000E+00 0. -1.
          1   -1    0    0  501    0 -0.00000000000E+00 -0.00000000000E+00 -0.40844007204E+04  0.40844007204E+04  0.00000000000E+00 0.  1.
          2    1    1    2  501    0 -0.56451514741E+02 -0.40753162727E+02 -0.20419016384E+03  0.21573413452E+03  0.00000000000E+00 0. -1.
          1    1    1    2  502    0  0.49835610051E+02  0.26319398568E+02 -0.38213046501E+04  0.38217202315E+04  0.00000000000E+00 0.  1.
         22    1    1    2    0    0  0.24498715433E+02  0.18809914518E+02  0.65901975047E+02  0.72780974555E+02  0.00000000000E+00 0. -1.
         22    1    1    2    0    0 -0.17882810743E+02 -0.43761503585E+01 -0.47774321656E+02  0.51198939655E+02  0.00000000000E+00 0.  1.
</event>
<event>
 6    1  0.2809573E-005  0.7928833E+02  0.7818608E-02  0.1361341E+00
          2   -1    0    0  502    0  0.00000000000E+00  0.00000000000E+00  0.19345008255E+02  0.19345008255E+02  0.00000000000E+00 0.  1.
          1   -1    0    0  501    0 -0.00000000000E+00 -0.00000000000E+00 -0.30300741602E+04  0.30300741602E+04  0.00000000000E+00 0.  1.
          2    1    1    2  501    0  0.54763194483E+01  0.26541924035E+02 -0.88595440657E+02  0.92647805756E+02  0.00000000000E+00 0.  1.
          1    1    1    2  502    0  0.26032127378E+02 -0.55540369124E+02 -0.26900212239E+04  0.26907204591E+04  0.00000000000E+00 0.  1.
         22    1    1    2    0    0  0.32613216614E+02 -0.23177149530E+01 -0.12278810025E+02  0.34925103810E+02  0.00000000000E+00 0.  1.
         22    1    1    2    0    0 -0.64121663440E+02  0.31316160042E+02 -0.21983367737E+03  0.23112579974E+03  0.00000000000E+00 0.  1.
</event>
<event>
 6    1  0.2809573E-005  0.1316240E+03  0.7818608E-02  0.1262311E+00
          2   -1    0    0  502    0  0.00000000000E+00  0.00000000000E+00  0.36238134347E+02  0.36238134347E+02  0.00000000000E+00 0. -1.
          1   -1    0    0  501    0 -0.00000000000E+00 -0.00000000000E+00 -0.15718161408E+04  0.15718161408E+04  0.00000000000E+00 0. -1.
          2    1    1    2  501    0 -0.56631760518E+02 -0.98627319984E+02 -0.49053619169E+03  0.50354767392E+03  0.00000000000E+00 0. -1.
          1    1    1    2  502    0  0.47224149252E+02  0.91106533553E+02 -0.92740608768E+03  0.93306622069E+03  0.00000000000E+00 0. -1.
         22    1    1    2    0    0 -0.19753037833E+02 -0.47249790405E+02 -0.89922345146E+02  0.10348310661E+03  0.00000000000E+00 0.  1.
         22    1    1    2    0    0  0.29160649099E+02  0.54770576836E+02 -0.27713381948E+02  0.67957273943E+02  0.00000000000E+00 0. -1.
</event>
<event>
 6    1  0.2809573E-005  0.1836117E+03  0.7818608E-02  0.1248328E+00
          2   -1    0    0  502    0  0.00000000000E+00  0.00000000000E+00  0.46838406641E+03  0.46838406641E+03  0.00000000000E+00 0.  1.
          1   -1    0    0  501    0 -0.00000000000E+00 -0.00000000000E+00 -0.13391984914E+03  0.13391984914E+03  0.00000000000E+00 0. -1.
          2    1    1    2  501    0 -0.24758699685E+02 -0.31655328012E+01  0.81130986474E+01  0.26245688745E+02  0.00000000000E+00 0.  1.
          1    1    1    2  502    0  0.16505415566E+03  0.59485480114E+02 -0.21903207451E+02  0.17680822137E+03  0.00000000000E+00 0. -1.
         22    1    1    2    0    0 -0.12449622462E+03 -0.82001076537E+02  0.20869369373E+03  0.25646938277E+03  0.00000000000E+00 0.  1.
         22    1    1    2    0    0 -0.15799231361E+02  0.25681129224E+02  0.13956063234E+03  0.14278062267E+03  0.00000000000E+00 0. -1.
</event>
<event>
 6    1  0.3057308E-005  0.9563181E+02  0.7818608E-02  0.1346630E+00
          2   -1    0    0  502    0  0.00000000000E+00  0.00000000000E+00  0.11638012186E+03  0.11638012186E+03  0.00000000000E+00 0.  1.
          1   -1    0    0  501    0 -0.00000000000E+00 -0.00000000000E+00 -0.73619042243E+03  0.73619042243E+03  0.00000000000E+00 0.  1.
          2    1    1    2  501    0 -0.52799240028E+02  0.79652488529E+01 -0.20244802181E+02  0.57105664800E+02  0.00000000000E+00 0.  1.
          1    1    1    2  502    0  0.82161816129E+02 -0.42477763737E+02 -0.64471161282E+03  0.65131251189E+03  0.00000000000E+00 0.  1.
         22    1    1    2    0    0  0.28371329982E+01  0.34385171737E+02  0.85691342018E+02  0.92376379318E+02  0.00000000000E+00 0.  1.
         22    1    1    2    0    0 -0.32199709099E+02  0.12734314717E+00 -0.40545227594E+02  0.51775988286E+02  0.00000000000E+00 0.  1.
</event>
<event>
 6    1  0.2809573E-005  0.1840613E+03  0.7818608E-02  0.1223042E+00
          2   -1    0    0  502    0  0.00000000000E+00  0.00000000000E+00  0.10142292248E+02  0.10142292248E+02  0.00000000000E+00 0. -1.
          1   -1    0    0  501    0 -0.00000000000E+00 -0.00000000000E+00 -0.25716099242E+04  0.25716099242E+04  0.00000000000E+00 0. -1.
          2    1    1    2  501    0 -0.42311759036E+02 -0.25569383416E+02 -0.11457214912E+04  0.11467876062E+04  0.00000000000E+00 0. -1.
          1    1    1    2  502    0  0.20406141136E+02  0.16835295480E+02 -0.10024273365E+04  0.10027763473E+04  0.00000000000E+00 0. -1.
         22    1    1    2    0    0  0.50110038488E+02  0.53417370253E+02 -0.25277924007E+03  0.26317632038E+03  0.00000000000E+00 0. -1.
         22    1    1    2    0    0 -0.28204420588E+02 -0.44683282317E+02 -0.16053956424E+03  0.16901194261E+03  0.00000000000E+00 0.  1.
</event>
<event>
 6    1  0.2809573E-005  0.3768579E+03  0.7818608E-02  0.1114103E+00
          2   -1    0    0  502    0  0.00000000000E+00  0.00000000000E+00  0.32276674654E+03  0.32276674654E+03  0.00000000000E+00 0. -1.
          1   -1    0    0  501    0 -0.00000000000E+00 -0.00000000000E+00 -0.20533042641E+04  0.20533042641E+04  0.00000000000E+00 0.  1.
          2    1    1    2  501    0  0.13150342042E+03  0.24013566253E+03  0.72626255600E+02  0.28325405382E+03  0.00000000000E+00 0. -1.
          1    1    1    2  502    0 -0.72595985106E+02 -0.34785329336E+03 -0.18723331319E+04  0.19057553483E+04  0.00000000000E+00 0.  1.
         22    1    1    2    0    0 -0.46390600456E+02  0.54440599747E+02  0.10099174954E+03  0.12375459663E+03  0.00000000000E+00 0. -1.
         22    1    1    2    0    0 -0.12516834859E+02  0.53277031084E+02 -0.31822390744E+02  0.63307011844E+02  0.00000000000E+00 0. -1.
</event>
<event>
 6    1  0.2809573E-005  0.3416101E+03  0.7818608E-02  0.1136788E+00
          2   -1    0    0  502    0  0.00000000000E+00  0.00000000000E+00  0.62059025421E+02  0.62059025421E+02  0.00000000000E+00 0.  1.
          1   -1    0    0  501    0 -0.00000000000E+00 -0.00000000000E+00 -0.34142179458E+04  0.34142179458E+04  0.00000000000E+00 0.  1.
          2    1    1    2  501    0 -0.33882522338E+02 -0.27807182793E+02 -0.12288297663E+03  0.13046643507E+03  0.00000000000E+00 0.  1.
          1    1    1    2  502    0  0.17621721911E+03  0.30087194376E+03 -0.26867044903E+04  0.27092355847E+04  0.00000000000E+00 0.  1.
         22    1    1    2    0    0 -0.42201422925E+02 -0.34885428082E+02 -0.29679051444E+02  0.62280007096E+02  0.00000000000E+00 0.  1.
         22    1    1    2    0    0 -0.10013327385E+03 -0.23817933289E+03 -0.51289240198E+03  0.57429494439E+03  0.00000000000E+00 0.  1.
</event>
<event>
 6    1  0.2809573E-005  0.3727637E+02  0.7818608E-02  0.1532713E+00
          2   -1    0    0  502    0  0.00000000000E+00  0.00000000000E+00  0.80152606428E+02  0.80152606428E+02  0.00000000000E+00 0.  1.
          1   -1    0    0  501    0 -0.00000000000E+00 -0.00000000000E+00 -0.53853518973E+03  0.53853518973E+03  0.00000000000E+00 0.  1.
          2    1    1    2  501    0 -0.21799248151E+02 -0.22527925230E+02 -0.87021184312E+02  0.92495411530E+02  0.00000000000E+00 0.  1.
          1    1    1    2  502    0  0.38285007674E+01  0.30964496049E+02 -0.39577259850E+03  0.39700051279E+03  0.00000000000E+00 0.  1.
         22    1    1    2    0    0 -0.17524064749E+02 -0.65392228633E+01 -0.46362523169E+02  0.49993377917E+02  0.00000000000E+00 0. -1.
         22    1    1    2    0    0  0.35494812133E+02 -0.18973479554E+01  0.70773722678E+02  0.79198493920E+02  0.00000000000E+00 0.  1.
</event>
<event>
 6    1  0.2809573E-005  0.5894933E+03  0.7818608E-02  0.1035976E+00
          2   -1    0    0  502    0  0.00000000000E+00  0.00000000000E+00  0.43765949895E+03  0.43765949895E+03  0.00000000000E+00 0.  1.
          1   -1    0    0  501    0 -0.00000000000E+00 -0.00000000000E+00 -0.51525116671E+03  0.51525116671E+03  0.00000000000E+00 0.  1.
          2    1    1    2  501    0 -0.33768565526E+03  0.73557576759E+02  0.13090390944E+03  0.36956481485E+03  0.00000000000E+00 0.  1.
          1    1    1    2  502    0  0.21389965112E+01  0.77346189908E+02 -0.17763859372E+03  0.19375881497E+03  0.00000000000E+00 0.  1.
         22    1    1    2    0    0  0.15559653198E+03 -0.38458019778E+01 -0.45998946498E+01  0.15571200977E+03  0.00000000000E+00 0.  1.
         22    1    1    2    0    0  0.17995012677E+03 -0.14705796469E+03 -0.26257088820E+02  0.23387502606E+03  0.00000000000E+00 0.  1.
</event>
<event>
 6    1  0.2809573E-005  0.9474633E+02  0.7818608E-02  0.1294469E+00
          2   -1    0    0  502    0  0.00000000000E+00  0.00000000000E+00  0.45982169748E+02  0.45982169748E+02  0.00000000000E+00 0.  1.
          1   -1    0    0  501    0 -0.00000000000E+00 -0.00000000000E+00 -0.45589493297E+03  0.45589493297E+03  0.00000000000E+00 0.  1.
          2    1    1    2  501    0  0.22985173801E+02 -0.19191721804E+02 -0.15266048238E+03  0.15556948055E+03  0.00000000000E+00 0.  1.
          1    1    1    2  502    0 -0.63825423141E+02 -0.33232192068E+02 -0.16327775647E+03  0.17843118838E+03  0.00000000000E+00 0.  1.
         22    1    1    2    0    0  0.50393923415E+02  0.73577953402E+02 -0.21444884967E+02  0.91723202273E+02  0.00000000000E+00 0.  1.
         22    1    1    2    0    0 -0.95536740752E+01 -0.21154039530E+02 -0.72529639403E+02  0.76153231506E+02  0.00000000000E+00 0.  1.
</event>
<event>
 6    1  0.2809573E-005  0.1058067E+03  0.7818608E-02  0.1303492E+00
          2   -1    0    0  502    0  0.00000000000E+00  0.00000000000E+00  0.86821823304E+02  0.86821823304E+02  0.00000000000E+00 0.  1.
          1   -1    0    0  501    0 -0.00000000000E+00 -0.00000000000E+00 -0.92882605174E+03  0.92882605174E+03  0.00000000000E+00 0. -1.
          2    1    1    2  501    0  0.21516814434E+02  0.55474639875E+02  0.99124912677E+01  0.60321359863E+02  0.00000000000E+00 0.  1.
          1    1    1    2  502    0  0.11275111981E+01 -0.97001387435E+02 -0.80460355229E+03  0.81043038985E+03  0.00000000000E+00 0. -1.
         22    1    1    2    0    0  0.15574372206E+02  0.80720125983E+02 -0.28785095470E+02  0.87102706786E+02  0.00000000000E+00 0.  1.
         22    1    1    2    0    0 -0.38218697838E+02 -0.39193378423E+02 -0.18528071949E+02  0.57793418542E+02  0.00000000000E+00 0. -1.
</event>
<event>
 6    1  0.2809573E-005  0.1010874E+03  0.7818608E-02  0.1284191E+00
          2   -1    0    0  502    0  0.00000000000E+00  0.00000000000E+00  0.68652076896E+02  0.68652076896E+02  0.00000000000E+00 0.  1.
          1   -1    0    0  501    0 -0.00000000000E+00 -0.00000000000E+00 -0.14522571281E+04  0.14522571281E+04  0.00000000000E+00 0.  1.
          2    1    1    2  501    0 -0.22403152020E+02  0.36750107728E+02 -0.49078673852E+02  0.65277774667E+02  0.00000000000E+00 0.  1.
          1    1    1    2  502    0  0.22041392494E+02  0.22075886874E+02 -0.13137652065E+04  0.13141355279E+04  0.00000000000E+00 0.  1.
         22    1    1    2    0    0 -0.35608217139E+02  0.28136115164E+02 -0.13242384977E+01  0.45401979163E+02  0.00000000000E+00 0.  1.
         22    1    1    2    0    0  0.35969976665E+02 -0.86962109766E+02 -0.19436932345E+02  0.96093923300E+02  0.00000000000E+00 0.  1.
</event>
<event>
 6    1  0.2809573E-005  0.3814031E+02  0.7818608E-02  0.1588462E+00
          2   -1    0    0  502    0  0.00000000000E+00  0.00000000000E+00  0.46077590129E+02  0.46077590129E+02  0.00000000000E+00 0.  1.
          1   -1    0    0  501    0 -0.00000000000E+00 -0.00000000000E+00 -0.42033309877E+03  0.42033309877E+03  0.00000000000E+00 0. -1.
          2    1    1    2  501    0  0.14491205884E+02 -0.15383495969E+02 -0.13998791156E+03  0.14157422922E+03  0.00000000000E+00 0.  1.
          1    1    1    2  502    0 -0.76605610675E+01  0.22629939728E+02 -0.19735778958E+03  0.19879863046E+03  0.00000000000E+00 0. -1.
         22    1    1    2    0    0 -0.52140989062E+01 -0.23575375751E+02 -0.78074766255E+02  0.81723034054E+02  0.00000000000E+00 0.  1.
         22    1    1    2    0    0 -0.16165459102E+01  0.16328931991E+02  0.41164958754E+02  0.44314795158E+02  0.00000000000E+00 0.  1.
</event>
<event>
 6    1  0.2809573E-005  0.1360574E+03  0.7818608E-02  0.1220322E+00
          2   -1    0    0  502    0  0.00000000000E+00  0.00000000000E+00  0.79318195098E+03  0.79318195098E+03  0.00000000000E+00 0.  1.
          1   -1    0    0  501    0 -0.00000000000E+00 -0.00000000000E+00 -0.44429883292E+03  0.44429883292E+03  0.00000000000E+00 0. -1.
          2    1    1    2  501    0  0.82333070284E+02 -0.66790377176E+02  0.17101424933E+03  0.20121024432E+03  0.00000000000E+00 0.  1.
          1    1    1    2  502    0  0.21804920186E+02  0.34685594735E+02 -0.41684182472E+03  0.41885039317E+03  0.00000000000E+00 0. -1.
         22    1    1    2    0    0  0.13108916040E+02 -0.28621038055E+02  0.78180305001E+02  0.84280291819E+02  0.00000000000E+00 0.  1.
         22    1    1    2    0    0 -0.11724690651E+03  0.60725820495E+02  0.51653038845E+03  0.53313985459E+03  0.00000000000E+00 0.  1.
</event>
<event>
 6    1  0.2809573E-005  0.1369127E+03  0.7818608E-02  0.1275362E+00
          2   -1    0    0  502    0  0.00000000000E+00  0.00000000000E+00  0.43727238625E+03  0.43727238625E+03  0.00000000000E+00 0.  1.
          1   -1    0    0  501    0 -0.00000000000E+00 -0.00000000000E+00 -0.42690055499E+03  0.42690055499E+03  0.00000000000E+00 0.  1.
          2    1    1    2  501    0 -0.35607882167E+02 -0.95152091732E+01  0.15422482646E+02  0.39953891538E+02  0.00000000000E+00 0.  1.
          1    1    1    2  502    0 -0.46565265573E+01 -0.25630353719E+02 -0.40244866509E+03  0.40329087059E+03  0.00000000000E+00 0.  1.
         22    1    1    2    0    0 -0.14186152572E+02 -0.37985072776E+02  0.19150771517E+03  0.19575320597E+03  0.00000000000E+00 0. -1.
         22    1    1    2    0    0  0.54450561296E+02  0.73130635668E+02  0.20589029853E+03  0.22517497314E+03  0.00000000000E+00 0.  1.
</event>
<event>
 6    1  0.2809573E-005  0.4395111E+02  0.7818608E-02  0.1483800E+00
          2   -1    0    0  502    0  0.00000000000E+00  0.00000000000E+00  0.77957017744E+02  0.77957017744E+02  0.00000000000E+00 0.  1.
          1   -1    0    0  501    0 -0.00000000000E+00 -0.00000000000E+00 -0.28211860972E+03  0.28211860972E+03  0.00000000000E+00 0.  1.
          2    1    1    2  501    0 -0.13303627298E+02 -0.26645358740E+02 -0.15864768403E+03  0.16141886287E+03  0.00000000000E+00 0.  1.
          1    1    1    2  502    0 -0.18284175903E+02  0.37937526166E+02 -0.54478066202E+02  0.68858018249E+02  0.00000000000E+00 0.  1.
         22    1    1    2    0    0 -0.11069808998E+02 -0.65835411354E+01 -0.52933759791E+02  0.54478129655E+02  0.00000000000E+00 0. -1.
         22    1    1    2    0    0  0.42657612199E+02 -0.47086262908E+01  0.61897918047E+02  0.75320616690E+02  0.00000000000E+00 0.  1.
</event>
<event>
 6    1  0.2809573E-005  0.1305753E+03  0.7818608E-02  0.1344368E+00
          2   -1    0    0  502    0  0.00000000000E+00  0.00000000000E+00  0.12333540117E+03  0.12333540117E+03  0.00000000000E+00 0. -1.
          1   -1    0    0  501    0 -0.00000000000E+00 -0.00000000000E+00 -0.71149060588E+03  0.71149060588E+03  0.00000000000E+00 0. -1.
          2    1    1    2  501    0 -0.15152643418E+02 -0.10903265065E+03 -0.57803086776E+03  0.58841941300E+03  0.00000000000E+00 0. -1.
          1    1    1    2  502    0  0.45546229667E+02  0.10831037940E+03 -0.42355885946E+01  0.11757354096E+03  0.00000000000E+00 0. -1.
         22    1    1    2    0    0 -0.18210297525E+02 -0.63575874626E+01 -0.65136706713E+02  0.67932498966E+02  0.00000000000E+00 0.  1.
         22    1    1    2    0    0 -0.12183288724E+02  0.70798587147E+01  0.59247958359E+02  0.60900554130E+02  0.00000000000E+00 0. -1.
</event>
<event>
 6    1  0.2809573E-005  0.1653898E+03  0.7818608E-02  0.1229481E+00
          2   -1    0    0  502    0  0.00000000000E+00  0.00000000000E+00  0.30360878548E+03  0.30360878548E+03  0.00000000000E+00 0. -1.
          1   -1    0    0  501    0 -0.00000000000E+00 -0.00000000000E+00 -0.11067438839E+03  0.11067438839E+03  0.00000000000E+00 0. -1.
          2    1    1    2  501    0  0.10421771917E+03  0.72021245254E+01  0.94289027888E+02  0.14072535083E+03  0.00000000000E+00 0. -1.
          1    1    1    2  502    0 -0.61814346447E+02  0.15180875616E+02 -0.46339052020E+02  0.78732332324E+02  0.00000000000E+00 0. -1.
         22    1    1    2    0    0  0.66221104288E+01 -0.63907566438E+02  0.57064710971E+02  0.85932593542E+02  0.00000000000E+00 0. -1.
         22    1    1    2    0    0 -0.49025483150E+02  0.41524566296E+02  0.87919710252E+02  0.10889289717E+03  0.00000000000E+00 0. -1.
</event>
<event>
 6    1  0.2809573E-005  0.1041161E+03  0.7818608E-02  0.1277123E+00
          2   -1    0    0  502    0  0.00000000000E+00  0.00000000000E+00  0.69271704628E+03  0.69271704628E+03  0.00000000000E+00 0. -1.
          1   -1    0    0  501    0 -0.00000000000E+00 -0.00000000000E+00 -0.52816674563E+02  0.52816674563E+02  0.00000000000E+00 0. -1.
          2    1    1    2  501    0 -0.16429130137E+02  0.71390436207E+02  0.12963042685E+03  0.14889781148E+03  0.00000000000E+00 0. -1.
          1    1    1    2  502    0 -0.11693289794E+02 -0.37370364697E+02 -0.24386636064E+02  0.46130089988E+02  0.00000000000E+00 0. -1.
         22    1    1    2    0    0 -0.25990567331E+02  0.34622440947E+02  0.15636154470E+03  0.16224412368E+03  0.00000000000E+00 0. -1.
         22    1    1    2    0    0  0.54112987262E+02 -0.68642512456E+02  0.37829503623E+03  0.38826169569E+03  0.00000000000E+00 0. -1.
</event>
<event>
 6    1  0.2809573E-005  0.4871468E+02  0.7818608E-02  0.1460156E+00
          2   -1    0    0  502    0  0.00000000000E+00  0.00000000000E+00  0.49385066443E+02  0.49385066443E+02  0.00000000000E+00 0. -1.
          1   -1    0    0  501    0 -0.00000000000E+00 -0.00000000000E+00 -0.31198926273E+03  0.31198926273E+03  0.00000000000E+00 0.  1.
          2    1    1    2  501    0  0.39431471066E+02 -0.16891667333E+02 -0.60158319950E+02  0.73886350532E+02  0.00000000000E+00 0. -1.
          1    1    1    2  502    0 -0.32885676619E+02  0.10974749685E+02 -0.14878984615E+03  0.15277542726E+03  0.00000000000E+00 0.  1.
         22    1    1    2    0    0 -0.40387930278E+02  0.74718034138E+01  0.25683860030E+02  0.48442475416E+02  0.00000000000E+00 0. -1.
         22    1    1    2    0    0  0.33842135832E+02 -0.15548857651E+01 -0.79339890219E+02  0.86270075967E+02  0.00000000000E+00 0.  1.
</event>
<event>
 6    1  0.2809573E-005  0.7611863E+02  0.7818608E-02  0.1344790E+00
          2   -1    0    0  502    0  0.00000000000E+00  0.00000000000E+00  0.62401881069E+03  0.62401881069E+03  0.00000000000E+00 0.  1.
          1   -1    0    0  501    0 -0.00000000000E+00 -0.00000000000E+00 -0.35609209702E+02  0.35609209702E+02  0.00000000000E+00 0. -1.
          2    1    1    2  501    0  0.24166836142E+02 -0.85533480219E+01  0.47452943301E+02  0.53934938207E+02  0.00000000000E+00 0.  1.
          1    1    1    2  502    0 -0.20294640281E+02 -0.14377048176E+02 -0.19542035959E+02  0.31630098132E+02  0.00000000000E+00 0. -1.
         22    1    1    2    0    0 -0.60196770494E+02  0.27880920704E+02  0.34142724604E+03  0.34781253752E+03  0.00000000000E+00 0.  1.
         22    1    1    2    0    0  0.56324574633E+02 -0.49505245056E+01  0.21907144761E+03  0.22625044653E+03  0.00000000000E+00 0.  1.
</event>
<event>
 6    1  0.2809573E-005  0.1673717E+03  0.7818608E-02  0.1235445E+00
          2   -1    0    0  502    0  0.00000000000E+00  0.00000000000E+00  0.58053144158E+03  0.58053144158E+03  0.00000000000E+00 0.  1.
          1   -1    0    0  501    0 -0.00000000000E+00 -0.00000000000E+00 -0.37011978585E+03  0.37011978585E+03  0.00000000000E+00 0. -1.
          2    1    1    2  501    0 -0.84650516925E+02  0.86393608368E+02  0.15927962874E+03  0.19999891428E+03  0.00000000000E+00 0.  1.
          1    1    1    2  502    0  0.97230254732E+02 -0.93270938647E+02 -0.32663291657E+03  0.35333023168E+03  0.00000000000E+00 0. -1.
         22    1    1    2    0    0  0.42381854119E+02  0.29560090296E+02  0.26344064039E+03  0.26846040957E+03  0.00000000000E+00 0. -1.
         22    1    1    2    0    0 -0.54961591926E+02 -0.22682760018E+02  0.11432430317E+03  0.12886167190E+03  0.00000000000E+00 0.  1.
</event>
<event>
 6    1  0.2809573E-005  0.9672530E+02  0.7818608E-02  0.1297623E+00
          2   -1    0    0  502    0  0.00000000000E+00  0.00000000000E+00  0.91067155488E+03  0.91067155488E+03  0.00000000000E+00 0.  1.
          1   -1    0    0  501    0 -0.00000000000E+00 -0.00000000000E+00 -0.51464403684E+02  0.51464403684E+02  0.00000000000E+00 0. -1.
          2    1    1    2  501    0 -0.29214760607E+02  0.36600802456E+02  0.40551554909E+03  0.40821070727E+03  0.00000000000E+00 0.  1.
          1    1    1    2  502    0 -0.10640027543E+01 -0.30431117113E+02 -0.36246244357E+02  0.47338939791E+02  0.00000000000E+00 0. -1.
         22    1    1    2    0    0  0.11326070660E+02 -0.60801647441E+02  0.15845249436E+03  0.17009501220E+03  0.00000000000E+00 0. -1.
         22    1    1    2    0    0  0.18952692701E+02  0.54631962098E+02  0.33148535210E+03  0.33649129930E+03  0.00000000000E+00 0.  1.
</event>
<event>
 6    1  0.2809573E-005  0.1162787E+03  0.7818608E-02  0.1332812E+00
          2   -1    0    0  502    0  0.00000000000E+00  0.00000000000E+00  0.72289538045E+02  0.72289538045E+02  0.00000000000E+00 0.  1.
          1   -1    0    0  501    0 -0.00000000000E+00 -0.00000000000E+00 -0.53983899483E+03  0.53983899483E+03  0.00000000000E+00 0.  1.
          2    1    1    2  501    0 -0.19788089804E+02  0.30624593659E+02 -0.21329321770E+03  0.21638722455E+03  0.00000000000E+00 0.  1.
          1    1    1    2  502    0 -0.24721222541E+02 -0.16183662132E+02 -0.26365466718E+03  0.26530517011E+03  0.00000000000E+00 0.  1.
         22    1    1    2    0    0 -0.84008748701E+01 -0.22894732195E+02  0.54943880778E+02  0.60113006045E+02  0.00000000000E+00 0.  1.
         22    1    1    2    0    0  0.52910187215E+02  0.84538006679E+01 -0.45545452692E+02  0.70323132167E+02  0.00000000000E+00 0.  1.
</event>
<event>
 6    1  0.2809573E-005  0.6757245E+02  0.7818608E-02  0.1381045E+00
          2   -1    0    0  502    0  0.00000000000E+00  0.00000000000E+00  0.27124858865E+02  0.27124858865E+02  0.00000000000E+00 0. -1.
          1   -1    0    0  501    0 -0.00000000000E+00 -0.00000000000E+00 -0.15723427876E+04  0.15723427876E+04  0.00000000000E+00 0.  1.
          2    1    1    2  501    0  0.16070320057E+02  0.42580868939E+02 -0.12051453420E+03  0.12882211977E+03  0.00000000000E+00 0. -1.
          1    1    1    2  502    0  0.15255388852E+01 -0.45754498860E+02 -0.12566158852E+04  0.12574495157E+04  0.00000000000E+00 0.  1.
         22    1    1    2    0    0 -0.53348656691E+02 -0.89109911787E+01 -0.15867312010E+02  0.56367158212E+02  0.00000000000E+00 0. -1.
         22    1    1    2    0    0  0.35752797748E+02  0.12084621100E+02 -0.15222019729E+03  0.15682885282E+03  0.00000000000E+00 0. -1.
</event>
<event>
 6    1  0.2809573E-005  0.7482310E+02  0.7818608E-02  0.1416908E+00
          2   -1    0    0  502    0  0.00000000000E+00  0.00000000000E+00  0.14846224562E+03  0.14846224562E+03  0.00000000000E+00 0.  1.
          1   -1    0    0  501    0 -0.00000000000E+00 -0.00000000000E+00 -0.10292339657E+03  0.10292339657E+03  0.00000000000E+00 0. -1.
          2    1    1    2  501    0  0.50540356939E+01 -0.20339030935E+02 -0.18269967936E+01  0.21037047641E+02  0.00000000000E+00 0.  1.
          1    1    1    2  502    0 -0.40734936439E+02  0.52223601936E+02 -0.35563474852E+02  0.75175796566E+02  0.00000000000E+00 0. -1.
         22    1    1    2    0    0 -0.70741302823E+01  0.21828062894E+02  0.83421269214E+02  0.86519453340E+02  0.00000000000E+00 0. -1.
         22    1    1    2    0    0  0.42755031027E+02 -0.53712633896E+02 -0.49194852077E+00  0.68653344649E+02  0.00000000000E+00 0.  1.
</event>
<event>
 6    1  0.2809573E-005  0.1144898E+03  0.7818608E-02  0.1325055E+00
          2   -1    0    0  502    0  0.00000000000E+00  0.00000000000E+00  0.21577326866E+03  0.21577326866E+03  0.00000000000E+00 0. -1.
          1   -1    0    0  501    0 -0.00000000000E+00 -0.00000000000E+00 -0.23577105793E+03  0.23577105793E+03  0.00000000000E+00 0. -1.
          2    1    1    2  501    0  0.61257320988E+02  0.63670377800E+02 -0.26250904439E+02  0.92170962714E+02  0.00000000000E+00 0. -1.
          1    1    1    2  502    0 -0.87073750412E+02 -0.64917493597E+02 -0.12999768873E+03  0.16939751492E+03  0.00000000000E+00 0. -1.
         22    1    1    2    0    0 -0.19272875208E+01  0.10640483037E+02 -0.24393573545E+02  0.26682967352E+02  0.00000000000E+00 0. -1.
         22    1    1    2    0    0  0.27743716945E+02 -0.93933672392E+01  0.16064437745E+03  0.16329288161E+03  0.00000000000E+00 0. -1.
</event>
<event>
 6    1  0.2809573E-005  0.1287518E+03  0.7818608E-02  0.1349565E+00
          2   -1    0    0  502    0  0.00000000000E+00  0.00000000000E+00  0.62921941832E+02  0.62921941832E+02  0.00000000000E+00 0. -1.
          1   -1    0    0  501    0 -0.00000000000E+00 -0.00000000000E+00 -0.14617596225E+04  0.14617596225E+04  0.00000000000E+00 0.  1.
          2    1    1    2  501    0 -0.15489722162E+01  0.89352644538E+02 -0.24632001990E+03  0.26203023987E+03  0.00000000000E+00 0. -1.
          1    1    1    2  502    0 -0.48839854247E+01 -0.12201817514E+03 -0.11209453063E+04  0.11275773446E+04  0.00000000000E+00 0.  1.
         22    1    1    2    0    0  0.18985332638E+02  0.37484278564E+02 -0.76989077031E+02  0.87708790762E+02  0.00000000000E+00 0. -1.
         22    1    1    2    0    0 -0.12552374997E+02 -0.48187479596E+01  0.45416722557E+02  0.47365189092E+02  0.00000000000E+00 0. -1.
</event>
<event>
 6    1  0.2809573E-005  0.1247353E+03  0.7818608E-02  0.1346949E+00
          2   -1    0    0  502    0  0.00000000000E+00  0.00000000000E+00  0.15292463590E+02  0.15292463590E+02  0.00000000000E+00 0.  1.
          1   -1    0    0  501    0 -0.00000000000E+00 -0.00000000000E+00 -0.17592988852E+04  0.17592988852E+04  0.00000000000E+00 0.  1.
          2    1    1    2  501    0  0.24871630123E+02 -0.28263033841E+02 -0.21592069259E+03  0.21917833505E+03  0.00000000000E+00 0.  1.
          1    1    1    2  502    0 -0.37715669525E+02  0.10884867229E+03 -0.99391394865E+03  0.10005675602E+04  0.00000000000E+00 0.  1.
         22    1    1    2    0    0  0.25976466161E+01 -0.92167278241E+02 -0.53114470816E+03  0.53908835635E+03  0.00000000000E+00 0.  1.
         22    1    1    2    0    0  0.10246392786E+02  0.11581639793E+02 -0.30270721910E+01  0.15757097178E+02  0.00000000000E+00 0.  1.
</event>
<event>
 6    1  0.2809573E-005  0.7683094E+02  0.7818608E-02  0.1338995E+00
          2   -1    0    0  502    0  0.00000000000E+00  0.00000000000E+00  0.30921803475E+03  0.30921803475E+03  0.00000000000E+00 0. -1.
          1   -1    0    0  501    0 -0.00000000000E+00 -0.00000000000E+00 -0.20970696157E+03  0.20970696157E+03  0.00000000000E+00 0. -1.
          2    1    1    2  501    0  0.20591633045E+02  0.16831464867E+02 -0.75329482577E+01  0.27641614831E+02  0.00000000000E+00 0. -1.
          1    1    1    2  502    0  0.24943425346E+02  0.28968767931E+02 -0.17375649689E+03  0.17791201251E+03  0.00000000000E+00 0. -1.
         22    1    1    2    0    0  0.19638865526E+02  0.46627479851E+01 -0.55294228075E+00  0.20192374875E+02  0.00000000000E+00 0. -1.
         22    1    1    2    0    0 -0.65173923917E+02 -0.50462980784E+02  0.28135346061E+03  0.29317899410E+03  0.00000000000E+00 0. -1.
</event>
<event>
 6    1  0.2809573E-005  0.6589723E+02  0.7818608E-02  0.1410795E+00
          2   -1    0    0  502    0  0.00000000000E+00  0.00000000000E+00  0.29397777274E+03  0.29397777274E+03  0.00000000000E+00 0. -1.
          1   -1    0    0  501    0 -0.00000000000E+00 -0.00000000000E+00 -0.12228131365E+03  0.12228131365E+03  0.00000000000E+00 0.  1.
          2    1    1    2  501    0 -0.26885239125E+02 -0.51104405396E+01  0.33543504815E+02  0.43290869713E+02  0.00000000000E+00 0. -1.
          1    1    1    2  502    0  0.60027355925E+02  0.12973393553E+02 -0.92132058571E+02  0.11072447162E+03  0.00000000000E+00 0.  1.
         22    1    1    2    0    0  0.30568941944E+02 -0.20726234245E+02  0.16873120389E+03  0.17272595684E+03  0.00000000000E+00 0. -1.
         22    1    1    2    0    0 -0.63711058744E+02  0.12863281232E+02  0.61553808947E+02  0.89517788211E+02  0.00000000000E+00 0. -1.
</event>
<event>
 6    1  0.2809573E-005  0.1064847E+03  0.7818608E-02  0.1349287E+00
          2   -1    0    0  502    0  0.00000000000E+00  0.00000000000E+00  0.12359892081E+03  0.12359892081E+03  0.00000000000E+00 0. -1.
          1   -1    0    0  501    0 -0.00000000000E+00 -0.00000000000E+00 -0.17107838493E+03  0.17107838493E+03  0.00000000000E+00 0. -1.
          2    1    1    2  501    0 -0.26047740502E+02  0.53789410604E+02 -0.45600230836E+02  0.75174241138E+02  0.00000000000E+00 0. -1.
          1    1    1    2  502    0  0.68238293067E+02 -0.58917036132E+02  0.91758704868E+01  0.90619415063E+02  0.00000000000E+00 0. -1.
         22    1    1    2    0    0  0.57933383973E+00 -0.23873239745E+02  0.46046981257E+02  0.51870913685E+02  0.00000000000E+00 0.  1.
         22    1    1    2    0    0 -0.42769886405E+02  0.29000865273E+02 -0.57102085030E+02  0.77012735859E+02  0.00000000000E+00 0.  1.
</event>
<event>
 6    1  0.2809573E-005  0.4032884E+03  0.7818608E-02  0.1149429E+00
          2   -1    0    0  502    0  0.00000000000E+00  0.00000000000E+00  0.18112110107E+03  0.18112110107E+03  0.00000000000E+00 0. -1.
          1   -1    0    0  501    0 -0.00000000000E+00 -0.00000000000E+00 -0.53776443766E+03  0.53776443766E+03  0.00000000000E+00 0. -1.
          2    1    1    2  501    0  0.19286535830E+03 -0.69934059165E+02 -0.11550457571E+03  0.23543391020E+03  0.00000000000E+00 0. -1.
          1    1    1    2  502    0 -0.13568988191E+02  0.68462068346E+02 -0.25627847606E+03  0.26561217881E+03  0.00000000000E+00 0. -1.
         22    1    1    2    0    0 -0.17126432353E+03 -0.21751942080E+02  0.45736988001E+02  0.17859587781E+03  0.00000000000E+00 0. -1.
         22    1    1    2    0    0 -0.80320465752E+01  0.23223932899E+02 -0.30597272828E+02  0.39243571907E+02  0.00000000000E+00 0. -1.
</event>
<event>
 6    1  0.2809573E-005  0.8327188E+02  0.7818608E-02  0.1326647E+00
          2   -1    0    0  502    0  0.00000000000E+00  0.00000000000E+00  0.36875507190E+02  0.36875507190E+02  0.00000000000E+00 0.  1.
          1   -1    0    0  501    0 -0.00000000000E+00 -0.00000000000E+00 -0.40577183506E+03  0.40577183506E+03  0.00000000000E+00 0. -1.
          2    1    1    2  501    0 -0.16230761518E+02 -0.33663544632E+02 -0.40268738696E+02  0.54938539958E+02  0.00000000000E+00 0.  1.
          1    1    1    2  502    0  0.16733447612E+02  0.12178832460E+02 -0.21280283529E+03  0.21380687298E+03  0.00000000000E+00 0. -1.
         22    1    1    2    0    0  0.71034035406E+01  0.64143723166E+02 -0.11343027476E+03  0.13050403364E+03  0.00000000000E+00 0. -1.
         22    1    1    2    0    0 -0.76060896345E+01 -0.42659010994E+02 -0.23944791296E+01  0.43397895672E+02  0.00000000000E+00 0.  1.
</event>
<event>
 6    1  0.2809573E-005  0.5045305E+03  0.7818608E-02  0.1112315E+00
          2   -1    0    0  502    0  0.00000000000E+00  0.00000000000E+00  0.16122728519E+04  0.16122728519E+04  0.00000000000E+00 0.  1.
          1   -1    0    0  501    0 -0.00000000000E+00 -0.00000000000E+00 -0.28078919917E+03  0.28078919917E+03  0.00000000000E+00 0.  1.
          2    1    1    2  501    0 -0.12812320440E+03  0.14222556371E+03  0.77987629548E+03  0.80302596641E+03  0.00000000000E+00 0.  1.
          1    1    1    2  502    0 -0.40150386570E+02 -0.36779919414E+03 -0.87950902380E+02  0.38029417821E+03  0.00000000000E+00 0.  1.
         22    1    1    2    0    0  0.17666221784E+03  0.19553488738E+03  0.48401301076E+03  0.55110074031E+03  0.00000000000E+00 0. -1.
         22    1    1    2    0    0 -0.83886268617E+01  0.30038743050E+02  0.15554524885E+03  0.15864116611E+03  0.00000000000E+00 0.  1.
</event>
<event>
 6    1  0.2809573E-005  0.1081012E+03  0.7818608E-02  0.1265370E+00
          2   -1    0    0  502    0  0.00000000000E+00  0.00000000000E+00  0.39441761325E+02  0.39441761325E+02  0.00000000000E+00 0.  1.
          1   -1    0    0  501    0 -0.00000000000E+00 -0.00000000000E+00 -0.89462117338E+03  0.89462117338E+03  0.00000000000E+00 0. -1.
          2    1    1    2  501    0  0.81868559610E+02 -0.15634911186E+02 -0.40173918416E+02  0.92524889739E+02  0.00000000000E+00 0.  1.
          1    1    1    2  502    0 -0.24532011772E+02  0.42042412160E+02 -0.41067586086E+03  0.41355053707E+03  0.00000000000E+00 0. -1.
         22    1    1    2    0    0  0.26099594531E+02 -0.16159009387E+02 -0.25392803946E+02  0.39838384898E+02  0.00000000000E+00 0. -1.
         22    1    1    2    0    0 -0.83436142369E+02 -0.10248491587E+02 -0.37893682883E+03  0.38814912299E+03  0.00000000000E+00 0. -1.
</event>
<event>
 6    1  0.2809573E-005  0.1318309E+03  0.7818608E-02  0.1227386E+00
          2   -1    0    0  502    0  0.00000000000E+00  0.00000000000E+00  0.11352587500E+03  0.11352587500E+03  0.00000000000E+00 0. -1.
          1   -1    0    0  501    0 -0.00000000000E+00 -0.00000000000E+00 -0.39474243797E+03  0.39474243797E+03  0.00000000000E+00 0. -1.
          2    1    1    2  501    0  0.67000767303E+02 -0.58962121001E+02 -0.94379835836E+02  0.12989683578E+03  0.00000000000E+00 0. -1.
          1    1    1    2  502    0  0.43943189274E+02  0.50820688388E+02 -0.20084638862E+03  0.21178531128E+03  0.00000000000E+00 0. -1.
         22    1    1    2    0    0 -0.12697445412E+03  0.36043221551E+02  0.21014980974E+02  0.13365348946E+03  0.00000000000E+00 0. -1.
         22    1    1    2    0    0  0.16030497546E+02 -0.27901788938E+02 -0.70053194937E+01  0.32932676459E+02  0.00000000000E+00 0.  1.
</event>
<event>
 6    1  0.2809573E-005  0.2349209E+03  0.7818608E-02  0.1218986E+00
          2   -1    0    0  502    0  0.00000000000E+00  0.00000000000E+00  0.48627844617E+02  0.48627844617E+02  0.00000000000E+00 0. -1.
          1   -1    0    0  501    0 -0.00000000000E+00 -0.00000000000E+00 -0.14463112542E+04  0.14463112542E+04  0.00000000000E+00 0.  1.
          2    1    1    2  501    0  0.34704568988E+02 -0.64472092014E+02 -0.37523188845E+03  0.38230881217E+03  0.00000000000E+00 0. -1.
          1    1    1    2  502    0 -0.80126864629E+01 -0.19190749575E+02 -0.94108169603E+03  0.94131145038E+03  0.00000000000E+00 0.  1.
         22    1    1    2    0    0 -0.50450747903E+02  0.94881007724E+02 -0.93441363500E+02  0.14240425557E+03  0.00000000000E+00 0. -1.
         22    1    1    2    0    0  0.23758865378E+02 -0.11218166135E+02  0.12071538421E+02  0.28914580670E+02  0.00000000000E+00 0.  1.
</event>
<event>
 6    1  0.2809573E-005  0.2326700E+03  0.7818608E-02  0.1199133E+00
          2   -1    0    0  502    0  0.00000000000E+00  0.00000000000E+00  0.17548078048E+03  0.17548078048E+03  0.00000000000E+00 0. -1.
          1   -1    0    0  501    0 -0.00000000000E+00 -0.00000000000E+00 -0.38761795189E+03  0.38761795189E+03  0.00000000000E+00 0. -1.
          2    1    1    2  501    0  0.45088979386E+02  0.10924017366E+03 -0.15608985747E+03  0.19578170295E+03  0.00000000000E+00 0. -1.
          1    1    1    2  502    0 -0.99337700835E+02 -0.18332148244E+03 -0.10995050622E+02  0.20879567972E+03  0.00000000000E+00 0. -1.
         22    1    1    2    0    0  0.26270394771E+02  0.10456940251E+03 -0.45778715884E+02  0.11713489835E+03  0.00000000000E+00 0. -1.
         22    1    1    2    0    0  0.27978326678E+02 -0.30488093725E+02  0.72645256431E+00  0.41386451358E+02  0.00000000000E+00 0.  1.
</event>
<event>
 6    1  0.2809573E-005  0.8662560E+02  0.7818608E-02  0.1334280E+00
          2   -1    0    0  502    0  0.00000000000E+00  0.00000000000E+00  0.95853614990E+02  0.95853614990E+02  0.00000000000E+00 0. -1.
          1   -1    0    0  501    0 -0.00000000000E+00 -0.00000000000E+00 -0.41008258208E+03  0.41008258208E+03  0.00000000000E+00 0. -1.
          2    1    1    2  501    0 -0.81376523630E+02  0.84866182881E+01 -0.30755003152E+03  0.31824704739E+03  0.00000000000E+00 0. -1.
          1    1    1    2  502    0  0.28497722615E+02 -0.30533287693E+02 -0.22861326439E+02  0.47613465513E+02  0.00000000000E+00 0. -1.
         22    1    1    2    0    0 -0.36123431412E+01  0.25747375340E+02 -0.47941227104E+02  0.54537488172E+02  0.00000000000E+00 0.  1.
         22    1    1    2    0    0  0.56491144157E+02 -0.37007059353E+01  0.64123617969E+02  0.85538195994E+02  0.00000000000E+00 0. -1.
</event>
<event>
 6    1  0.2809573E-005  0.1703817E+03  0.7818608E-02  0.1195478E+00
          2   -1    0    0  502    0  0.00000000000E+00  0.00000000000E+00  0.10650440357E+03  0.10650440357E+03  0.00000000000E+00 0. -1.
          1   -1    0    0  501    0 -0.00000000000E+00 -0.00000000000E+00 -0.56987011578E+03  0.56987011578E+03  0.00000000000E+00 0. -1.
          2    1    1    2  501    0 -0.93723324620E+02  0.62360857970E+02 -0.42629627690E+03  0.44090980244E+03  0.00000000000E+00 0. -1.
          1    1    1    2  502    0 -0.32305710484E+02 -0.28107813214E+02 -0.33855869135E+02  0.54588716493E+02  0.00000000000E+00 0. -1.
         22    1    1    2    0    0  0.97853011120E+02 -0.60525273492E+02  0.41080612231E+02  0.12217257146E+03  0.00000000000E+00 0. -1.
         22    1    1    2    0    0  0.28176023984E+02  0.26272228736E+02 -0.44294178411E+02  0.58703428958E+02  0.00000000000E+00 0. -1.
</event>
<event>
 6    1  0.2809573E-005  0.4386379E+02  0.7818608E-02  0.1543658E+00
          2   -1    0    0  502    0  0.00000000000E+00  0.00000000000E+00  0.13225298123E+03  0.13225298123E+03  0.00000000000E+00 0.  1.
          1   -1    0    0  501    0 -0.00000000000E+00 -0.00000000000E+00 -0.99685667333E+02  0.99685667333E+02  0.00000000000E+00 0. -1.
          2    1    1    2  501    0 -0.23398731064E+02  0.48661817533E+01 -0.28516641036E+02  0.37207246018E+02  0.00000000000E+00 0.  1.
          1    1    1    2  502    0  0.40913632858E+02  0.80336558371E+00 -0.22008479604E+02  0.46464437201E+02  0.00000000000E+00 0. -1.
         22    1    1    2    0    0  0.99963073940E+00 -0.18926286045E+02  0.11079632230E+03  0.11240564310E+03  0.00000000000E+00 0.  1.
         22    1    1    2    0    0 -0.18514532533E+02  0.13256738708E+02 -0.27703887762E+02  0.35861322246E+02  0.00000000000E+00 0.  1.
</event>
<event>
 6    1  0.2809573E-005  0.1438298E+03  0.7818608E-02  0.1208949E+00
          2   -1    0    0  502    0  0.00000000000E+00  0.00000000000E+00  0.14891258041E+03  0.14891258041E+03  0.00000000000E+00 0.  1.
          1   -1    0    0  501    0 -0.00000000000E+00 -0.00000000000E+00 -0.38678364392E+03  0.38678364392E+03  0.00000000000E+00 0.  1.
          2    1    1    2  501    0  0.11276730906E+03 -0.11621032365E+02  0.48433582115E+01  0.11346793602E+03  0.00000000000E+00 0.  1.
          1    1    1    2  502    0  0.83076871515E+01 -0.27200150100E+02 -0.24569366736E+03  0.24733427585E+03  0.00000000000E+00 0.  1.
         22    1    1    2    0    0 -0.14149487636E+03  0.51225451118E+02 -0.19683091545E+01  0.15049492058E+03  0.00000000000E+00 0.  1.
         22    1    1    2    0    0  0.20419880145E+02 -0.12404268653E+02  0.49475547905E+01  0.24399091876E+02  0.00000000000E+00 0.  1.
</event>
<event>
 6    1  0.2809573E-005  0.1435659E+03  0.7818608E-02  0.1347164E+00
          2   -1    0    0  502    0  0.00000000000E+00  0.00000000000E+00  0.55814659110E+02  0.55814659110E+02  0.00000000000E+00 0. -1.
          1   -1    0    0  501    0 -0.00000000000E+00 -0.00000000000E+00 -0.59619377787E+03  0.59619377787E+03  0.00000000000E+00 0. -1.
          2    1    1    2  501    0 -0.36176452177E+02 -0.31458385563E+02 -0.36300782581E+01  0.48078510610E+02  0.00000000000E+00 0. -1.
          1    1    1    2  502    0 -0.25761426524E+02  0.48980216162E+02 -0.40832837916E+03  0.41206161906E+03  0.00000000000E+00 0. -1.
         22    1    1    2    0    0  0.16069367371E+01  0.99761455997E+01  0.23788380872E+02  0.25845556508E+02  0.00000000000E+00 0. -1.
         22    1    1    2    0    0  0.60330941964E+02 -0.27497976199E+02 -0.15220904222E+03  0.16602275081E+03  0.00000000000E+00 0. -1.
</event>
<event>
 6    1  0.2809573E-005  0.2119640E+03  0.7818608E-02  0.1204994E+00
          2   -1    0    0  502    0  0.00000000000E+00  0.00000000000E+00  0.93141603973E+02  0.93141603973E+02  0.00000000000E+00 0.  1.
          1   -1    0    0  501    0 -0.00000000000E+00 -0.00000000000E+00 -0.77878632182E+03  0.77878632182E+03  0.00000000000E+00 0.  1.
          2    1    1    2  501    0  0.17543376805E+02 -0.17286437325E+03 -0.13758895936E+03  0.22163163886E+03  0.00000000000E+00 0.  1.
          1    1    1    2  502    0 -0.99114301392E+00  0.18737129915E+03 -0.46602475463E+03  0.50228284665E+03  0.00000000000E+00 0.  1.
         22    1    1    2    0    0  0.23200022508E+02 -0.41781136477E+02  0.54785875710E+01  0.48103215397E+02  0.00000000000E+00 0.  1.
         22    1    1    2    0    0 -0.39752256299E+02  0.27274210575E+02 -0.87509591428E+02  0.99910224878E+02  0.00000000000E+00 0. -1.
</event>
<event>
 6    1  0.2809573E-005  0.5279657E+02  0.7818608E-02  0.1476692E+00
          2   -1    0    0  502    0  0.00000000000E+00  0.00000000000E+00  0.12600839922E+03  0.12600839922E+03  0.00000000000E+00 0. -1.
          1   -1    0    0  501    0 -0.00000000000E+00 -0.00000000000E+00 -0.99618693553E+02  0.99618693553E+02  0.00000000000E+00 0. -1.
          2    1    1    2  501    0  0.88010992404E+01  0.27593984421E+02 -0.28512664893E+01  0.29103557251E+02  0.00000000000E+00 0. -1.
          1    1    1    2  502    0 -0.23670661717E+02 -0.34645453759E+02 -0.35792472313E+02  0.55151688701E+02  0.00000000000E+00 0. -1.
         22    1    1    2    0    0  0.19069234486E+02  0.33670143433E+02 -0.25877764995E+02  0.46550757070E+02  0.00000000000E+00 0. -1.
         22    1    1    2    0    0 -0.41996720092E+01 -0.26618674094E+02  0.90911209460E+02  0.94821089748E+02  0.00000000000E+00 0. -1.
</event>
<event>
 6    1  0.2809573E-005  0.5330157E+02  0.7818608E-02  0.1503153E+00
          2   -1    0    0  502    0  0.00000000000E+00  0.00000000000E+00  0.55198941555E+02  0.55198941555E+02  0.00000000000E+00 0. -1.
          1   -1    0    0  501    0 -0.00000000000E+00 -0.00000000000E+00 -0.69978108223E+03  0.69978108223E+03  0.00000000000E+00 0. -1.
          2    1    1    2  501    0  0.16278712900E+02  0.21472268426E+02 -0.80380366015E+02  0.84776518245E+02  0.00000000000E+00 0. -1.
          1    1    1    2  502    0 -0.38922070892E+02 -0.75296684276E+01 -0.53613137945E+03  0.53759508884E+03  0.00000000000E+00 0. -1.
         22    1    1    2    0    0 -0.15042299531E+02 -0.10089122707E+02  0.45986559375E+02  0.49424941227E+02  0.00000000000E+00 0. -1.
         22    1    1    2    0    0  0.37685657523E+02 -0.38534772919E+01 -0.74056954583E+02  0.83183475477E+02  0.00000000000E+00 0. -1.
</event>
<event>
 6    1  0.2809573E-005  0.6159463E+02  0.7818608E-02  0.1504254E+00
          2   -1    0    0  502    0  0.00000000000E+00  0.00000000000E+00  0.59045613101E+02  0.59045613101E+02  0.00000000000E+00 0.  1.
          1   -1    0    0  501    0 -0.00000000000E+00 -0.00000000000E+00 -0.63651798773E+03  0.63651798773E+03  0.00000000000E+00 0.  1.
          2    1    1    2  501    0 -0.14612652828E+01  0.43367417385E+02 -0.38436140989E+03  0.38680300102E+03  0.00000000000E+00 0.  1.
          1    1    1    2  502    0 -0.27002257480E+01 -0.54866737120E+02 -0.17558304016E+03  0.18397568876E+03  0.00000000000E+00 0.  1.
         22    1    1    2    0    0  0.11033683447E+02 -0.34546320685E+01  0.52033817676E+02  0.53302859539E+02  0.00000000000E+00 0.  1.
         22    1    1    2    0    0 -0.68721924160E+01  0.14953951804E+02 -0.69561742256E+02  0.71482051515E+02  0.00000000000E+00 0.  1.
</event>
<event>
 6    1  0.2809573E-005  0.1448274E+03  0.7818608E-02  0.1271336E+00
          2   -1    0    0  502    0  0.00000000000E+00  0.00000000000E+00  0.56253708161E+03  0.56253708161E+03  0.00000000000E+00 0.  1.
          1   -1    0    0  501    0 -0.00000000000E+00 -0.00000000000E+00 -0.22598989597E+03  0.22598989597E+03  0.00000000000E+00 0.  1.
          2    1    1    2  501    0  0.14201174618E+02  0.30610982302E+02  0.44799781556E+02  0.56086772286E+02  0.00000000000E+00 0.  1.
          1    1    1    2  502    0  0.68713444837E+02 -0.95169722246E+02 -0.19009343165E+03  0.22341514338E+03  0.00000000000E+00 0.  1.
         22    1    1    2    0    0 -0.23000722085E+02 -0.31599520256E+02  0.55457379344E+02  0.67846030249E+02  0.00000000000E+00 0.  1.
         22    1    1    2    0    0 -0.59913897370E+02  0.96158260201E+02  0.42638345638E+03  0.44117903167E+03  0.00000000000E+00 0.  1.
</event>
<event>
 6    1  0.2809573E-005  0.2737245E+03  0.7818608E-02  0.1192932E+00
          2   -1    0    0  502    0  0.00000000000E+00  0.00000000000E+00  0.13234167534E+03  0.13234167534E+03  0.00000000000E+00 0. -1.
          1   -1    0    0  501    0 -0.00000000000E+00 -0.00000000000E+00 -0.58987674547E+03  0.58987674547E+03  0.00000000000E+00 0. -1.
          2    1    1    2  501    0  0.61258430676E+02 -0.91588728134E+02  0.42383566028E+02  0.11805700792E+03  0.00000000000E+00 0. -1.
          1    1    1    2  502    0  0.45646452002E+02  0.33379349784E+02 -0.39268482458E+03  0.39673561855E+03  0.00000000000E+00 0. -1.
         22    1    1    2    0    0 -0.11764084479E+03  0.31157631557E+02 -0.12407907906E+03  0.17379811341E+03  0.00000000000E+00 0. -1.
         22    1    1    2    0    0  0.10735962108E+02  0.27051746792E+02  0.16845267484E+02  0.33627680912E+02  0.00000000000E+00 0. -1.
</event>
<event>
 6    1  0.2809573E-005  0.1457479E+03  0.7818608E-02  0.1225889E+00
          2   -1    0    0  502    0  0.00000000000E+00  0.00000000000E+00  0.16065715822E+03  0.16065715822E+03  0.00000000000E+00 0. -1.
          1   -1    0    0  501    0 -0.00000000000E+00 -0.00000000000E+00 -0.26507738558E+03  0.26507738558E+03  0.00000000000E+00 0. -1.
          2    1    1    2  501    0  0.79675711787E+02  0.95508873311E+02 -0.13114110595E+03  0.18074333625E+03  0.00000000000E+00 0. -1.
          1    1    1    2  502    0 -0.82594175111E+02  0.61303603383E+01 -0.56761264896E+01  0.83015646068E+02  0.00000000000E+00 0. -1.
         22    1    1    2    0    0  0.48324920275E+02 -0.23214484858E+02 -0.20089450918E+02  0.57252041579E+02  0.00000000000E+00 0.  1.
         22    1    1    2    0    0 -0.45406456951E+02 -0.78424748792E+02  0.52486456004E+02  0.10472351990E+03  0.00000000000E+00 0.  1.
</event>
<event>
 6    1  0.2809573E-005  0.7376246E+03  0.7818608E-02  0.1077080E+00
          2   -1    0    0  502    0  0.00000000000E+00  0.00000000000E+00  0.59367649937E+03  0.59367649937E+03  0.00000000000E+00 0. -1.
          1   -1    0    0  501    0 -0.00000000000E+00 -0.00000000000E+00 -0.56101775336E+03  0.56101775336E+03  0.00000000000E+00 0. -1.
          2    1    1    2  501    0 -0.48112496837E+02 -0.13543781003E+03 -0.21575711697E+03  0.25924765430E+03  0.00000000000E+00 0. -1.
          1    1    1    2  502    0  0.15332415684E+02 -0.14526822267E+02 -0.30603049479E+03  0.30675849667E+03  0.00000000000E+00 0. -1.
         22    1    1    2    0    0  0.18439094616E+02  0.17030435920E+03  0.50624011997E+03  0.53443674466E+03  0.00000000000E+00 0. -1.
         22    1    1    2    0    0  0.14340986537E+02 -0.20339726903E+02  0.48206237793E+02  0.54251357103E+02  0.00000000000E+00 0. -1.
</event>
<event>
 6    1  0.2809573E-005  0.1615172E+03  0.7818608E-02  0.1280228E+00
          2   -1    0    0  502    0  0.00000000000E+00  0.00000000000E+00  0.15871702171E+03  0.15871702171E+03  0.00000000000E+00 0. -1.
          1   -1    0    0  501    0 -0.00000000000E+00 -0.00000000000E+00 -0.48515856059E+03  0.48515856059E+03  0.00000000000E+00 0. -1.
          2    1    1    2  501    0 -0.18654528423E+01  0.35785153463E+02 -0.36680805837E+01  0.36020993016E+02  0.00000000000E+00 0. -1.
          1    1    1    2  502    0  0.67054621322E+02  0.47972841221E+02 -0.41221931520E+03  0.42038372895E+03  0.00000000000E+00 0. -1.
         22    1    1    2    0    0 -0.14327324270E+02  0.18958334360E+02 -0.18428703803E+02  0.30071710731E+02  0.00000000000E+00 0. -1.
         22    1    1    2    0    0 -0.50861844210E+02 -0.10271632904E+03  0.10787456071E+03  0.15739914961E+03  0.00000000000E+00 0. -1.
</event>
<event>
 6    1  0.2809573E-005  0.9975320E+02  0.7818608E-02  0.1284494E+00
          2   -1    0    0  502    0  0.00000000000E+00  0.00000000000E+00  0.21872037877E+03  0.21872037877E+03  0.00000000000E+00 0. -1.
          1   -1    0    0  501    0 -0.00000000000E+00 -0.00000000000E+00 -0.19894215999E+03  0.19894215999E+03  0.00000000000E+00 0.  1.
          2    1    1    2  501    0  0.29606237742E+02  0.40622540197E+02  0.95185017305E+01  0.51159768964E+02  0.00000000000E+00 0. -1.
          1    1    1    2  502    0  0.23229324524E+02 -0.26280619247E+02 -0.14987337645E+03  0.15392303737E+03  0.00000000000E+00 0.  1.
         22    1    1    2    0    0 -0.89702893455E+02 -0.35717131680E+02  0.12021761430E+03  0.15419013385E+03  0.00000000000E+00 0. -1.
         22    1    1    2    0    0  0.36867331189E+02  0.21375210730E+02  0.39915479191E+02  0.58389598576E+02  0.00000000000E+00 0.  1.
</event>
<event>
 6    1  0.2809573E-005  0.8847165E+02  0.7818608E-02  0.1309638E+00
          2   -1    0    0  502    0  0.00000000000E+00  0.00000000000E+00  0.13438037851E+03  0.13438037851E+03  0.00000000000E+00 0.  1.
          1   -1    0    0  501    0 -0.00000000000E+00 -0.00000000000E+00 -0.55649653277E+03  0.55649653277E+03  0.00000000000E+00 0.  1.
          2    1    1    2  501    0 -0.33090838492E+02  0.45687372137E+02 -0.21626385103E+02  0.60415561716E+02  0.00000000000E+00 0.  1.
          1    1    1    2  502    0  0.38470771254E+00 -0.29234318645E+02 -0.47679983185E+03  0.47769537682E+03  0.00000000000E+00 0.  1.
         22    1    1    2    0    0  0.69648967948E+02 -0.39805579160E+02  0.73775723778E+02  0.10898770705E+03  0.00000000000E+00 0.  1.
         22    1    1    2    0    0 -0.36942837168E+02  0.23352525668E+02  0.25343389131E+01  0.43778265690E+02  0.00000000000E+00 0.  1.
</event>
<event>
 6    1  0.2809573E-005  0.7291903E+02  0.7818608E-02  0.1369869E+00
          2   -1    0    0  502    0  0.00000000000E+00  0.00000000000E+00  0.23900961914E+02  0.23900961914E+02  0.00000000000E+00 0. -1.
          1   -1    0    0  501    0 -0.00000000000E+00 -0.00000000000E+00 -0.12866679705E+04  0.12866679705E+04  0.00000000000E+00 0.  1.
          2    1    1    2  501    0  0.20397049751E+02 -0.49922850666E+00 -0.12535450031E+02  0.23946322789E+02  0.00000000000E+00 0. -1.
          1    1    1    2  502    0 -0.63766368459E+02  0.31157567951E+02 -0.97696779412E+03  0.97954224744E+03  0.00000000000E+00 0.  1.
         22    1    1    2    0    0 -0.22899152123E+02 -0.47362491196E+02 -0.20036627094E+03  0.20715747458E+03  0.00000000000E+00 0. -1.
         22    1    1    2    0    0  0.66268470831E+02  0.16704151751E+02 -0.72897493539E+02  0.99922887650E+02  0.00000000000E+00 0. -1.
</event>
<event>
 6    1  0.2809573E-005  0.1971816E+03  0.7818608E-02  0.1268587E+00
          2   -1    0    0  502    0  0.00000000000E+00  0.00000000000E+00  0.44572745083E+03  0.44572745083E+03  0.00000000000E+00 0. -1.
          1   -1    0    0  501    0 -0.00000000000E+00 -0.00000000000E+00 -0.20714289151E+03  0.20714289151E+03  0.00000000000E+00 0. -1.
          2    1    1    2  501    0 -0.42734538182E+02 -0.82701591969E+02  0.12304821343E+03  0.15429405982E+03  0.00000000000E+00 0. -1.
          1    1    1    2  502    0  0.26699880606E+02  0.99776894739E+01 -0.17353482488E+03  0.17586009598E+03  0.00000000000E+00 0. -1.
         22    1    1    2    0    0  0.11947299675E+02  0.88536292005E+02  0.29266179939E+03  0.30599402248E+03  0.00000000000E+00 0. -1.
         22    1    1    2    0    0  0.40873579004E+01 -0.15812389510E+02 -0.35906286306E+01  0.16722164052E+02  0.00000000000E+00 0.  1.
</event>
<event>
 6    1  0.2809573E-005  0.2940320E+03  0.7818608E-02  0.1140243E+00
          2   -1    0    0  502    0  0.00000000000E+00  0.00000000000E+00  0.16599798615E+04  0.16599798615E+04  0.00000000000E+00 0. -1.
          1   -1    0    0  501    0 -0.00000000000E+00 -0.00000000000E+00 -0.11080417382E+04  0.11080417382E+04  0.00000000000E+00 0.  1.
          2    1    1    2  501    0  0.11866121822E+03 -0.53035972205E+02  0.85487550261E+03  0.86469961491E+03  0.00000000000E+00 0. -1.
          1    1    1    2  502    0 -0.25490744574E+03  0.12580895213E+03 -0.10721886035E+04  0.11092313104E+04  0.00000000000E+00 0.  1.
         22    1    1    2    0    0  0.75997830051E+02  0.21510000954E+02  0.22508801454E+03  0.23854342288E+03  0.00000000000E+00 0.  1.
         22    1    1    2    0    0  0.60248397468E+02 -0.94282980882E+02  0.54416320973E+03  0.55554725155E+03  0.00000000000E+00 0. -1.
</event>
<event>
 6    1  0.2809573E-005  0.8432812E+02  0.7818608E-02  0.1396159E+00
          2   -1    0    0  502    0  0.00000000000E+00  0.00000000000E+00  0.11780119064E+03  0.11780119064E+03  0.00000000000E+00 0. -1.
          1   -1    0    0  501    0 -0.00000000000E+00 -0.00000000000E+00 -0.32403046485E+03  0.32403046485E+03  0.00000000000E+00 0. -1.
          2    1    1    2  501    0  0.35482670486E+02  0.33047316981E+02 -0.14971011590E+03  0.15736665424E+03  0.00000000000E+00 0. -1.
          1    1    1    2  502    0 -0.11548254462E+01 -0.21460739915E+02 -0.13467852574E+03  0.13638255854E+03  0.00000000000E+00 0. -1.
         22    1    1    2    0    0 -0.40693578708E+01 -0.21685413649E+02  0.10444401842E+03  0.10674909752E+03  0.00000000000E+00 0. -1.
         22    1    1    2    0    0 -0.30258487169E+02  0.10098836583E+02 -0.26284650988E+02  0.41333345179E+02  0.00000000000E+00 0. -1.
</event>
<event>
 6    1  0.2809573E-005  0.1632178E+03  0.7818608E-02  0.1269891E+00
          2   -1    0    0  502    0  0.00000000000E+00  0.00000000000E+00  0.15906350945E+02  0.15906350945E+02  0.00000000000E+00 0. -1.
          1   -1    0    0  501    0 -0.00000000000E+00 -0.00000000000E+00 -0.13298600799E+04  0.13298600799E+04  0.00000000000E+00 0.  1.
          2    1    1    2  501    0 -0.10119384377E+02 -0.81024858493E+02 -0.34040321351E+03  0.35005967691E+03  0.00000000000E+00 0. -1.
          1    1    1    2  502    0  0.38577881014E+02  0.52318085821E+01 -0.46445438674E+03  0.46608314932E+03  0.00000000000E+00 0.  1.
         22    1    1    2    0    0  0.27145667152E+02  0.71783959198E+01 -0.25182895809E+02  0.37717301792E+02  0.00000000000E+00 0. -1.
         22    1    1    2    0    0 -0.55604163789E+02  0.68614653991E+02 -0.48391323287E+03  0.49190630278E+03  0.00000000000E+00 0. -1.
</event>
<event>
 6    1  0.2809573E-005  0.1916205E+03  0.7818608E-02  0.1282882E+00
          2   -1    0    0  502    0  0.00000000000E+00  0.00000000000E+00  0.18238540547E+02  0.18238540547E+02  0.00000000000E+00 0. -1.
          1   -1    0    0  501    0 -0.00000000000E+00 -0.00000000000E+00 -0.23135755940E+04  0.23135755940E+04  0.00000000000E+00 0. -1.
          2    1    1    2  501    0  0.61478966570E+02  0.26487678196E+02 -0.18879745937E+04  0.18891610113E+04  0.00000000000E+00 0. -1.
          1    1    1    2  502    0  0.18170905674E+02 -0.12925547660E+02 -0.92182348319E+02  0.94841114169E+02  0.00000000000E+00 0. -1.
         22    1    1    2    0    0 -0.66229101378E+02 -0.15292119253E+02 -0.32439557779E+03  0.33144024148E+03  0.00000000000E+00 0. -1.
         22    1    1    2    0    0 -0.13420770865E+02  0.17299887167E+01  0.92154663629E+01  0.16371767524E+02  0.00000000000E+00 0. -1.
</event>
<event>
 6    1  0.2809573E-005  0.8043563E+02  0.7818608E-02  0.1454543E+00
          2   -1    0    0  502    0  0.00000000000E+00  0.00000000000E+00  0.36482759022E+02  0.36482759022E+02  0.00000000000E+00 0. -1.
          1   -1    0    0  501    0 -0.00000000000E+00 -0.00000000000E+00 -0.47975928756E+03  0.47975928756E+03  0.00000000000E+00 0.  1.
          2    1    1    2  501    0  0.10530785178E+01 -0.20398785157E+02 -0.11402749749E+03  0.11584252067E+03  0.00000000000E+00 0. -1.
          1    1    1    2  502    0  0.77319619360E+00  0.83420704448E+02 -0.17249705601E+03  0.19161118468E+03  0.00000000000E+00 0.  1.
         22    1    1    2    0    0  0.49842388049E+01 -0.55047377824E+02 -0.17730171349E+03  0.18571740373E+03  0.00000000000E+00 0. -1.
         22    1    1    2    0    0 -0.68105135163E+01 -0.79745414671E+01  0.20549738463E+02  0.23070937494E+02  0.00000000000E+00 0. -1.
</event>
<event>
 6    1  0.2809573E-005  0.2408940E+03  0.7818608E-02  0.1150210E+00
          2   -1    0    0  502    0  0.00000000000E+00  0.00000000000E+00  0.29154742809E+03  0.29154742809E+03  0.00000000000E+00 0.  1.
          1   -1    0    0  501    0 -0.00000000000E+00 -0.00000000000E+00 -0.68423400194E+03  0.68423400194E+03  0.00000000000E+00 0.  1.
          2    1    1    2  501    0 -0.11566826691E+03 -0.14536951736E+03  0.17863101385E+02  0.18662940534E+03  0.00000000000E+00 0.  1.
          1    1    1    2  502    0  0.19206667532E+03  0.10830869615E+03 -0.54562952562E+03  0.58849975417E+03  0.00000000000E+00 0.  1.
         22    1    1    2    0    0 -0.89545859202E+02  0.69228394911E+02  0.96605234516E+02  0.14880726762E+03  0.00000000000E+00 0. -1.
         22    1    1    2    0    0  0.13147450791E+02 -0.32167573701E+02  0.38474615859E+02  0.51845002899E+02  0.00000000000E+00 0. -1.
</event>
<event>
 6    1  0.2809573E-005  0.1152275E+03  0.7818608E-02  0.1288079E+00
          2   -1    0    0  502    0  0.00000000000E+00  0.00000000000E+00  0.58976446064E+03  0.58976446064E+03  0.00000000000E+00 0. -1.
          1   -1    0    0  501    0 -0.00000000000E+00 -0.00000000000E+00 -0.18558073693E+03  0.18558073693E+03  0.00000000000E+00 0. -1.
          2    1    1    2  501    0 -0.28411353035E+02 -0.12237465424E+01  0.25449002801E+02  0.38162210109E+02  0.00000000000E+00 0. -1.
          1    1    1    2  502    0  0.12841287237E+01 -0.26407224727E+02 -0.17008914954E+03  0.17213166268E+03  0.00000000000E+00 0. -1.
         22    1    1    2    0    0  0.67064893071E+02 -0.17390046091E+02  0.21629482953E+03  0.22712015954E+03  0.00000000000E+00 0.  1.
         22    1    1    2    0    0 -0.39937668760E+02  0.45021017361E+02  0.33252904092E+03  0.33793116525E+03  0.00000000000E+00 0. -1.
</event>
<event>
 6    1  0.2809573E-005  0.3833603E+02  0.7818608E-02  0.1526713E+00
          2   -1    0    0  502    0  0.00000000000E+00  0.00000000000E+00  0.43465510913E+03  0.43465510913E+03  0.00000000000E+00 0. -1.
          1   -1    0    0  501    0 -0.00000000000E+00 -0.00000000000E+00 -0.66120138037E+02  0.66120138037E+02  0.00000000000E+00 0. -1.
          2    1    1    2  501    0 -0.37593159344E+02 -0.23653419128E+01 -0.32145799306E+02  0.49519621211E+02  0.00000000000E+00 0. -1.
          1    1    1    2  502    0  0.31864198629E+02  0.10140369167E+02  0.26548624084E+03  0.26758381550E+03  0.00000000000E+00 0. -1.
         22    1    1    2    0    0 -0.24934083908E+02  0.85252275523E+01 -0.14448419581E+02  0.30052368851E+02  0.00000000000E+00 0. -1.
         22    1    1    2    0    0  0.30663044622E+02 -0.16300254807E+02  0.14964294914E+03  0.15361944161E+03  0.00000000000E+00 0.  1.
</event>
<event>
 6    1  0.2809573E-005  0.1814718E+03  0.7818608E-02  0.1252100E+00
          2   -1    0    0  502    0  0.00000000000E+00  0.00000000000E+00  0.31477731641E+03  0.31477731641E+03  0.00000000000E+00 0.  1.
          1   -1    0    0  501    0 -0.00000000000E+00 -0.00000000000E+00 -0.62328561205E+03  0.62328561205E+03  0.00000000000E+00 0. -1.
          2    1    1    2  501    0  0.66840075248E+02 -0.59972981059E+02  0.15780941196E+03  0.18157137610E+03  0.00000000000E+00 0.  1.
          1    1    1    2  502    0 -0.59914697779E+02  0.20257575923E+02 -0.58154604993E+03  0.58497516920E+03  0.00000000000E+00 0. -1.
         22    1    1    2    0    0 -0.32005349481E+00 -0.28963533371E+02  0.95440502117E+02  0.99739050245E+02  0.00000000000E+00 0.  1.
         22    1    1    2    0    0 -0.66053239743E+01  0.68678938506E+02  0.19787840211E+02  0.71777332907E+02  0.00000000000E+00 0.  1.
</event>
<event>
 6    1  0.2809573E-005  0.6768395E+02  0.7818608E-02  0.1373237E+00
          2   -1    0    0  502    0  0.00000000000E+00  0.00000000000E+00  0.28169977513E+03  0.28169977513E+03  0.00000000000E+00 0. -1.
          1   -1    0    0  501    0 -0.00000000000E+00 -0.00000000000E+00 -0.51506684397E+02  0.51506684397E+02  0.00000000000E+00 0.  1.
          2    1    1    2  501    0 -0.22951384329E+02 -0.29422163968E+02  0.95321775899E+02  0.10236537860E+03  0.00000000000E+00 0. -1.
          1    1    1    2  502    0 -0.33155449421E+02 -0.15686228732E+02  0.34555861011E+01  0.36841317477E+02  0.00000000000E+00 0.  1.
         22    1    1    2    0    0 -0.24142101460E+02  0.75962708273E+01 -0.99318093062E+01  0.27187961113E+02  0.00000000000E+00 0.  1.
         22    1    1    2    0    0  0.80248935209E+02  0.37512121873E+02  0.14134753804E+03  0.16681180234E+03  0.00000000000E+00 0. -1.
</event>
<event>
 6    1  0.2809573E-005  0.1475747E+03  0.7818608E-02  0.1204340E+00
          2   -1    0    0  502    0  0.00000000000E+00  0.00000000000E+00  0.23972627424E+03  0.23972627424E+03  0.00000000000E+00 0.  1.
          1   -1    0    0  501    0 -0.00000000000E+00 -0.00000000000E+00 -0.25167772830E+03  0.25167772830E+03  0.00000000000E+00 0. -1.
          2    1    1    2  501    0 -0.12026246814E+03  0.19808621517E+02  0.82976882857E+02  0.14744695934E+03  0.00000000000E+00 0.  1.
          1    1    1    2  502    0 -0.18388462888E+02 -0.42119309061E+02 -0.14367511885E+03  0.15084664908E+03  0.00000000000E+00 0. -1.
         22    1    1    2    0    0  0.15700441649E+03  0.22780763989E+02  0.21275302232E+02  0.16006869928E+03  0.00000000000E+00 0.  1.
         22    1    1    2    0    0 -0.18353485457E+02 -0.47007644433E+00  0.27471479705E+02  0.33041694834E+02  0.00000000000E+00 0. -1.
</event>
<event>
 6    1  0.2809573E-005  0.6520821E+02  0.7818608E-02  0.1447870E+00
          2   -1    0    0  502    0  0.00000000000E+00  0.00000000000E+00  0.16656954894E+03  0.16656954894E+03  0.00000000000E+00 0. -1.
          1   -1    0    0  501    0 -0.00000000000E+00 -0.00000000000E+00 -0.15929829738E+03  0.15929829738E+03  0.00000000000E+00 0. -1.
          2    1    1    2  501    0 -0.15093426443E+02 -0.24866647599E+02 -0.90775727013E+02  0.95322580217E+02  0.00000000000E+00 0. -1.
          1    1    1    2  502    0 -0.59958531809E+01  0.70356950104E+02  0.48264014541E+02  0.85530496216E+02  0.00000000000E+00 0. -1.
         22    1    1    2    0    0  0.15426102271E+02 -0.15280101493E+02  0.91025125579E+02  0.93578948592E+02  0.00000000000E+00 0. -1.
         22    1    1    2    0    0  0.56631773523E+01 -0.30210201012E+02 -0.41242161543E+02  0.51435821289E+02  0.00000000000E+00 0. -1.
</event>
<event>
 6    1  0.2809573E-005  0.4773548E+03  0.7818608E-02  0.1083270E+00
          2   -1    0    0  502    0  0.00000000000E+00  0.00000000000E+00  0.79828473732E+03  0.79828473732E+03  0.00000000000E+00 0. -1.
          1   -1    0    0  501    0 -0.00000000000E+00 -0.00000000000E+00 -0.50674318849E+03  0.50674318849E+03  0.00000000000E+00 0. -1.
          2    1    1    2  501    0 -0.20964108712E+03 -0.34576532893E+03  0.34213142444E+03  0.52967627820E+03  0.00000000000E+00 0. -1.
          1    1    1    2  502    0  0.21255424350E+03  0.40007026687E+03 -0.26314698997E+03  0.52391016711E+03  0.00000000000E+00 0. -1.
         22    1    1    2    0    0  0.52030907116E+02 -0.58771086011E+02  0.13731812480E+03  0.15816928667E+03  0.00000000000E+00 0.  1.
         22    1    1    2    0    0 -0.54944063502E+02  0.44661480644E+01  0.75238989558E+02  0.93272193833E+02  0.00000000000E+00 0. -1.
</event>
<event>
 6    1  0.2809573E-005  0.9708666E+02  0.7818608E-02  0.1382635E+00
          2   -1    0    0  502    0  0.00000000000E+00  0.00000000000E+00  0.78748338011E+02  0.78748338011E+02  0.00000000000E+00 0.  1.
          1   -1    0    0  501    0 -0.00000000000E+00 -0.00000000000E+00 -0.32624254610E+03  0.32624254610E+03  0.00000000000E+00 0. -1.
          2    1    1    2  501    0 -0.19623915095E+02 -0.84973350174E+01  0.21903984116E+02  0.30611881129E+02  0.00000000000E+00 0.  1.
          1    1    1    2  502    0  0.30967165633E+02  0.14117939414E+02 -0.23751223744E+03  0.23993820975E+03  0.00000000000E+00 0. -1.
         22    1    1    2    0    0  0.15842481347E+01 -0.18008815472E+02  0.48669920445E+02  0.51919056549E+02  0.00000000000E+00 0. -1.
         22    1    1    2    0    0 -0.12927498672E+02  0.12388211075E+02 -0.80555875208E+02  0.82521736689E+02  0.00000000000E+00 0. -1.
</event>
<event>
 6    1  0.2809573E-005  0.1071796E+03  0.7818608E-02  0.1346345E+00
          2   -1    0    0  502    0  0.00000000000E+00  0.00000000000E+00  0.54085443656E+02  0.54085443656E+02  0.00000000000E+00 0.  1.
          1   -1    0    0  501    0 -0.00000000000E+00 -0.00000000000E+00 -0.16418562072E+04  0.16418562072E+04  0.00000000000E+00 0.  1.
          2    1    1    2  501    0 -0.68112462412E+02 -0.50069843395E+02 -0.36096050974E+03  0.37072737469E+03  0.00000000000E+00 0.  1.
          1    1    1    2  502    0  0.88490096222E+02  0.47862864512E+02 -0.11930345438E+04  0.11972688811E+04  0.00000000000E+00 0.  1.
         22    1    1    2    0    0 -0.20481326353E+02 -0.22421502335E+02 -0.74444631594E+02  0.80400321326E+02  0.00000000000E+00 0. -1.
         22    1    1    2    0    0  0.10369254316E+00  0.24628481218E+02  0.40668921676E+02  0.47545073662E+02  0.00000000000E+00 0.  1.
</event>
<event>
 6    1  0.3526543E-005  0.5171084E+02  0.7818608E-02  0.1441546E+00
          2   -1    0    0  502    0  0.00000000000E+00  0.00000000000E+00  0.11305319541E+03  0.11305319541E+03  0.00000000000E+00 0.  1.
          1   -1    0    0  501    0 -0.00000000000E+00 -0.00000000000E+00 -0.14376976466E+04  0.14376976466E+04  0.00000000000E+00 0. -1.
          2    1    1    2  501    0 -0.11303831074E+02  0.36032204846E+02 -0.74281263768E+02  0.83329481758E+02  0.00000000000E+00 0.  1.
          1    1    1    2  502    0  0.30173285399E+02 -0.15998338594E+02 -0.13225571362E+04  0.13229980168E+04  0.00000000000E+00 0. -1.
         22    1    1    2    0    0 -0.72420038993E+01  0.25929071000E+02 -0.24710389043E+02  0.36542669169E+02  0.00000000000E+00 0. -1.
         22    1    1    2    0    0 -0.11627450426E+02 -0.45962937251E+02  0.96904337791E+02  0.10788067430E+03  0.00000000000E+00 0.  1.
</event>
<event>
 6    1  0.2809573E-005  0.9254980E+02  0.7818608E-02  0.1393957E+00
          2   -1    0    0  502    0  0.00000000000E+00  0.00000000000E+00  0.12764122173E+03  0.12764122173E+03  0.00000000000E+00 0. -1.
          1   -1    0    0  501    0 -0.00000000000E+00 -0.00000000000E+00 -0.97848292801E+02  0.97848292801E+02  0.00000000000E+00 0. -1.
          2    1    1    2  501    0  0.35624950764E+02  0.34074178630E+02 -0.99446637838E+01  0.50289990098E+02  0.00000000000E+00 0. -1.
          1    1    1    2  502    0 -0.34722373798E+01 -0.42059370188E+02 -0.50535277631E+01  0.42503943299E+02  0.00000000000E+00 0. -1.
         22    1    1    2    0    0 -0.33411264368E+02 -0.93587542323E+01 -0.36032506416E+02  0.50022398844E+02  0.00000000000E+00 0. -1.
         22    1    1    2    0    0  0.12585509842E+01  0.17343945791E+02  0.80823626894E+02  0.82673182293E+02  0.00000000000E+00 0. -1.
</event>
<event>
 6    1  0.2809573E-005  0.1955844E+03  0.7818608E-02  0.1218544E+00
          2   -1    0    0  502    0  0.00000000000E+00  0.00000000000E+00  0.26957881552E+03  0.26957881552E+03  0.00000000000E+00 0. -1.
          1   -1    0    0  501    0 -0.00000000000E+00 -0.00000000000E+00 -0.28499117166E+03  0.28499117166E+03  0.00000000000E+00 0.  1.
          2    1    1    2  501    0 -0.28694613347E+02 -0.68360594070E+02 -0.11855464779E+03  0.13982759445E+03  0.00000000000E+00 0. -1.
          1    1    1    2  502    0 -0.32752713726E+02  0.63605334346E+02 -0.12569175223E+03  0.14462639936E+03  0.00000000000E+00 0.  1.
         22    1    1    2    0    0  0.55083511166E+02 -0.40788612371E+02  0.48383391362E+02  0.83897894259E+02  0.00000000000E+00 0. -1.
         22    1    1    2    0    0  0.63638159071E+01  0.45543872095E+02  0.18045065252E+03  0.18621809910E+03  0.00000000000E+00 0. -1.
</event>
<event>
 6    1  0.2809573E-005  0.1491072E+03  0.7818608E-02  0.1239694E+00
          2   -1    0    0  502    0  0.00000000000E+00  0.00000000000E+00  0.63446022198E+03  0.63446022198E+03  0.00000000000E+00 0. -1.
          1   -1    0    0  501    0 -0.00000000000E+00 -0.00000000000E+00 -0.19560697506E+04  0.19560697506E+04  0.00000000000E+00 0. -1.
          2    1    1    2  501    0  0.70962547615E+02 -0.71143270956E+02  0.12892249047E+03  0.16345658970E+03  0.00000000000E+00 0. -1.
          1    1    1    2  502    0 -0.22667807502E+02  0.12319214926E+03 -0.19256271215E+04  0.19296968534E+04  0.00000000000E+00 0. -1.
         22    1    1    2    0    0  0.13867766612E+02 -0.77085688219E+02  0.21624649036E+03  0.22999361485E+03  0.00000000000E+00 0. -1.
         22    1    1    2    0    0 -0.62162506726E+02  0.25036809916E+02  0.25884861202E+03  0.26738291463E+03  0.00000000000E+00 0. -1.
</event>
<event>
 6    1  0.2809573E-005  0.2930244E+03  0.7818608E-02  0.1161096E+00
          2   -1    0    0  502    0  0.00000000000E+00  0.00000000000E+00  0.92775214008E+02  0.92775214008E+02  0.00000000000E+00 0.  1.
          1   -1    0    0  501    0 -0.00000000000E+00 -0.00000000000E+00 -0.96694469524E+03  0.96694469524E+03  0.00000000000E+00 0.  1.
          2    1    1    2  501    0  0.11373930080E+02 -0.56424343886E+02 -0.29338787341E+03  0.29898079726E+03  0.00000000000E+00 0.  1.
          1    1    1    2  502    0 -0.83247377601E+02  0.17224931888E+03 -0.53916500704E+03  0.57210039202E+03  0.00000000000E+00 0.  1.
         22    1    1    2    0    0  0.10698291385E+03 -0.82054546113E+02 -0.36344714239E+02  0.13963964569E+03  0.00000000000E+00 0.  1.
         22    1    1    2    0    0 -0.35109466332E+02 -0.33770428882E+02 -0.52718865498E+01  0.48999074285E+02  0.00000000000E+00 0. -1.
</event>
<event>
 6    1  0.2809573E-005  0.1128739E+03  0.7818608E-02  0.1309873E+00
          2   -1    0    0  502    0  0.00000000000E+00  0.00000000000E+00  0.26690389261E+03  0.26690389261E+03  0.00000000000E+00 0.  1.
          1   -1    0    0  501    0 -0.00000000000E+00 -0.00000000000E+00 -0.19903167302E+03  0.19903167302E+03  0.00000000000E+00 0. -1.
          2    1    1    2  501    0 -0.22175430950E+02 -0.43407798817E+02  0.47300379839E+02  0.67921371223E+02  0.00000000000E+00 0.  1.
          1    1    1    2  502    0  0.25967250376E+02  0.99274531573E+02 -0.14956500231E+03  0.18138197437E+03  0.00000000000E+00 0. -1.
         22    1    1    2    0    0  0.11612578022E+02 -0.92929072332E+02  0.11216006244E+03  0.14611825369E+03  0.00000000000E+00 0. -1.
         22    1    1    2    0    0 -0.15404397448E+02  0.37062339577E+02  0.57976779622E+02  0.70513966354E+02  0.00000000000E+00 0.  1.
</event>
<event>
 6    1  0.2809573E-005  0.9104593E+02  0.7818608E-02  0.1304362E+00
          2   -1    0    0  502    0  0.00000000000E+00  0.00000000000E+00  0.51872696799E+02  0.51872696799E+02  0.00000000000E+00 0.  1.
          1   -1    0    0  501    0 -0.00000000000E+00 -0.00000000000E+00 -0.40236880321E+03  0.40236880321E+03  0.00000000000E+00 0.  1.
          2    1    1    2  501    0 -0.45349986634E+02 -0.23550645289E+02 -0.14880181561E+03  0.15733160684E+03  0.00000000000E+00 0.  1.
          1    1    1    2  502    0  0.45799853220E+02 -0.44625605627E+02 -0.21964973966E+02  0.67613100165E+02  0.00000000000E+00 0.  1.
         22    1    1    2    0    0 -0.45965861384E+01  0.88284665938E+02 -0.18753821659E+03  0.20733039701E+03  0.00000000000E+00 0.  1.
         22    1    1    2    0    0  0.41467195521E+01 -0.20108415022E+02  0.78088997521E+01  0.21966395997E+02  0.00000000000E+00 0.  1.
</event>
<event>
 6    1  0.2809573E-005  0.2196799E+03  0.7818608E-02  0.1180519E+00
          2   -1    0    0  502    0  0.00000000000E+00  0.00000000000E+00  0.26666978668E+03  0.26666978668E+03  0.00000000000E+00 0. -1.
          1   -1    0    0  501    0 -0.00000000000E+00 -0.00000000000E+00 -0.95063389493E+03  0.95063389493E+03  0.00000000000E+00 0. -1.
          2    1    1    2  501    0  0.54390620735E+01 -0.25073591506E+02 -0.28911853292E+02  0.38654413047E+02  0.00000000000E+00 0. -1.
          1    1    1    2  502    0  0.16209580098E+03  0.11842795545E+03 -0.85214894503E+03  0.87547590135E+03  0.00000000000E+00 0. -1.
         22    1    1    2    0    0 -0.11508351929E+03 -0.40892981263E+02  0.38455916329E+02  0.12804417140E+03  0.00000000000E+00 0.  1.
         22    1    1    2    0    0 -0.52451343754E+02 -0.52461382678E+02  0.15864077374E+03  0.17512919582E+03  0.00000000000E+00 0. -1.
</event>
<event>
 6    1  0.2809573E-005  0.6391773E+02  0.7818608E-02  0.1394503E+00
          2   -1    0    0  502    0  0.00000000000E+00  0.00000000000E+00  0.22953463853E+03  0.22953463853E+03  0.00000000000E+00 0.  1.
          1   -1    0    0  501    0 -0.00000000000E+00 -0.00000000000E+00 -0.12712893132E+04  0.12712893132E+04  0.00000000000E+00 0. -1.
          2    1    1    2  501    0  0.10563413194E+02 -0.20386389547E+02  0.38922497588E+02  0.45190169236E+02  0.00000000000E+00 0.  1.
          1    1    1    2  502    0 -0.21406048178E+02  0.16864574438E+02 -0.12453279429E+04  0.12456260747E+04  0.00000000000E+00 0. -1.
         22    1    1    2    0    0 -0.16776737481E+02 -0.34376531109E+02  0.15809520491E+03  0.16265699686E+03  0.00000000000E+00 0.  1.
         22    1    1    2    0    0  0.27619372465E+02  0.37898346218E+02  0.65555656951E+01  0.47350710903E+02  0.00000000000E+00 0.  1.
</event>
<event>
 6    1  0.2809573E-005  0.8004630E+02  0.7818608E-02  0.1352415E+00
          2   -1    0    0  502    0  0.00000000000E+00  0.00000000000E+00  0.33422915372E+03  0.33422915372E+03  0.00000000000E+00 0.  1.
          1   -1    0    0  501    0 -0.00000000000E+00 -0.00000000000E+00 -0.17260034806E+03  0.17260034806E+03  0.00000000000E+00 0. -1.
          2    1    1    2  501    0  0.62131776211E+00  0.22001574087E+02  0.44026268876E+02  0.49221617702E+02  0.00000000000E+00 0.  1.
          1    1    1    2  502    0 -0.25951266375E+02  0.28634266543E+02 -0.15054773669E+03  0.15542847380E+03  0.00000000000E+00 0. -1.
         22    1    1    2    0    0 -0.31770631433E+02 -0.39231894754E+02  0.33920082253E+02  0.60820116472E+02  0.00000000000E+00 0. -1.
         22    1    1    2    0    0  0.57100580046E+02 -0.11403945876E+02  0.23423019122E+03  0.24135929380E+03  0.00000000000E+00 0.  1.
</event>
<event>
 6    1  0.2809573E-005  0.3025502E+03  0.7818608E-02  0.1176449E+00
          2   -1    0    0  502    0  0.00000000000E+00  0.00000000000E+00  0.23341382514E+03  0.23341382514E+03  0.00000000000E+00 0.  1.
          1   -1    0    0  501    0 -0.00000000000E+00 -0.00000000000E+00 -0.70263806574E+03  0.70263806574E+03  0.00000000000E+00 0. -1.
          2    1    1    2  501    0  0.12580572390E+03  0.13728999205E+01  0.15454885599E+02  0.12675889913E+03  0.00000000000E+00 0.  1.
          1    1    1    2  502    0 -0.29822874285E+03  0.26469906811E+02 -0.51242983861E+03  0.59348578629E+03  0.00000000000E+00 0. -1.
         22    1    1    2    0    0  0.16216032962E+02  0.26568095798E+02 -0.27374861569E+02  0.41451254327E+02  0.00000000000E+00 0.  1.
         22    1    1    2    0    0  0.15620698599E+03 -0.54410902530E+02  0.55125573981E+02  0.17435595113E+03  0.00000000000E+00 0.  1.
</event>
<event>
 6    1  0.2809573E-005  0.1869186E+03  0.7818608E-02  0.1252178E+00
          2   -1    0    0  502    0  0.00000000000E+00  0.00000000000E+00  0.17467382956E+03  0.17467382956E+03  0.00000000000E+00 0. -1.
          1   -1    0    0  501    0 -0.00000000000E+00 -0.00000000000E+00 -0.13099133723E+04  0.13099133723E+04  0.00000000000E+00 0. -1.
          2    1    1    2  501    0  0.71685780248E+02 -0.57401409716E+02  0.42342151706E+02  0.10112680524E+03  0.00000000000E+00 0. -1.
          1    1    1    2  502    0 -0.81443080085E+02  0.13708828427E+03 -0.12194653967E+04  0.12298463427E+04  0.00000000000E+00 0. -1.
         22    1    1    2    0    0  0.11238594196E+02  0.23960159376E+02  0.42369053325E+02  0.49955299183E+02  0.00000000000E+00 0. -1.
         22    1    1    2    0    0 -0.14812943593E+01 -0.10364703393E+03 -0.48535114886E+00  0.10365875477E+03  0.00000000000E+00 0.  1.
</event>
<event>
 6    1  0.2809573E-005  0.2000447E+03  0.7818608E-02  0.1244019E+00
          2   -1    0    0  502    0  0.00000000000E+00  0.00000000000E+00  0.13755064275E+03  0.13755064275E+03  0.00000000000E+00 0. -1.
          1   -1    0    0  501    0 -0.00000000000E+00 -0.00000000000E+00 -0.26353722904E+03  0.26353722904E+03  0.00000000000E+00 0. -1.
          2    1    1    2  501    0  0.71578401166E+02 -0.76666849154E+02  0.94055442211E+01  0.10530782276E+03  0.00000000000E+00 0. -1.
          1    1    1    2  502    0 -0.67609406360E+02  0.12639365124E+02 -0.13456642764E+03  0.15112547379E+03  0.00000000000E+00 0. -1.
         22    1    1    2    0    0 -0.23332139269E+01 -0.25317899572E+02  0.39212999180E+02  0.46734347440E+02  0.00000000000E+00 0. -1.
         22    1    1    2    0    0 -0.16357808793E+01  0.89345383602E+02 -0.40038702041E+02  0.97920227794E+02  0.00000000000E+00 0. -1.
</event>
<event>
 6    1  0.2809573E-005  0.5974791E+02  0.7818608E-02  0.1404823E+00
          2   -1    0    0  502    0  0.00000000000E+00  0.00000000000E+00  0.34756496857E+03  0.34756496857E+03  0.00000000000E+00 0.  1.
          1   -1    0    0  501    0 -0.00000000000E+00 -0.00000000000E+00 -0.88092525139E+02  0.88092525139E+02  0.00000000000E+00 0. -1.
          2    1    1    2  501    0 -0.16923187642E+02 -0.57349321023E+02  0.42893408452E+02  0.73587929651E+02  0.00000000000E+00 0.  1.
          1    1    1    2  502    0  0.42818934869E+01  0.32583494874E+02 -0.54511576836E+02  0.63651635950E+02  0.00000000000E+00 0. -1.
         22    1    1    2    0    0 -0.12061315565E+02 -0.20752188874E+02  0.16653863058E+01  0.24060386276E+02  0.00000000000E+00 0. -1.
         22    1    1    2    0    0  0.24702609721E+02  0.45518015023E+02  0.26942522551E+03  0.27435754183E+03  0.00000000000E+00 0. -1.
</event>
<event>
 6    1  0.2809573E-005  0.1478614E+03  0.7818608E-02  0.1312939E+00
          2   -1    0    0  502    0  0.00000000000E+00  0.00000000000E+00  0.81871419092E+02  0.81871419092E+02  0.00000000000E+00 0. -1.
          1   -1    0    0  501    0 -0.00000000000E+00 -0.00000000000E+00 -0.89287760104E+03  0.89287760104E+03  0.00000000000E+00 0. -1.
          2    1    1    2  501    0 -0.34954058276E+02 -0.90996958709E+02 -0.12696707855E+03  0.16007145817E+03  0.00000000000E+00 0. -1.
          1    1    1    2  502    0  0.10154927700E+02  0.24650982101E+02 -0.67440301145E+03  0.67492978548E+03  0.00000000000E+00 0. -1.
         22    1    1    2    0    0  0.16661542645E+02  0.51545351639E+02 -0.63401182012E+02  0.83392086911E+02  0.00000000000E+00 0. -1.
         22    1    1    2    0    0  0.81375879297E+01  0.14800624969E+02  0.53765090068E+02  0.56355689569E+02  0.00000000000E+00 0. -1.
</event>
<event>
 6    1  0.2809573E-005  0.8702968E+02  0.7818608E-02  0.1423827E+00
          2   -1    0    0  502    0  0.00000000000E+00  0.00000000000E+00  0.11845875905E+03  0.11845875905E+03  0.00000000000E+00 0. -1.
          1   -1    0    0  501    0 -0.00000000000E+00 -0.00000000000E+00 -0.12669867693E+03  0.12669867693E+03  0.00000000000E+00 0.  1.
          2    1    1    2  501    0 -0.21674438409E+02  0.22013214156E+01  0.20996025174E+02  0.30256572334E+02  0.00000000000E+00 0. -1.
          1    1    1    2  502    0 -0.14306726339E+02  0.13999734021E+02 -0.74377673046E+02  0.77024108037E+02  0.00000000000E+00 0.  1.
         22    1    1    2    0    0  0.49085102385E+02 -0.15787303584E+02 -0.31300508580E+02  0.60318389137E+02  0.00000000000E+00 0.  1.
         22    1    1    2    0    0 -0.13103937638E+02 -0.41375185225E+00  0.76442238571E+02  0.77558366473E+02  0.00000000000E+00 0. -1.
</event>
<event>
 6    1  0.2809573E-005  0.1029807E+03  0.7818608E-02  0.1278890E+00
          2   -1    0    0  502    0  0.00000000000E+00  0.00000000000E+00  0.53697475385E+03  0.53697475385E+03  0.00000000000E+00 0. -1.
          1   -1    0    0  501    0 -0.00000000000E+00 -0.00000000000E+00 -0.50667154421E+03  0.50667154421E+03  0.00000000000E+00 0.  1.
          2    1    1    2  501    0  0.10013445861E+03 -0.18373905946E+02  0.13555430469E+03  0.16952722418E+03  0.00000000000E+00 0. -1.
          1    1    1    2  502    0 -0.51924963061E+02  0.12775631978E+02 -0.47589102794E+03  0.47888588310E+03  0.00000000000E+00 0.  1.
         22    1    1    2    0    0 -0.83615113946E+02 -0.13176262587E+02  0.31800685472E+03  0.32907971804E+03  0.00000000000E+00 0. -1.
         22    1    1    2    0    0  0.35405618400E+02  0.18774536555E+02  0.52633078170E+02  0.66153472734E+02  0.00000000000E+00 0. -1.
</event>
<event>
 6    1  0.2809573E-005  0.2359943E+03  0.7818608E-02  0.1209435E+00
          2   -1    0    0  502    0  0.00000000000E+00  0.00000000000E+00  0.36051462193E+03  0.36051462193E+03  0.00000000000E+00 0.  1.
          1   -1    0    0  501    0 -0.00000000000E+00 -0.00000000000E+00 -0.56499106247E+03  0.56499106247E+03  0.00000000000E+00 0.  1.
          2    1    1    2  501    0  0.18240957013E+03 -0.33325359769E+02  0.85696024315E+02  0.20427344287E+03  0.00000000000E+00 0.  1.
          1    1    1    2  502    0 -0.22271200671E+03  0.40440714070E+02 -0.45791493743E+03  0.51080542206E+03  0.00000000000E+00 0.  1.
         22    1    1    2    0    0  0.80379896282E+01  0.30722470058E+02  0.15617755529E+03  0.15937348656E+03  0.00000000000E+00 0.  1.
         22    1    1    2    0    0  0.32264446955E+02 -0.37837824358E+02  0.11564917288E+02  0.51053332912E+02  0.00000000000E+00 0.  1.
</event>
<event>
 6    1  0.2809573E-005  0.1878705E+03  0.7818608E-02  0.1161013E+00
          2   -1    0    0  502    0  0.00000000000E+00  0.00000000000E+00  0.13834965558E+03  0.13834965558E+03  0.00000000000E+00 0.  1.
          1   -1    0    0  501    0 -0.00000000000E+00 -0.00000000000E+00 -0.46476880334E+03  0.46476880334E+03  0.00000000000E+00 0. -1.
          2    1    1    2  501    0  0.61732635042E+02 -0.65871906180E+01 -0.61673227428E+02  0.87509406871E+02  0.00000000000E+00 0.  1.
          1    1    1    2  502    0  0.29830165316E+02  0.16304362722E+03 -0.24029983127E+03  0.29191963286E+03  0.00000000000E+00 0. -1.
         22    1    1    2    0    0  0.99191335620E+01  0.15506822904E+02 -0.15078493029E+02  0.23795203702E+02  0.00000000000E+00 0.  1.
         22    1    1    2    0    0 -0.10148193392E+03 -0.17196325951E+03 -0.93675960346E+01  0.19989421549E+03  0.00000000000E+00 0.  1.
</event>
<event>
 6    1  0.2809573E-005  0.1923711E+03  0.7818608E-02  0.1156667E+00
          2   -1    0    0  502    0  0.00000000000E+00  0.00000000000E+00  0.44721590079E+03  0.44721590079E+03  0.00000000000E+00 0.  1.
          1   -1    0    0  501    0 -0.00000000000E+00 -0.00000000000E+00 -0.17907429995E+04  0.17907429995E+04  0.00000000000E+00 0. -1.
          2    1    1    2  501    0 -0.76594810001E+02  0.15059687059E+03  0.27836489609E+03  0.32562739094E+03  0.00000000000E+00 0.  1.
          1    1    1    2  502    0 -0.10681985115E+02  0.84584236647E+02 -0.16285188798E+04  0.16307490118E+04  0.00000000000E+00 0. -1.
         22    1    1    2    0    0  0.86285939213E+02 -0.24594418857E+03 -0.11036278822E+02  0.26087469530E+03  0.00000000000E+00 0.  1.
         22    1    1    2    0    0  0.99085590202E+00  0.10763081336E+02  0.17663163812E+02  0.20707802180E+02  0.00000000000E+00 0. -1.
</event>
<event>
 6    1  0.2809573E-005  0.1168225E+03  0.7818608E-02  0.1272087E+00
          2   -1    0    0  502    0  0.00000000000E+00  0.00000000000E+00  0.17072330540E+03  0.17072330540E+03  0.00000000000E+00 0.  1.
          1   -1    0    0  501    0 -0.00000000000E+00 -0.00000000000E+00 -0.22981994521E+03  0.22981994521E+03  0.00000000000E+00 0.  1.
          2    1    1    2  501    0  0.30857856070E+02 -0.23009667757E+02 -0.22097798967E+02  0.44384285628E+02  0.00000000000E+00 0.  1.
          1    1    1    2  502    0 -0.91659670046E+01  0.37515620970E+02 -0.16670893436E+03  0.17112365576E+03  0.00000000000E+00 0.  1.
         22    1    1    2    0    0  0.31640747681E+02  0.42840986764E+02  0.45623304205E+02  0.70128260690E+02  0.00000000000E+00 0. -1.
         22    1    1    2    0    0 -0.53332636746E+02 -0.57346939977E+02  0.84086789299E+02  0.11490704853E+03  0.00000000000E+00 0.  1.
</event>
<event>
 6    1  0.2809573E-005  0.9698550E+02  0.7818608E-02  0.1299565E+00
          2   -1    0    0  502    0  0.00000000000E+00  0.00000000000E+00  0.66149313775E+02  0.66149313775E+02  0.00000000000E+00 0.  1.
          1   -1    0    0  501    0 -0.00000000000E+00 -0.00000000000E+00 -0.59536913913E+03  0.59536913913E+03  0.00000000000E+00 0.  1.
          2    1    1    2  501    0  0.27537291232E+01 -0.52269990142E+02 -0.42306624533E+02  0.67302194414E+02  0.00000000000E+00 0.  1.
          1    1    1    2  502    0 -0.29786948706E+02  0.55889436827E+02 -0.46001809885E+03  0.46435712843E+03  0.00000000000E+00 0.  1.
         22    1    1    2    0    0  0.53879079605E+02  0.40318546398E+02 -0.37861210758E+02  0.77214064021E+02  0.00000000000E+00 0.  1.
         22    1    1    2    0    0 -0.26845860022E+02 -0.43937993083E+02  0.10966108779E+02  0.52645066038E+02  0.00000000000E+00 0.  1.
</event>
<event>
 6    1  0.2809573E-005  0.1045153E+03  0.7818608E-02  0.1350896E+00
          2   -1    0    0  502    0  0.00000000000E+00  0.00000000000E+00  0.61368395013E+02  0.61368395013E+02  0.00000000000E+00 0.  1.
          1   -1    0    0  501    0 -0.00000000000E+00 -0.00000000000E+00 -0.11910295308E+04  0.11910295308E+04  0.00000000000E+00 0.  1.
          2    1    1    2  501    0 -0.48212732307E+02 -0.36017457557E+02 -0.23802662226E+03  0.24551659355E+03  0.00000000000E+00 0.  1.
          1    1    1    2  502    0  0.86969637748E+02  0.52999265592E+02 -0.86642652891E+03  0.87239186724E+03  0.00000000000E+00 0.  1.
         22    1    1    2    0    0 -0.18000118402E+02 -0.30132085816E+02 -0.72860942220E+02  0.80874370226E+02  0.00000000000E+00 0.  1.
         22    1    1    2    0    0 -0.20756787040E+02  0.13150277782E+02  0.47652957635E+02  0.53615094753E+02  0.00000000000E+00 0.  1.
</event>
<event>
 6    1  0.2809573E-005  0.1826370E+03  0.7818608E-02  0.1287190E+00
          2   -1    0    0  502    0  0.00000000000E+00  0.00000000000E+00  0.11992549475E+03  0.11992549475E+03  0.00000000000E+00 0.  1.
          1   -1    0    0  501    0 -0.00000000000E+00 -0.00000000000E+00 -0.18196484421E+03  0.18196484421E+03  0.00000000000E+00 0.  1.
          2    1    1    2  501    0  0.83283743731E+02 -0.53915045333E+02 -0.66728367146E+02  0.11956458115E+03  0.00000000000E+00 0.  1.
          1    1    1    2  502    0 -0.15413078585E+02 -0.15344808992E+02 -0.12227481431E+01  0.21783509072E+02  0.00000000000E+00 0.  1.
         22    1    1    2    0    0 -0.54086557790E+02  0.65067048930E+02 -0.53035952713E+02  0.99859345433E+02  0.00000000000E+00 0.  1.
         22    1    1    2    0    0 -0.13784107356E+02  0.41928053956E+01  0.58947718547E+02  0.60682903313E+02  0.00000000000E+00 0.  1.
</event>
<event>
 6    1  0.2809573E-005  0.1690624E+03  0.7818608E-02  0.1276763E+00
          2   -1    0    0  502    0  0.00000000000E+00  0.00000000000E+00  0.27171261910E+02  0.27171261910E+02  0.00000000000E+00 0.  1.
          1   -1    0    0  501    0 -0.00000000000E+00 -0.00000000000E+00 -0.29879672754E+04  0.29879672754E+04  0.00000000000E+00 0. -1.
          2    1    1    2  501    0 -0.16409098091E+02  0.26264358968E+02 -0.18374482684E+02  0.36009674618E+02  0.00000000000E+00 0.  1.
          1    1    1    2  502    0 -0.55863452004E+02  0.54201852960E+02 -0.25580166710E+04  0.25592006282E+04  0.00000000000E+00 0. -1.
         22    1    1    2    0    0  0.82995340775E+00  0.22122044575E+02 -0.83863435692E+01  0.23672862888E+02  0.00000000000E+00 0.  1.
         22    1    1    2    0    0  0.71442596686E+02 -0.10258825650E+03 -0.37601851627E+03  0.39625537166E+03  0.00000000000E+00 0. -1.
</event>
<event>
 6    1  0.2809573E-005  0.4920319E+02  0.7818608E-02  0.1464164E+00
          2   -1    0    0  502    0  0.00000000000E+00  0.00000000000E+00  0.15844178901E+03  0.15844178901E+03  0.00000000000E+00 0. -1.
          1   -1    0    0  501    0 -0.00000000000E+00 -0.00000000000E+00 -0.55099206477E+03  0.55099206477E+03  0.00000000000E+00 0. -1.
          2    1    1    2  501    0  0.14577112859E+02  0.18659991788E+02  0.46288481695E+02  0.51993375063E+02  0.00000000000E+00 0. -1.
          1    1    1    2  502    0  0.17608464441E+02 -0.41563953036E+02 -0.50821836381E+03  0.51021909561E+03  0.00000000000E+00 0. -1.
         22    1    1    2    0    0  0.74764635290E+01  0.19202088969E+02  0.96730546341E+02  0.98901043084E+02  0.00000000000E+00 0. -1.
         22    1    1    2    0    0 -0.39662040830E+02  0.37018722791E+01 -0.27350939983E+02  0.48320340014E+02  0.00000000000E+00 0. -1.
</event>
<event>
 6    1  0.2809573E-005  0.2799296E+03  0.7818608E-02  0.1096417E+00
          2   -1    0    0  502    0  0.00000000000E+00  0.00000000000E+00  0.26460280435E+03  0.26460280435E+03  0.00000000000E+00 0. -1.
          1   -1    0    0  501    0 -0.00000000000E+00 -0.00000000000E+00 -0.35282576817E+03  0.35282576817E+03  0.00000000000E+00 0. -1.
          2    1    1    2  501    0 -0.77218407777E+02 -0.25021144966E+03  0.55710979240E+00  0.26185637745E+03  0.00000000000E+00 0. -1.
          1    1    1    2  502    0 -0.22791221356E+02  0.52933711662E+01 -0.53958177050E+02  0.58812791294E+02  0.00000000000E+00 0. -1.
         22    1    1    2    0    0  0.11389445858E+03  0.25261448300E+03 -0.40187586797E+02  0.28000190508E+03  0.00000000000E+00 0. -1.
         22    1    1    2    0    0 -0.13884829448E+02 -0.76964045055E+01  0.53656902361E+01  0.16757498704E+02  0.00000000000E+00 0.  1.
</event>
<event>
 6    1  0.2809573E-005  0.7518424E+02  0.7818608E-02  0.1345385E+00
          2   -1    0    0  502    0  0.00000000000E+00  0.00000000000E+00  0.40980371697E+03  0.40980371697E+03  0.00000000000E+00 0.  1.
          1   -1    0    0  501    0 -0.00000000000E+00 -0.00000000000E+00 -0.59283426756E+03  0.59283426756E+03  0.00000000000E+00 0.  1.
          2    1    1    2  501    0  0.22611091159E+02 -0.14734258437E+02  0.71698853676E+02  0.76609956491E+02  0.00000000000E+00 0.  1.
          1    1    1    2  502    0  0.10836664071E+02 -0.17429169245E+02 -0.57642891611E+03  0.57679416134E+03  0.00000000000E+00 0.  1.
         22    1    1    2    0    0 -0.74664361676E+02  0.39633279561E+02  0.14689554435E+03  0.16948116327E+03  0.00000000000E+00 0.  1.
         22    1    1    2    0    0  0.41216606446E+02 -0.74698518793E+01  0.17480396751E+03  0.17975270343E+03  0.00000000000E+00 0.  1.
</event>
<event>
 6    1  0.2809573E-005  0.1565496E+03  0.7818608E-02  0.1256280E+00
          2   -1    0    0  502    0  0.00000000000E+00  0.00000000000E+00  0.48294817023E+03  0.48294817023E+03  0.00000000000E+00 0.  1.
          1   -1    0    0  501    0 -0.00000000000E+00 -0.00000000000E+00 -0.77378961706E+02  0.77378961706E+02  0.00000000000E+00 0.  1.
          2    1    1    2  501    0  0.94543839490E+02 -0.51583238706E+02  0.76568426466E+02  0.13214420923E+03  0.00000000000E+00 0.  1.
          1    1    1    2  502    0 -0.47816847468E+02  0.79953096692E+02  0.28515342928E+02  0.97427272130E+02  0.00000000000E+00 0.  1.
         22    1    1    2    0    0 -0.20941184186E+02  0.35859415111E+02  0.22311172365E+03  0.22694332349E+03  0.00000000000E+00 0.  1.
         22    1    1    2    0    0 -0.25785807836E+02 -0.64229273097E+02  0.77373715482E+02  0.10381232709E+03  0.00000000000E+00 0.  1.
</event>
<event>
 6    1  0.2809573E-005  0.2059067E+03  0.7818608E-02  0.1231974E+00
          2   -1    0    0  502    0  0.00000000000E+00  0.00000000000E+00  0.20532216947E+03  0.20532216947E+03  0.00000000000E+00 0. -1.
          1   -1    0    0  501    0 -0.00000000000E+00 -0.00000000000E+00 -0.37644242169E+03  0.37644242169E+03  0.00000000000E+00 0. -1.
          2    1    1    2  501    0  0.39151084917E+02 -0.30477948024E+02 -0.16732801396E+03  0.17452901485E+03  0.00000000000E+00 0. -1.
          1    1    1    2  502    0 -0.14610936222E+03  0.97172645558E+02  0.10257675252E+03  0.20325466521E+03  0.00000000000E+00 0. -1.
         22    1    1    2    0    0  0.12490654188E+03 -0.42905174676E+02 -0.11257771838E+03  0.17354031490E+03  0.00000000000E+00 0. -1.
         22    1    1    2    0    0 -0.17948264584E+02 -0.23789522858E+02  0.62087275938E+01  0.30440596212E+02  0.00000000000E+00 0. -1.
</event>
<event>
 6    1  0.2809573E-005  0.2405583E+03  0.7818608E-02  0.1232216E+00
          2   -1    0    0  502    0  0.00000000000E+00  0.00000000000E+00  0.61572399625E+02  0.61572399625E+02  0.00000000000E+00 0.  1.
          1   -1    0    0  501    0 -0.00000000000E+00 -0.00000000000E+00 -0.11272319681E+04  0.11272319681E+04  0.00000000000E+00 0.  1.
          2    1    1    2  501    0 -0.83457908306E+02  0.23989329888E+02 -0.87699216580E+03  0.88128086856E+03  0.00000000000E+00 0.  1.
          1    1    1    2  502    0  0.34482563922E+02 -0.41792095552E+02 -0.15607543424E+03  0.16521249238E+03  0.00000000000E+00 0.  1.
         22    1    1    2    0    0 -0.16007836223E+02  0.94630121261E+01  0.40251187785E+02  0.44339119716E+02  0.00000000000E+00 0.  1.
         22    1    1    2    0    0  0.64983180608E+02  0.83397535381E+01 -0.72843156268E+02  0.97971887121E+02  0.00000000000E+00 0.  1.
</event>
<event>
 6    1  0.2809573E-005  0.8494431E+02  0.7818608E-02  0.1346097E+00
          2   -1    0    0  502    0  0.00000000000E+00  0.00000000000E+00  0.11233599557E+03  0.11233599557E+03  0.00000000000E+00 0.  1.
          1   -1    0    0  501    0 -0.00000000000E+00 -0.00000000000E+00 -0.11612628317E+04  0.11612628317E+04  0.00000000000E+00 0.  1.
          2    1    1    2  501    0  0.57508918343E+02  0.32660347576E+02 -0.11725344080E+03  0.13461925335E+03  0.00000000000E+00 0.  1.
          1    1    1    2  502    0 -0.82655493205E+02  0.91361376258E+01 -0.99160671106E+03  0.99508756850E+03  0.00000000000E+00 0.  1.
         22    1    1    2    0    0 -0.99432072323E+00 -0.49674599456E+02  0.90293941232E+02  0.10306090592E+03  0.00000000000E+00 0.  1.
         22    1    1    2    0    0  0.26140895585E+02  0.78781142545E+01 -0.30360625524E+02  0.40831099525E+02  0.00000000000E+00 0.  1.
</event>
<event>
 6    1  0.2809573E-005  0.1003485E+03  0.7818608E-02  0.1348659E+00
          2   -1    0    0  502    0  0.00000000000E+00  0.00000000000E+00  0.64809061714E+02  0.64809061714E+02  0.00000000000E+00 0. -1.
          1   -1    0    0  501    0 -0.00000000000E+00 -0.00000000000E+00 -0.30186350839E+03  0.30186350839E+03  0.00000000000E+00 0. -1.
          2    1    1    2  501    0 -0.48069870860E+02 -0.65225355530E+02 -0.16896894937E+03  0.18739147617E+03  0.00000000000E+00 0. -1.
          1    1    1    2  502    0  0.24306159577E+02  0.26943738420E+02 -0.17176607267E+02  0.40147107874E+02  0.00000000000E+00 0. -1.
         22    1    1    2    0    0  0.25204702430E+02  0.14021986907E+02  0.37577794891E+02  0.47370706247E+02  0.00000000000E+00 0. -1.
         22    1    1    2    0    0 -0.14409911478E+01  0.24259630203E+02 -0.88486684932E+02  0.91763279820E+02  0.00000000000E+00 0. -1.
</event>
<event>
 6    1  0.2809573E-005  0.1978966E+03  0.7818608E-02  0.1249392E+00
          2   -1    0    0  502    0  0.00000000000E+00  0.00000000000E+00  0.36984321729E+03  0.36984321729E+03  0.00000000000E+00 0. -1.
          1   -1    0    0  501    0 -0.00000000000E+00 -0.00000000000E+00 -0.89924754447E+02  0.89924754447E+02  0.00000000000E+00 0. -1.
          2    1    1    2  501    0  0.34304364508E+02 -0.50838206006E+02  0.77345817574E+01  0.61815340888E+02  0.00000000000E+00 0. -1.
          1    1    1    2  502    0  0.77292018449E+02  0.86467655432E+02  0.11162000397E+03  0.16096501743E+03  0.00000000000E+00 0. -1.
         22    1    1    2    0    0 -0.13202093030E+03 -0.23855182017E+02  0.87393754503E+02  0.16011328512E+03  0.00000000000E+00 0. -1.
         22    1    1    2    0    0  0.20424547342E+02 -0.11774267409E+02  0.73170122612E+02  0.76874328291E+02  0.00000000000E+00 0.  1.
</event>
<event>
 6    1  0.2809573E-005  0.3817448E+02  0.7818608E-02  0.1563408E+00
          2   -1    0    0  502    0  0.00000000000E+00  0.00000000000E+00  0.10761453372E+03  0.10761453372E+03  0.00000000000E+00 0. -1.
          1   -1    0    0  501    0 -0.00000000000E+00 -0.00000000000E+00 -0.40421332480E+03  0.40421332480E+03  0.00000000000E+00 0. -1.
          2    1    1    2  501    0 -0.20116385485E+02 -0.12234932536E+02 -0.20129619581E+02  0.30976832047E+02  0.00000000000E+00 0. -1.
          1    1    1    2  502    0  0.16779005237E+02  0.25928627108E+02 -0.33866488275E+03  0.34007018618E+03  0.00000000000E+00 0. -1.
         22    1    1    2    0    0 -0.11404131918E+02  0.30861194437E+01 -0.37135450271E+02  0.38969475552E+02  0.00000000000E+00 0.  1.
         22    1    1    2    0    0  0.14741512166E+02 -0.16779814016E+02  0.99331161530E+02  0.10181136474E+03  0.00000000000E+00 0. -1.
</event>
<event>
 6    1  0.2809573E-005  0.4233140E+03  0.7818608E-02  0.1113136E+00
          2   -1    0    0  502    0  0.00000000000E+00  0.00000000000E+00  0.42448070689E+03  0.42448070689E+03  0.00000000000E+00 0. -1.
          1   -1    0    0  501    0 -0.00000000000E+00 -0.00000000000E+00 -0.23402914201E+03  0.23402914201E+03  0.00000000000E+00 0. -1.
          2    1    1    2  501    0 -0.22375782621E+03  0.66864291325E+02  0.52718101928E+02  0.23941093650E+03  0.00000000000E+00 0. -1.
          1    1    1    2  502    0 -0.30828282983E+01 -0.11362354530E+03  0.10304102664E+03  0.15341860072E+03  0.00000000000E+00 0. -1.
         22    1    1    2    0    0  0.48445011852E+02 -0.18102075371E+02  0.54132984896E+02  0.74866443484E+02  0.00000000000E+00 0. -1.
         22    1    1    2    0    0  0.17839564266E+03  0.64861329345E+02 -0.19440548585E+02  0.19081386819E+03  0.00000000000E+00 0. -1.
</event>
<event>
 6    1  0.2809573E-005  0.1497003E+03  0.7818608E-02  0.1202544E+00
          2   -1    0    0  502    0  0.00000000000E+00  0.00000000000E+00  0.32375060075E+03  0.32375060075E+03  0.00000000000E+00 0. -1.
          1   -1    0    0  501    0 -0.00000000000E+00 -0.00000000000E+00 -0.19943302191E+03  0.19943302191E+03  0.00000000000E+00 0. -1.
          2    1    1    2  501    0 -0.13465457017E+03 -0.56076351509E+02 -0.12277192437E+03  0.19065507043E+03  0.00000000000E+00 0. -1.
          1    1    1    2  502    0  0.36398391591E+02 -0.23718640084E+02  0.46004584593E+02  0.63275892735E+02  0.00000000000E+00 0. -1.
         22    1    1    2    0    0  0.10682844646E+03  0.94846751678E+02  0.20650515942E+03  0.25110277606E+03  0.00000000000E+00 0. -1.
         22    1    1    2    0    0 -0.85722678785E+01 -0.15051760085E+02 -0.54202408051E+01  0.18149883433E+02  0.00000000000E+00 0.  1.
</event>
<event>
 6    1  0.2809573E-005  0.1010202E+03  0.7818608E-02  0.1284990E+00
          2   -1    0    0  502    0  0.00000000000E+00  0.00000000000E+00  0.21941068952E+02  0.21941068952E+02  0.00000000000E+00 0.  1.
          1   -1    0    0  501    0 -0.00000000000E+00 -0.00000000000E+00 -0.13811921598E+04  0.13811921598E+04  0.00000000000E+00 0.  1.
          2    1    1    2  501    0  0.59865724497E+02  0.23940351393E+02 -0.14051458409E+03  0.15460075594E+03  0.00000000000E+00 0.  1.
          1    1    1    2  502    0  0.12062853720E+01 -0.47379700350E+02 -0.86990196483E+03  0.87119212551E+03  0.00000000000E+00 0.  1.
         22    1    1    2    0    0  0.28393214074E+02 -0.10690570349E+02 -0.23992733947E+02  0.38679635238E+02  0.00000000000E+00 0.  1.
         22    1    1    2    0    0 -0.89465223943E+02  0.34129919307E+02 -0.32484180794E+03  0.33866071203E+03  0.00000000000E+00 0.  1.
</event>
<event>
 6    1  0.2809573E-005  0.1137286E+03  0.7818608E-02  0.1287271E+00
          2   -1    0    0  502    0  0.00000000000E+00  0.00000000000E+00  0.18196222125E+03  0.18196222125E+03  0.00000000000E+00 0.  1.
          1   -1    0    0  501    0 -0.00000000000E+00 -0.00000000000E+00 -0.46388957247E+03  0.46388957247E+03  0.00000000000E+00 0. -1.
          2    1    1    2  501    0 -0.41011248553E+02 -0.83363268314E+00 -0.13883243938E+02  0.43305449006E+02  0.00000000000E+00 0.  1.
          1    1    1    2  502    0  0.54814704521E+02 -0.10478476693E+02 -0.40764478326E+03  0.41144710429E+03  0.00000000000E+00 0. -1.
         22    1    1    2    0    0 -0.48804991511E+00  0.68945555054E+02  0.56745471978E+02  0.89296004079E+02  0.00000000000E+00 0.  1.
         22    1    1    2    0    0 -0.13315406052E+02 -0.57633445678E+02  0.82855204006E+02  0.10180323634E+03  0.00000000000E+00 0.  1.
</event>
<event>
 6    1  0.2809573E-005  0.8139428E+02  0.7818608E-02  0.1348035E+00
          2   -1    0    0  502    0  0.00000000000E+00  0.00000000000E+00  0.15042603257E+03  0.15042603257E+03  0.00000000000E+00 0. -1.
          1   -1    0    0  501    0 -0.00000000000E+00 -0.00000000000E+00 -0.34733816640E+03  0.34733816640E+03  0.00000000000E+00 0. -1.
          2    1    1    2  501    0  0.54129051675E+02 -0.18277353134E+02 -0.70180432927E+01  0.57561000725E+02  0.00000000000E+00 0. -1.
          1    1    1    2  502    0 -0.22892135887E+02  0.60357006574E+02 -0.27347789392E+03  0.28099319670E+03  0.00000000000E+00 0. -1.
         22    1    1    2    0    0  0.22390319938E+02 -0.52490943493E+02 -0.26506589834E+01  0.57128377963E+02  0.00000000000E+00 0. -1.
         22    1    1    2    0    0 -0.53627235725E+02  0.10411290052E+02  0.86234462365E+02  0.10208162357E+03  0.00000000000E+00 0. -1.
</event>
<event>
 6    1  0.2809573E-005  0.2372291E+03  0.7818608E-02  0.1205131E+00
          2   -1    0    0  502    0  0.00000000000E+00  0.00000000000E+00  0.28154315070E+03  0.28154315070E+03  0.00000000000E+00 0. -1.
          1   -1    0    0  501    0 -0.00000000000E+00 -0.00000000000E+00 -0.20407334498E+03  0.20407334498E+03  0.00000000000E+00 0. -1.
          2    1    1    2  501    0 -0.67650761864E+02 -0.10488992883E+03  0.13719087641E+02  0.12556566456E+03  0.00000000000E+00 0. -1.
          1    1    1    2  502    0 -0.35925526992E+01  0.18169524690E+03 -0.14999956246E+02  0.18234875341E+03  0.00000000000E+00 0. -1.
         22    1    1    2    0    0 -0.17781152986E+02 -0.29316694606E+02  0.68097785511E+02  0.76242680800E+02  0.00000000000E+00 0. -1.
         22    1    1    2    0    0  0.89024467549E+02 -0.47488623468E+02  0.10652888813E+02  0.10145939691E+03  0.00000000000E+00 0.  1.
</event>
<event>
 6    1  0.2809573E-005  0.3348003E+03  0.7818608E-02  0.1173968E+00
          2   -1    0    0  502    0  0.00000000000E+00  0.00000000000E+00  0.12496427447E+03  0.12496427447E+03  0.00000000000E+00 0.  1.
          1   -1    0    0  501    0 -0.00000000000E+00 -0.00000000000E+00 -0.66676243366E+03  0.66676243366E+03  0.00000000000E+00 0. -1.
          2    1    1    2  501    0  0.59660194388E+02 -0.10646913458E+03 -0.10333156077E+03  0.15991381074E+03  0.00000000000E+00 0.  1.
          1    1    1    2  502    0 -0.20468477395E+03 -0.47146617697E+02 -0.22325900874E+03  0.30653424806E+03  0.00000000000E+00 0. -1.
         22    1    1    2    0    0  0.22002001312E+02 -0.10312367334E+02  0.46124857907E+01  0.24732731489E+02  0.00000000000E+00 0.  1.
         22    1    1    2    0    0  0.12302257825E+03  0.16392811961E+03 -0.21982007547E+03  0.30054591785E+03  0.00000000000E+00 0.  1.
</event>
<event>
 6    1  0.2809573E-005  0.1116988E+03  0.7818608E-02  0.1276201E+00
          2   -1    0    0  502    0  0.00000000000E+00  0.00000000000E+00  0.47974983961E+03  0.47974983961E+03  0.00000000000E+00 0.  1.
          1   -1    0    0  501    0 -0.00000000000E+00 -0.00000000000E+00 -0.58975761303E+02  0.58975761303E+02  0.00000000000E+00 0.  1.
          2    1    1    2  501    0  0.24421889765E+02  0.68404275813E+02  0.73730022942E+02  0.10349729432E+03  0.00000000000E+00 0.  1.
          1    1    1    2  502    0  0.14605582203E+02 -0.11801464920E+03  0.12019928303E+03  0.16908177932E+03  0.00000000000E+00 0.  1.
         22    1    1    2    0    0  0.26148123856E+02  0.75148620182E+01  0.86732350251E+00  0.27220392767E+02  0.00000000000E+00 0.  1.
         22    1    1    2    0    0 -0.65175595824E+02  0.42095511364E+02  0.22597744883E+03  0.23892613450E+03  0.00000000000E+00 0.  1.
</event>
<event>
 6    1  0.2809573E-005  0.9122007E+02  0.7818608E-02  0.1303271E+00
          2   -1    0    0  502    0  0.00000000000E+00  0.00000000000E+00  0.15845351619E+03  0.15845351619E+03  0.00000000000E+00 0.  1.
          1   -1    0    0  501    0 -0.00000000000E+00 -0.00000000000E+00 -0.10568001650E+03  0.10568001650E+03  0.00000000000E+00 0.  1.
          2    1    1    2  501    0  0.10628931957E+02 -0.61935724912E+02  0.45641987079E+02  0.77667233757E+02  0.00000000000E+00 0.  1.
          1    1    1    2  502    0 -0.26999669076E+02 -0.17994620254E+02 -0.19067210226E+02  0.37634385794E+02  0.00000000000E+00 0.  1.
         22    1    1    2    0    0  0.15938950182E+02  0.99418552686E+02 -0.16372020577E+02  0.10201049852E+03  0.00000000000E+00 0.  1.
         22    1    1    2    0    0  0.43178693624E+00 -0.19488207521E+02  0.42570743410E+02  0.46821414618E+02  0.00000000000E+00 0.  1.
</event>
<event>
 6    1  0.2809573E-005  0.8912413E+02  0.7818608E-02  0.1315806E+00
          2   -1    0    0  502    0  0.00000000000E+00  0.00000000000E+00  0.23515385380E+03  0.23515385380E+03  0.00000000000E+00 0. -1.
          1   -1    0    0  501    0 -0.00000000000E+00 -0.00000000000E+00 -0.36403408705E+03  0.36403408705E+03  0.00000000000E+00 0. -1.
          2    1    1    2  501    0 -0.21025740240E+02 -0.56159288921E+01 -0.23213852914E+01  0.21886279712E+02  0.00000000000E+00 0. -1.
          1    1    1    2  502    0 -0.34723757985E+00  0.31042427533E+02 -0.33326649152E+03  0.33470928767E+03  0.00000000000E+00 0. -1.
         22    1    1    2    0    0  0.71873457669E+02 -0.26059674586E+02  0.12236256333E+03  0.14428269980E+03  0.00000000000E+00 0. -1.
         22    1    1    2    0    0 -0.50500479849E+02  0.63317594468E+00  0.84345080237E+02  0.98309673669E+02  0.00000000000E+00 0. -1.
</event>
<event>
 6    1  0.2809573E-005  0.1984182E+03  0.7818608E-02  0.1284193E+00
          2   -1    0    0  502    0  0.00000000000E+00  0.00000000000E+00  0.13873530638E+03  0.13873530638E+03  0.00000000000E+00 0.  1.
          1   -1    0    0  501    0 -0.00000000000E+00 -0.00000000000E+00 -0.20952196315E+03  0.20952196315E+03  0.00000000000E+00 0.  1.
          2    1    1    2  501    0 -0.10916862520E+03 -0.59199900705E+01  0.24110797327E+02  0.11195608764E+03  0.00000000000E+00 0.  1.
          1    1    1    2  502    0  0.66877303474E+02 -0.35199754283E+02 -0.60431481301E+02  0.96765491544E+02  0.00000000000E+00 0.  1.
         22    1    1    2    0    0  0.81957535276E+01 -0.86132193093E+01  0.41143255067E+02  0.42826689812E+02  0.00000000000E+00 0.  1.
         22    1    1    2    0    0  0.34095568200E+02  0.49732963663E+02 -0.75609227863E+02  0.96709000531E+02  0.00000000000E+00 0.  1.
</event>
<event>
 6    1  0.2809573E-005  0.1070290E+03  0.7818608E-02  0.1355598E+00
          2   -1    0    0  502    0  0.00000000000E+00  0.00000000000E+00  0.79176803504E+02  0.79176803504E+02  0.00000000000E+00 0.  1.
          1   -1    0    0  501    0 -0.00000000000E+00 -0.00000000000E+00 -0.85362287420E+03  0.85362287420E+03  0.00000000000E+00 0. -1.
          2    1    1    2  501    0  0.34281940504E+02  0.14816052253E+02 -0.19520128062E+02  0.42140268730E+02  0.00000000000E+00 0.  1.
          1    1    1    2  502    0 -0.80968347883E+02 -0.63133549278E+02 -0.73917293314E+03  0.74626961850E+03  0.00000000000E+00 0. -1.
         22    1    1    2    0    0  0.61029910848E+02  0.63827116587E+02 -0.51966414361E+02  0.10246491620E+03  0.00000000000E+00 0.  1.
         22    1    1    2    0    0 -0.14343503470E+02 -0.15509619562E+02  0.36213404871E+02  0.41924874276E+02  0.00000000000E+00 0.  1.
</event>
<event>
 6    1  0.3554905E-005  0.4136250E+03  0.7818608E-02  0.1082071E+00
          2   -1    0    0  502    0  0.00000000000E+00  0.00000000000E+00  0.10559532632E+04  0.10559532632E+04  0.00000000000E+00 0. -1.
          1   -1    0    0  501    0 -0.00000000000E+00 -0.00000000000E+00 -0.12278006763E+04  0.12278006763E+04  0.00000000000E+00 0.  1.
          2    1    1    2  501    0  0.28340884029E+03  0.10805522955E+02  0.42095557817E+03  0.50758342060E+03  0.00000000000E+00 0. -1.
          1    1    1    2  502    0 -0.39775831709E+03  0.42901822034E+02 -0.11356542055E+04  0.12040609285E+04  0.00000000000E+00 0.  1.
         22    1    1    2    0    0 -0.36043119954E+01 -0.13580862474E+02 -0.10789146265E+01  0.14092371953E+02  0.00000000000E+00 0. -1.
         22    1    1    2    0    0  0.11795378879E+03 -0.40126482514E+02  0.54393012888E+03  0.55801721836E+03  0.00000000000E+00 0.  1.
</event>
<event>
 6    1  0.2809573E-005  0.3839943E+03  0.7818608E-02  0.1118163E+00
          2   -1    0    0  502    0  0.00000000000E+00  0.00000000000E+00  0.33600554241E+03  0.33600554241E+03  0.00000000000E+00 0.  1.
          1   -1    0    0  501    0 -0.00000000000E+00 -0.00000000000E+00 -0.85072187747E+03  0.85072187747E+03  0.00000000000E+00 0.  1.
          2    1    1    2  501    0 -0.70488945109E+02 -0.69200410741E+02 -0.11602660377E+03  0.15237966076E+03  0.00000000000E+00 0.  1.
          1    1    1    2  502    0  0.69986310275E+01 -0.27194654772E+02 -0.69364779981E+03  0.69421596083E+03  0.00000000000E+00 0.  1.
         22    1    1    2    0    0  0.59963409700E+02 -0.62450455039E+01  0.67142295044E+02  0.90236904202E+02  0.00000000000E+00 0. -1.
         22    1    1    2    0    0  0.35269043812E+01  0.10264011102E+03  0.22781577349E+03  0.24989489409E+03  0.00000000000E+00 0.  1.
</event>
<event>
 6    1  0.2809573E-005  0.1031359E+03  0.7818608E-02  0.1302174E+00
          2   -1    0    0  502    0  0.00000000000E+00  0.00000000000E+00  0.16100772870E+03  0.16100772870E+03  0.00000000000E+00 0. -1.
          1   -1    0    0  501    0 -0.00000000000E+00 -0.00000000000E+00 -0.15266242568E+04  0.15266242568E+04  0.00000000000E+00 0.  1.
          2    1    1    2  501    0  0.51517337895E+01 -0.55653348532E+02 -0.10644588495E+02  0.56895894650E+02  0.00000000000E+00 0. -1.
          1    1    1    2  502    0 -0.30204827081E+02  0.54542526915E+02 -0.14620094339E+04  0.14633382397E+04  0.00000000000E+00 0.  1.
         22    1    1    2    0    0  0.10953670762E+02  0.59555530008E+02  0.24587641406E+02  0.65355919147E+02  0.00000000000E+00 0.  1.
         22    1    1    2    0    0  0.14099422530E+02 -0.58444708391E+02  0.82449852885E+02  0.10204193204E+03  0.00000000000E+00 0. -1.
</event>
<event>
 6    1  0.2809573E-005  0.1828145E+03  0.7818608E-02  0.1264161E+00
          2   -1    0    0  502    0  0.00000000000E+00  0.00000000000E+00  0.15226383781E+03  0.15226383781E+03  0.00000000000E+00 0.  1.
          1   -1    0    0  501    0 -0.00000000000E+00 -0.00000000000E+00 -0.50080155733E+03  0.50080155733E+03  0.00000000000E+00 0. -1.
          2    1    1    2  501    0 -0.23760327714E+02 -0.80467726904E+02 -0.82920144135E+02  0.11796337800E+03  0.00000000000E+00 0.  1.
          1    1    1    2  502    0  0.79339864007E+01  0.14916529998E+03 -0.34372617673E+03  0.37478116205E+03  0.00000000000E+00 0. -1.
         22    1    1    2    0    0  0.10514531285E+02 -0.90392569998E+02  0.13547116298E+02  0.92004871822E+02  0.00000000000E+00 0.  1.
         22    1    1    2    0    0  0.53118100278E+01  0.21694996926E+02  0.64561485050E+02  0.68315983264E+02  0.00000000000E+00 0. -1.
</event>
<event>
 6    1  0.2809573E-005  0.1161895E+03  0.7818608E-02  0.1296764E+00
          2   -1    0    0  502    0  0.00000000000E+00  0.00000000000E+00  0.39810807469E+03  0.39810807469E+03  0.00000000000E+00 0. -1.
          1   -1    0    0  501    0 -0.00000000000E+00 -0.00000000000E+00 -0.48860448253E+03  0.48860448253E+03  0.00000000000E+00 0.  1.
          2    1    1    2  501    0 -0.40207357548E+02  0.61520094230E+01  0.11547221790E+02  0.42282586865E+02  0.00000000000E+00 0. -1.
          1    1    1    2  502    0  0.37130894697E+02  0.63988629142E+00 -0.46264041359E+03  0.46412850061E+03  0.00000000000E+00 0.  1.
         22    1    1    2    0    0  0.52564945254E+02 -0.14910956972E+02  0.91506787533E+02  0.10657815101E+03  0.00000000000E+00 0.  1.
         22    1    1    2    0    0 -0.49488482403E+02  0.81190612574E+01  0.26908999642E+03  0.27372331874E+03  0.00000000000E+00 0. -1.
</event>
<event>
 6    1  0.2809573E-005  0.7551087E+03  0.7818608E-02  0.1052007E+00
          2   -1    0    0  502    0  0.00000000000E+00  0.00000000000E+00  0.15456323455E+04  0.15456323455E+04  0.00000000000E+00 0.  1.
          1   -1    0    0  501    0 -0.00000000000E+00 -0.00000000000E+00 -0.89836715286E+03  0.89836715286E+03  0.00000000000E+00 0.  1.
          2    1    1    2  501    0  0.10918241199E+03 -0.28422962235E+03  0.33965933621E+03  0.45615320013E+03  0.00000000000E+00 0.  1.
          1    1    1    2  502    0  0.14929585719E+03 -0.72478777851E+02 -0.78548651438E+03  0.80282718594E+03  0.00000000000E+00 0.  1.
         22    1    1    2    0    0  0.50017138988E+01  0.46705574809E+02  0.73216956750E+02  0.86989370706E+02  0.00000000000E+00 0.  1.
         22    1    1    2    0    0 -0.26347998307E+03  0.31000282539E+03  0.10198754140E+04  0.10980297416E+04  0.00000000000E+00 0.  1.
</event>
<event>
 6    1  0.2809573E-005  0.1003292E+03  0.7818608E-02  0.1329533E+00
          2   -1    0    0  502    0  0.00000000000E+00  0.00000000000E+00  0.84870352996E+03  0.84870352996E+03  0.00000000000E+00 0.  1.
          1   -1    0    0  501    0 -0.00000000000E+00 -0.00000000000E+00 -0.44897964305E+02  0.44897964305E+02  0.00000000000E+00 0.  1.
          2    1    1    2  501    0 -0.36074360007E+01  0.41696982592E+02  0.26237408531E+03  0.26569119781E+03  0.00000000000E+00 0.  1.
          1    1    1    2  502    0  0.53071816101E+02 -0.67916021913E+02  0.18119236868E+02  0.88076730420E+02  0.00000000000E+00 0.  1.
         22    1    1    2    0    0  0.13837101214E+02 -0.37760152796E+02  0.11854291234E+03  0.12517873851E+03  0.00000000000E+00 0. -1.
         22    1    1    2    0    0 -0.63301481313E+02  0.63979192118E+02  0.40476933114E+03  0.41465482753E+03  0.00000000000E+00 0. -1.
</event>
<event>
 6    1  0.2809573E-005  0.9210334E+02  0.7818608E-02  0.1367865E+00
          2   -1    0    0  502    0  0.00000000000E+00  0.00000000000E+00  0.12488235663E+03  0.12488235663E+03  0.00000000000E+00 0.  1.
          1   -1    0    0  501    0 -0.00000000000E+00 -0.00000000000E+00 -0.35684643885E+03  0.35684643885E+03  0.00000000000E+00 0. -1.
          2    1    1    2  501    0 -0.45236240095E+02  0.24035705808E+02  0.28684325862E+02  0.58709651010E+02  0.00000000000E+00 0.  1.
          1    1    1    2  502    0 -0.30951867643E+02 -0.28424525622E+02 -0.27083749473E+03  0.27407831056E+03  0.00000000000E+00 0. -1.
         22    1    1    2    0    0  0.51183471422E+02  0.21535410585E+02 -0.54308827808E+02  0.77672198589E+02  0.00000000000E+00 0.  1.
         22    1    1    2    0    0  0.25004636316E+02 -0.17146590770E+02  0.64497914449E+02  0.71268635321E+02  0.00000000000E+00 0.  1.
</event>
<event>
 6    1  0.2809573E-005  0.1968586E+03  0.7818608E-02  0.1245972E+00
          2   -1    0    0  502    0  0.00000000000E+00  0.00000000000E+00  0.17876652593E+03  0.17876652593E+03  0.00000000000E+00 0.  1.
          1   -1    0    0  501    0 -0.00000000000E+00 -0.00000000000E+00 -0.55064660629E+03  0.55064660629E+03  0.00000000000E+00 0. -1.
          2    1    1    2  501    0 -0.27244032205E+02 -0.11501355744E+03  0.39802933320E+02  0.12471819910E+03  0.00000000000E+00 0.  1.
          1    1    1    2  502    0  0.48951805054E+02  0.70767020730E+02 -0.45694991507E+03  0.46498115588E+03  0.00000000000E+00 0. -1.
         22    1    1    2    0    0 -0.41786054925E+02  0.60208901974E+02 -0.14469613269E+02  0.74703118886E+02  0.00000000000E+00 0. -1.
         22    1    1    2    0    0  0.20078282075E+02 -0.15962365267E+02  0.59736514660E+02  0.65010658355E+02  0.00000000000E+00 0.  1.
</event>
<event>
 6    1  0.2809573E-005  0.6972263E+02  0.7818608E-02  0.1402286E+00
          2   -1    0    0  502    0  0.00000000000E+00  0.00000000000E+00  0.22454169664E+03  0.22454169664E+03  0.00000000000E+00 0. -1.
          1   -1    0    0  501    0 -0.00000000000E+00 -0.00000000000E+00 -0.80088895834E+02  0.80088895834E+02  0.00000000000E+00 0.  1.
          2    1    1    2  501    0  0.16709406126E+02 -0.23788747104E+02 -0.14894114476E+02  0.32664099373E+02  0.00000000000E+00 0. -1.
          1    1    1    2  502    0 -0.13774247084E+02  0.26077685396E+02 -0.33384553267E+02  0.44545526770E+02  0.00000000000E+00 0.  1.
         22    1    1    2    0    0  0.34519301886E+02  0.97598696192E+01  0.18354542227E+03  0.18701807210E+03  0.00000000000E+00 0. -1.
         22    1    1    2    0    0 -0.37454460928E+02 -0.12048807912E+02  0.91860462771E+01  0.40402894225E+02  0.00000000000E+00 0.  1.
</event>
<event>
 6    1  0.2809573E-005  0.1013764E+03  0.7818608E-02  0.1277940E+00
          2   -1    0    0  502    0  0.00000000000E+00  0.00000000000E+00  0.55452672302E+02  0.55452672302E+02  0.00000000000E+00 0.  1.
          1   -1    0    0  501    0 -0.00000000000E+00 -0.00000000000E+00 -0.46928815092E+03  0.46928815092E+03  0.00000000000E+00 0.  1.
          2    1    1    2  501    0 -0.91982122695E+01  0.56872737447E+02 -0.18354747948E+03  0.19237669453E+03  0.00000000000E+00 0.  1.
          1    1    1    2  502    0 -0.41269137956E+02  0.25682255897E+02 -0.15174304073E+03  0.15933822651E+03  0.00000000000E+00 0.  1.
         22    1    1    2    0    0  0.45972551028E+02 -0.98311929248E+02 -0.17638350220E+02  0.10995372790E+03  0.00000000000E+00 0.  1.
         22    1    1    2    0    0  0.44947991982E+01  0.15756935904E+02 -0.60906608184E+02  0.63072174288E+02  0.00000000000E+00 0.  1.
</event>
<event>
 6    1  0.2809573E-005  0.2124436E+03  0.7818608E-02  0.1199529E+00
          2   -1    0    0  502    0  0.00000000000E+00  0.00000000000E+00  0.37181433929E+02  0.37181433929E+02  0.00000000000E+00 0. -1.
          1   -1    0    0  501    0 -0.00000000000E+00 -0.00000000000E+00 -0.11485582271E+04  0.11485582271E+04  0.00000000000E+00 0. -1.
          2    1    1    2  501    0  0.61407714911E+02 -0.60117516260E+02 -0.70235429551E+03  0.70759209975E+03  0.00000000000E+00 0. -1.
          1    1    1    2  502    0 -0.44083134239E+02  0.10143917034E+03 -0.20637433781E+03  0.23414438987E+03  0.00000000000E+00 0. -1.
         22    1    1    2    0    0 -0.39281819602E+02  0.36898448491E+02 -0.93766396804E+02  0.10815125529E+03  0.00000000000E+00 0.  1.
         22    1    1    2    0    0  0.21957238930E+02 -0.78220102569E+02 -0.10888176309E+03  0.13585191614E+03  0.00000000000E+00 0. -1.
</event>
<event>
 6    1  0.2809573E-005  0.1272016E+03  0.7818608E-02  0.1317638E+00
          2   -1    0    0  502    0  0.00000000000E+00  0.00000000000E+00  0.14129493256E+03  0.14129493256E+03  0.00000000000E+00 0. -1.
          1   -1    0    0  501    0 -0.00000000000E+00 -0.00000000000E+00 -0.21231031521E+03  0.21231031521E+03  0.00000000000E+00 0. -1.
          2    1    1    2  501    0  0.75638250969E-01 -0.30745441014E+02 -0.35608214519E+02  0.47045008296E+02  0.00000000000E+00 0. -1.
          1    1    1    2  502    0 -0.66538578551E+02  0.17433753689E+02 -0.12266665904E+03  0.14063579716E+03  0.00000000000E+00 0. -1.
         22    1    1    2    0    0 -0.24377200678E+02 -0.15007491625E+00  0.67805145428E+02  0.72054203083E+02  0.00000000000E+00 0. -1.
         22    1    1    2    0    0  0.90840140978E+02  0.13461762242E+02  0.19454345479E+02  0.93870239232E+02  0.00000000000E+00 0. -1.
</event>
<event>
 6    1  0.2809573E-005  0.4552558E+03  0.7818608E-02  0.1166911E+00
          2   -1    0    0  502    0  0.00000000000E+00  0.00000000000E+00  0.71123568394E+02  0.71123568394E+02  0.00000000000E+00 0. -1.
          1   -1    0    0  501    0 -0.00000000000E+00 -0.00000000000E+00 -0.26111126522E+04  0.26111126522E+04  0.00000000000E+00 0.  1.
          2    1    1    2  501    0 -0.10469492655E+03 -0.81902915180E+02 -0.28265809005E+03  0.31235350331E+03  0.00000000000E+00 0. -1.
          1    1    1    2  502    0  0.15712848925E+02  0.38107079732E+03 -0.12956704943E+04  0.13506383217E+04  0.00000000000E+00 0.  1.
         22    1    1    2    0    0  0.93696938843E+02 -0.30949895331E+03 -0.94707327700E+03  0.10007579680E+04  0.00000000000E+00 0. -1.
         22    1    1    2    0    0 -0.47148612130E+01  0.10331071165E+02 -0.14587222475E+02  0.18486427649E+02  0.00000000000E+00 0. -1.
</event>
<event>
 6    1  0.2809573E-005  0.1165184E+03  0.7818608E-02  0.1295859E+00
          2   -1    0    0  502    0  0.00000000000E+00  0.00000000000E+00  0.12792345452E+03  0.12792345452E+03  0.00000000000E+00 0.  1.
          1   -1    0    0  501    0 -0.00000000000E+00 -0.00000000000E+00 -0.47175475547E+03  0.47175475547E+03  0.00000000000E+00 0.  1.
          2    1    1    2  501    0 -0.77361442781E+01 -0.49887279165E+02 -0.28228713077E+03  0.28676578030E+03  0.00000000000E+00 0.  1.
          1    1    1    2  502    0  0.10818428364E+02  0.14032699751E+03  0.14798365648E+02  0.14151924339E+03  0.00000000000E+00 0.  1.
         22    1    1    2    0    0  0.17615339293E+02 -0.43776364306E+02  0.28257544992E+02  0.55001446338E+02  0.00000000000E+00 0.  1.
         22    1    1    2    0    0 -0.20697623379E+02 -0.46663354043E+02 -0.10460008082E+03  0.11639173996E+03  0.00000000000E+00 0. -1.
</event>
<event>
 6    1  0.2809573E-005  0.9987408E+02  0.7818608E-02  0.1284969E+00
          2   -1    0    0  502    0  0.00000000000E+00  0.00000000000E+00  0.91627571864E+02  0.91627571864E+02  0.00000000000E+00 0. -1.
          1   -1    0    0  501    0 -0.00000000000E+00 -0.00000000000E+00 -0.15341135904E+03  0.15341135904E+03  0.00000000000E+00 0. -1.
          2    1    1    2  501    0 -0.60252539978E+02 -0.13766414202E+02 -0.17003704846E+02  0.64101549999E+02  0.00000000000E+00 0. -1.
          1    1    1    2  502    0  0.19215110187E+02 -0.14090638838E+02  0.21483670668E+02  0.32082934213E+02  0.00000000000E+00 0. -1.
         22    1    1    2    0    0  0.71512708566E+02  0.52286174308E+02 -0.25025122455E+02  0.92055245718E+02  0.00000000000E+00 0. -1.
         22    1    1    2    0    0 -0.30475278776E+02 -0.24429121267E+02 -0.41238630540E+02  0.56799200973E+02  0.00000000000E+00 0.  1.
</event>
<event>
 6    1  0.2809573E-005  0.1126377E+03  0.7818608E-02  0.1308783E+00
          2   -1    0    0  502    0  0.00000000000E+00  0.00000000000E+00  0.16163255613E+02  0.16163255613E+02  0.00000000000E+00 0.  1.
          1   -1    0    0  501    0 -0.00000000000E+00 -0.00000000000E+00 -0.14858688346E+04  0.14858688346E+04  0.00000000000E+00 0.  1.
          2    1    1    2  501    0  0.20167101120E+02 -0.18765859945E+02 -0.15600784780E+03  0.15842133077E+03  0.00000000000E+00 0.  1.
          1    1    1    2  502    0 -0.86993817605E+02  0.23744136930E+02 -0.91690195767E+03  0.92132562556E+03  0.00000000000E+00 0.  1.
         22    1    1    2    0    0 -0.35093290834E+02 -0.21577975505E+02 -0.10916499999E+03  0.11667966966E+03  0.00000000000E+00 0.  1.
         22    1    1    2    0    0  0.10192000732E+03  0.16599698519E+02 -0.28763077349E+03  0.30560546419E+03  0.00000000000E+00 0.  1.
</event>
<event>
 6    1  0.2809573E-005  0.1790166E+03  0.7818608E-02  0.1169727E+00
          2   -1    0    0  502    0  0.00000000000E+00  0.00000000000E+00  0.18617323708E+03  0.18617323708E+03  0.00000000000E+00 0. -1.
          1   -1    0    0  501    0 -0.00000000000E+00 -0.00000000000E+00 -0.58301411179E+03  0.58301411179E+03  0.00000000000E+00 0. -1.
          2    1    1    2  501    0  0.10623503796E+03 -0.13020319009E+03  0.87889531802E+02  0.18963998471E+03  0.00000000000E+00 0. -1.
          1    1    1    2  502    0 -0.87686054911E+02  0.33347728365E+01 -0.33884993834E+03  0.35002749271E+03  0.00000000000E+00 0. -1.
         22    1    1    2    0    0  0.20846703184E+02 -0.11316936058E+02  0.13927198518E+01  0.23761265622E+02  0.00000000000E+00 0.  1.
         22    1    1    2    0    0 -0.39395686235E+02  0.13818535331E+03 -0.14727318802E+03  0.20575860583E+03  0.00000000000E+00 0. -1.
</event>
<event>
 6    1  0.2809573E-005  0.1040872E+03  0.7818608E-02  0.1346307E+00
          2   -1    0    0  502    0  0.00000000000E+00  0.00000000000E+00  0.95497939438E+02  0.95497939438E+02  0.00000000000E+00 0. -1.
          1   -1    0    0  501    0 -0.00000000000E+00 -0.00000000000E+00 -0.68877983701E+03  0.68877983701E+03  0.00000000000E+00 0. -1.
          2    1    1    2  501    0  0.61585726870E+02 -0.64580340051E+02 -0.51980953655E+03  0.52741385682E+03  0.00000000000E+00 0. -1.
          1    1    1    2  502    0 -0.56545644064E+02  0.82019029288E+02 -0.86968810221E+02  0.13224259896E+03  0.00000000000E+00 0. -1.
         22    1    1    2    0    0 -0.18880916596E+02 -0.19170598022E+02  0.65483162704E+02  0.70795800990E+02  0.00000000000E+00 0. -1.
         22    1    1    2    0    0  0.13840833789E+02  0.17319087856E+01 -0.51986713500E+02  0.53825519677E+02  0.00000000000E+00 0.  1.
</event>
<event>
 6    1  0.2809573E-005  0.6729144E+02  0.7818608E-02  0.1430539E+00
          2   -1    0    0  502    0  0.00000000000E+00  0.00000000000E+00  0.25705116799E+03  0.25705116799E+03  0.00000000000E+00 0. -1.
          1   -1    0    0  501    0 -0.00000000000E+00 -0.00000000000E+00 -0.50078833645E+02  0.50078833645E+02  0.00000000000E+00 0. -1.
          2    1    1    2  501    0 -0.28369127763E+02  0.13873639977E+02 -0.45505720190E+00  0.31583102655E+02  0.00000000000E+00 0. -1.
          1    1    1    2  502    0  0.43116320983E+02 -0.13612650691E+02  0.10157352165E+03  0.11118229038E+03  0.00000000000E+00 0. -1.
         22    1    1    2    0    0  0.25431765038E+02 -0.29926938569E+01  0.11921508735E+03  0.12193427714E+03  0.00000000000E+00 0. -1.
         22    1    1    2    0    0 -0.40178958257E+02  0.27317045713E+01 -0.13361217450E+02  0.42430331465E+02  0.00000000000E+00 0. -1.
</event>
<event>
 6    1  0.2809573E-005  0.4653809E+03  0.7818608E-02  0.1122227E+00
          2   -1    0    0  502    0  0.00000000000E+00  0.00000000000E+00  0.66113364026E+03  0.66113364026E+03  0.00000000000E+00 0. -1.
          1   -1    0    0  501    0 -0.00000000000E+00 -0.00000000000E+00 -0.26057726601E+04  0.26057726601E+04  0.00000000000E+00 0.  1.
          2    1    1    2  501    0 -0.16249575625E+02 -0.80246185137E+02 -0.88018288864E+02  0.12021113972E+03  0.00000000000E+00 0. -1.
          1    1    1    2  502    0  0.89838490713E+02  0.26492369957E+02 -0.24915333481E+04  0.24932932489E+04  0.00000000000E+00 0.  1.
         22    1    1    2    0    0 -0.98482623481E+02  0.72188280249E+02  0.46982476456E+03  0.48543308944E+03  0.00000000000E+00 0. -1.
         22    1    1    2    0    0  0.24893708393E+02 -0.18434465069E+02  0.16508785256E+03  0.16796882236E+03  0.00000000000E+00 0. -1.
</event>
<event>
 6    1  0.2809573E-005  0.1691472E+03  0.7818608E-02  0.1266554E+00
          2   -1    0    0  502    0  0.00000000000E+00  0.00000000000E+00  0.54309587203E+02  0.54309587203E+02  0.00000000000E+00 0. -1.
          1   -1    0    0  501    0 -0.00000000000E+00 -0.00000000000E+00 -0.10599304755E+04  0.10599304755E+04  0.00000000000E+00 0. -1.
          2    1    1    2  501    0  0.26269147184E+02  0.12193404544E+03 -0.43068506128E+03  0.44838331988E+03  0.00000000000E+00 0. -1.
          1    1    1    2  502    0 -0.36009652629E+02 -0.14711334494E+03 -0.49198492811E+03  0.51477004656E+03  0.00000000000E+00 0. -1.
         22    1    1    2    0    0 -0.22708568340E+02 -0.14447195072E+02  0.21701224543E+02  0.34573742466E+02  0.00000000000E+00 0. -1.
         22    1    1    2    0    0  0.32449073784E+02  0.39626494577E+02 -0.10465212342E+03  0.11651295378E+03  0.00000000000E+00 0. -1.
</event>
<event>
 6    1  0.2809573E-005  0.3069298E+03  0.7818608E-02  0.1125211E+00
          2   -1    0    0  502    0  0.00000000000E+00  0.00000000000E+00  0.22485283313E+03  0.22485283313E+03  0.00000000000E+00 0.  1.
          1   -1    0    0  501    0 -0.00000000000E+00 -0.00000000000E+00 -0.30265402350E+04  0.30265402350E+04  0.00000000000E+00 0. -1.
          2    1    1    2  501    0 -0.11970115691E+03 -0.32552580617E+02 -0.48816386946E+02  0.13330820344E+03  0.00000000000E+00 0.  1.
          1    1    1    2  502    0 -0.22939560835E+02  0.20914975195E+03 -0.28369918555E+04  0.28447834066E+04  0.00000000000E+00 0. -1.
         22    1    1    2    0    0  0.45136644745E+02 -0.15323074741E+03  0.49719161671E+02  0.16729905466E+03  0.00000000000E+00 0.  1.
         22    1    1    2    0    0  0.97504073000E+02 -0.23366423922E+02  0.34401678925E+02  0.10600240342E+03  0.00000000000E+00 0.  1.
</event>
<event>
 6    1  0.2809573E-005  0.7751987E+02  0.7818608E-02  0.1416302E+00
          2   -1    0    0  502    0  0.00000000000E+00  0.00000000000E+00  0.80043350165E+02  0.80043350165E+02  0.00000000000E+00 0.  1.
          1   -1    0    0  501    0 -0.00000000000E+00 -0.00000000000E+00 -0.72383521154E+03  0.72383521154E+03  0.00000000000E+00 0.  1.
          2    1    1    2  501    0 -0.67688176084E+02 -0.80890237257E+01 -0.26985541945E+03  0.27833265869E+03  0.00000000000E+00 0.  1.
          1    1    1    2  502    0  0.68293445366E+02  0.15177209255E+02 -0.38854040431E+03  0.39478853598E+03  0.00000000000E+00 0.  1.
         22    1    1    2    0    0 -0.13088397768E+02  0.95839634293E+01 -0.55397152097E+02  0.57723504498E+02  0.00000000000E+00 0.  1.
         22    1    1    2    0    0  0.12483128486E+02 -0.16672148959E+02  0.70001114484E+02  0.73033862535E+02  0.00000000000E+00 0.  1.
</event>
<event>
 6    1  0.2809573E-005  0.2863117E+03  0.7818608E-02  0.1165816E+00
          2   -1    0    0  502    0  0.00000000000E+00  0.00000000000E+00  0.94997184026E+02  0.94997184026E+02  0.00000000000E+00 0. -1.
          1   -1    0    0  501    0 -0.00000000000E+00 -0.00000000000E+00 -0.27654421285E+04  0.27654421285E+04  0.00000000000E+00 0.  1.
          2    1    1    2  501    0 -0.56202404384E+02  0.12474251380E+03 -0.20165361141E+03  0.24368747198E+03  0.00000000000E+00 0. -1.
          1    1    1    2  502    0  0.31870002241E+02  0.15072026433E+02 -0.24184878239E+04  0.24187447607E+04  0.00000000000E+00 0.  1.
         22    1    1    2    0    0  0.64792508520E+02 -0.11297705430E+03 -0.67258985409E+02  0.14657985904E+03  0.00000000000E+00 0. -1.
         22    1    1    2    0    0 -0.40460106376E+02 -0.26837485931E+02  0.16955476290E+02  0.51427220762E+02  0.00000000000E+00 0.  1.
</event>
<event>
 6    1  0.2809573E-005  0.2417927E+03  0.7818608E-02  0.1243089E+00
          2   -1    0    0  502    0  0.00000000000E+00  0.00000000000E+00  0.53402751578E+02  0.53402751578E+02  0.00000000000E+00 0. -1.
          1   -1    0    0  501    0 -0.00000000000E+00 -0.00000000000E+00 -0.56263216555E+03  0.56263216555E+03  0.00000000000E+00 0. -1.
          2    1    1    2  501    0  0.12124715792E+03 -0.36167983835E+02 -0.15189663288E+03  0.19769062557E+03  0.00000000000E+00 0. -1.
          1    1    1    2  502    0 -0.27131838303E+02  0.48723265515E+02 -0.53262661496E+02  0.77116822819E+02  0.00000000000E+00 0. -1.
         22    1    1    2    0    0 -0.90404969080E+02  0.16389705937E+01 -0.31179899879E+03  0.32464497579E+03  0.00000000000E+00 0. -1.
         22    1    1    2    0    0 -0.37103505397E+01 -0.14194252274E+02  0.77288791937E+01  0.16582492947E+02  0.00000000000E+00 0. -1.
</event>
<event>
 6    1  0.2809573E-005  0.1090024E+03  0.7818608E-02  0.1263772E+00
          2   -1    0    0  502    0  0.00000000000E+00  0.00000000000E+00  0.12681616258E+03  0.12681616258E+03  0.00000000000E+00 0. -1.
          1   -1    0    0  501    0 -0.00000000000E+00 -0.00000000000E+00 -0.31859877854E+04  0.31859877854E+04  0.00000000000E+00 0.  1.
          2    1    1    2  501    0  0.11581918611E+03 -0.53465759728E+02 -0.43447733853E+03  0.45281699287E+03  0.00000000000E+00 0. -1.
          1    1    1    2  502    0 -0.21820407328E+02  0.50503322613E+02 -0.26885571655E+04  0.26891199951E+04  0.00000000000E+00 0.  1.
         22    1    1    2    0    0 -0.10507750508E+03  0.10862609897E+01  0.92568392010E+02  0.14004059853E+03  0.00000000000E+00 0. -1.
         22    1    1    2    0    0  0.11078726298E+02  0.18761761255E+01 -0.28705510775E+02  0.30826361480E+02  0.00000000000E+00 0. -1.
</event>
<event>
 6    1  0.2809573E-005  0.5213629E+03  0.7818608E-02  0.1145657E+00
          2   -1    0    0  502    0  0.00000000000E+00  0.00000000000E+00  0.12617464490E+03  0.12617464490E+03  0.00000000000E+00 0.  1.
          1   -1    0    0  501    0 -0.00000000000E+00 -0.00000000000E+00 -0.77039691699E+03  0.77039691699E+03  0.00000000000E+00 0.  1.
          2    1    1    2  501    0 -0.23259403406E+03  0.62603942546E+02 -0.20045906250E+03  0.31337369711E+03  0.00000000000E+00 0.  1.
          1    1    1    2  502    0 -0.18937034896E+02  0.45323218131E+02 -0.16701888360E+03  0.17409225391E+03  0.00000000000E+00 0.  1.
         22    1    1    2    0    0  0.26082305729E+03 -0.99653380043E+02 -0.28082894054E+03  0.39601055190E+03  0.00000000000E+00 0.  1.
         22    1    1    2    0    0 -0.92919883346E+01 -0.82737806346E+01  0.40846145600E+01  0.13095058965E+02  0.00000000000E+00 0. -1.
</event>
<event>
 6    1  0.2809573E-005  0.7244958E+02  0.7818608E-02  0.1355928E+00
          2   -1    0    0  502    0  0.00000000000E+00  0.00000000000E+00  0.95733940209E+02  0.95733940209E+02  0.00000000000E+00 0. -1.
          1   -1    0    0  501    0 -0.00000000000E+00 -0.00000000000E+00 -0.21475843982E+03  0.21475843982E+03  0.00000000000E+00 0.  1.
          2    1    1    2  501    0  0.59225310941E+01 -0.57405358807E+02  0.32816219451E+02  0.66387919484E+02  0.00000000000E+00 0. -1.
          1    1    1    2  502    0  0.31170855691E+02  0.32997215940E+02 -0.74402334328E+02  0.87155871046E+02  0.00000000000E+00 0.  1.
         22    1    1    2    0    0  0.27436290623E+02  0.98646386575E+01 -0.85477938211E+02  0.90313559667E+02  0.00000000000E+00 0. -1.
         22    1    1    2    0    0 -0.64529677408E+02  0.14543504209E+02  0.80395534735E+01  0.66635029835E+02  0.00000000000E+00 0. -1.
</event>
<event>
 6    1  0.2809573E-005  0.1605003E+03  0.7818608E-02  0.1197895E+00
          2   -1    0    0  502    0  0.00000000000E+00  0.00000000000E+00  0.95288116829E+03  0.95288116829E+03  0.00000000000E+00 0.  1.
          1   -1    0    0  501    0 -0.00000000000E+00 -0.00000000000E+00 -0.15250026533E+04  0.15250026533E+04  0.00000000000E+00 0.  1.
          2    1    1    2  501    0  0.72527505295E+02 -0.16652790117E+03  0.10863569548E+03  0.21164473824E+03  0.00000000000E+00 0.  1.
          1    1    1    2  502    0  0.13204718060E+02  0.10098444756E+03 -0.14634645134E+04  0.14670039554E+04  0.00000000000E+00 0.  1.
         22    1    1    2    0    0 -0.78639443635E+02  0.94807863676E+02  0.70889447738E+03  0.71951655517E+03  0.00000000000E+00 0. -1.
         22    1    1    2    0    0 -0.70927797204E+01 -0.29264410068E+02  0.73812855470E+02  0.79718572826E+02  0.00000000000E+00 0. -1.
</event>
<event>
 6    1  0.2809573E-005  0.8239242E+02  0.7818608E-02  0.1430446E+00
          2   -1    0    0  502    0  0.00000000000E+00  0.00000000000E+00  0.83211914399E+02  0.83211914399E+02  0.00000000000E+00 0. -1.
          1   -1    0    0  501    0 -0.00000000000E+00 -0.00000000000E+00 -0.99436688361E+03  0.99436688361E+03  0.00000000000E+00 0.  1.
          2    1    1    2  501    0 -0.21649218575E+02  0.26600564595E+01 -0.26454916748E+02  0.34287420221E+02  0.00000000000E+00 0. -1.
          1    1    1    2  502    0  0.74070048547E+02 -0.33024502042E+02 -0.90060086295E+03  0.90424493594E+03  0.00000000000E+00 0.  1.
         22    1    1    2    0    0 -0.38818107547E+02  0.33546599676E+02 -0.50024863298E+02  0.71656868278E+02  0.00000000000E+00 0. -1.
         22    1    1    2    0    0 -0.13602722425E+02 -0.31821540931E+01  0.65925673785E+02  0.67389573571E+02  0.00000000000E+00 0. -1.
</event>
<event>
 6    1  0.2809573E-005  0.1028282E+03  0.7818608E-02  0.1344285E+00
          2   -1    0    0  502    0  0.00000000000E+00  0.00000000000E+00  0.19650017634E+03  0.19650017634E+03  0.00000000000E+00 0. -1.
          1   -1    0    0  501    0 -0.00000000000E+00 -0.00000000000E+00 -0.20229375932E+03  0.20229375932E+03  0.00000000000E+00 0. -1.
          2    1    1    2  501    0  0.56361762487E+02 -0.25236653250E+02  0.79873687934E+00  0.61759006780E+02  0.00000000000E+00 0. -1.
          1    1    1    2  502    0 -0.68470226780E+02  0.42774108006E+02 -0.13419202620E+03  0.15660554322E+03  0.00000000000E+00 0. -1.
         22    1    1    2    0    0 -0.15834991195E+02 -0.24888809068E+02 -0.16268897080E+02  0.33687932189E+02  0.00000000000E+00 0. -1.
         22    1    1    2    0    0  0.27943455488E+02  0.73513543130E+01  0.14386860343E+03  0.14674145347E+03  0.00000000000E+00 0. -1.
</event>
<event>
 6    1  0.2809573E-005  0.3136328E+03  0.7818608E-02  0.1146747E+00
          2   -1    0    0  502    0  0.00000000000E+00  0.00000000000E+00  0.63990796776E+03  0.63990796776E+03  0.00000000000E+00 0.  1.
          1   -1    0    0  501    0 -0.00000000000E+00 -0.00000000000E+00 -0.10780715260E+04  0.10780715260E+04  0.00000000000E+00 0. -1.
          2    1    1    2  501    0 -0.23483213867E+02  0.12975142218E+03 -0.31925784335E+02  0.13566926180E+03  0.00000000000E+00 0.  1.
          1    1    1    2  502    0  0.34809842036E+02 -0.76736268543E+02 -0.98460709462E+03  0.98820610744E+03  0.00000000000E+00 0. -1.
         22    1    1    2    0    0 -0.64656369147E+02 -0.36989004572E+02  0.24357838770E+03  0.25471368924E+03  0.00000000000E+00 0.  1.
         22    1    1    2    0    0  0.53329740979E+02 -0.16026149064E+02  0.33479093302E+03  0.33939043528E+03  0.00000000000E+00 0.  1.
</event>
<event>
 6    1  0.2809573E-005  0.3095219E+03  0.7818608E-02  0.1169195E+00
          2   -1    0    0  502    0  0.00000000000E+00  0.00000000000E+00  0.70933624322E+03  0.70933624322E+03  0.00000000000E+00 0. -1.
          1   -1    0    0  501    0 -0.00000000000E+00 -0.00000000000E+00 -0.19221202533E+03  0.19221202533E+03  0.00000000000E+00 0. -1.
          2    1    1    2  501    0  0.16421027726E+03 -0.63646647225E+02  0.11462490417E+03  0.21013038694E+03  0.00000000000E+00 0. -1.
          1    1    1    2  502    0 -0.26974587152E+03  0.55594080546E+02  0.21765471846E+02  0.27627390894E+03  0.00000000000E+00 0. -1.
         22    1    1    2    0    0 -0.18236461551E+02  0.29037415733E+02  0.13389280376E+03  0.13821368580E+03  0.00000000000E+00 0.  1.
         22    1    1    2    0    0  0.12377205582E+03 -0.20984849054E+02  0.24684103811E+03  0.27693028687E+03  0.00000000000E+00 0.  1.
</event>
<event>
 6    1  0.2809573E-005  0.1356665E+03  0.7818608E-02  0.1295580E+00
          2   -1    0    0  502    0  0.00000000000E+00  0.00000000000E+00  0.18897266799E+03  0.18897266799E+03  0.00000000000E+00 0.  1.
          1   -1    0    0  501    0 -0.00000000000E+00 -0.00000000000E+00 -0.12085114196E+03  0.12085114196E+03  0.00000000000E+00 0. -1.
          2    1    1    2  501    0  0.20150508725E+02 -0.61846172938E+02  0.36616711776E+02  0.74644327917E+02  0.00000000000E+00 0.  1.
          1    1    1    2  502    0  0.42738752961E+02  0.63021001128E+02 -0.34089633568E+02  0.83428716307E+02  0.00000000000E+00 0. -1.
         22    1    1    2    0    0  0.13719509163E+02  0.26735623380E+02  0.63429093228E+02  0.70187380325E+02  0.00000000000E+00 0.  1.
         22    1    1    2    0    0 -0.76608770848E+02 -0.27910451570E+02  0.21653545888E+01  0.81563385402E+02  0.00000000000E+00 0.  1.
</event>
<event>
 6    1  0.2809573E-005  0.1697059E+03  0.7818608E-02  0.1239825E+00
          2   -1    0    0  502    0  0.00000000000E+00  0.00000000000E+00  0.80889974415E+03  0.80889974415E+03  0.00000000000E+00 0.  1.
          1   -1    0    0  501    0 -0.00000000000E+00 -0.00000000000E+00 -0.55682084232E+03  0.55682084232E+03  0.00000000000E+00 0.  1.
          2    1    1    2  501    0  0.58519884875E+02 -0.63526879395E+02  0.22537616692E+03  0.24136001729E+03  0.00000000000E+00 0.  1.
          1    1    1    2  502    0  0.24327430554E+02  0.89605261763E+02 -0.53459412002E+03  0.54259727236E+03  0.00000000000E+00 0.  1.
         22    1    1    2    0    0 -0.34873061743E+01  0.45200022958E+02  0.13919115851E+03  0.14638777950E+03  0.00000000000E+00 0. -1.
         22    1    1    2    0    0 -0.79360009255E+02 -0.71278405326E+02  0.42210569641E+03  0.43537551731E+03  0.00000000000E+00 0.  1.
</event>
<event>
 6    1  0.2809573E-005  0.8057951E+02  0.7818608E-02  0.1332666E+00
          2   -1    0    0  502    0  0.00000000000E+00  0.00000000000E+00  0.39582952566E+03  0.39582952566E+03  0.00000000000E+00 0.  1.
          1   -1    0    0  501    0 -0.00000000000E+00 -0.00000000000E+00 -0.42781972872E+02  0.42781972872E+02  0.00000000000E+00 0.  1.
          2    1    1    2  501    0 -0.14582870609E+01 -0.24158188517E+02  0.46432231871E+02  0.52361214941E+02  0.00000000000E+00 0.  1.
          1    1    1    2  502    0 -0.27872609238E+02 -0.12116393523E+02 -0.18029658842E+02  0.35337769252E+02  0.00000000000E+00 0.  1.
         22    1    1    2    0    0  0.43195156196E+02 -0.37696097725E+02  0.12380103018E+03  0.13643134675E+03  0.00000000000E+00 0.  1.
         22    1    1    2    0    0 -0.13864259897E+02  0.73970679766E+02  0.20084394958E+03  0.21448116759E+03  0.00000000000E+00 0.  1.
</event>
<event>
 6    1  0.2809573E-005  0.1329340E+03  0.7818608E-02  0.1285693E+00
          2   -1    0    0  502    0  0.00000000000E+00  0.00000000000E+00  0.13505230137E+04  0.13505230137E+04  0.00000000000E+00 0. -1.
          1   -1    0    0  501    0 -0.00000000000E+00 -0.00000000000E+00 -0.17779548315E+02  0.17779548315E+02  0.00000000000E+00 0. -1.
          2    1    1    2  501    0 -0.80397237561E+01 -0.40593422960E+02  0.11068780022E+03  0.11817043735E+03  0.00000000000E+00 0. -1.
          1    1    1    2  502    0  0.15327254720E+02  0.11188325513E+03  0.71673628618E+03  0.72557817735E+03  0.00000000000E+00 0. -1.
         22    1    1    2    0    0  0.17323225368E+02 -0.10080878875E+03  0.37177101946E+03  0.38558552480E+03  0.00000000000E+00 0. -1.
         22    1    1    2    0    0 -0.24610756332E+02  0.29518956585E+02  0.13354835955E+03  0.13896842254E+03  0.00000000000E+00 0. -1.
</event>
<event>
 6    1  0.2809573E-005  0.8165788E+02  0.7818608E-02  0.1338954E+00
          2   -1    0    0  502    0  0.00000000000E+00  0.00000000000E+00  0.56950995560E+03  0.56950995560E+03  0.00000000000E+00 0.  1.
          1   -1    0    0  501    0 -0.00000000000E+00 -0.00000000000E+00 -0.76043067034E+03  0.76043067034E+03  0.00000000000E+00 0.  1.
          2    1    1    2  501    0  0.25534866675E+02 -0.17946985927E+02  0.18099044199E+03  0.18366181915E+03  0.00000000000E+00 0.  1.
          1    1    1    2  502    0  0.65288862133E+01  0.41047689996E+02 -0.74771616736E+03  0.74887048689E+03  0.00000000000E+00 0.  1.
         22    1    1    2    0    0  0.28497063664E+02  0.33180381720E+02  0.17197056734E+03  0.17744547444E+03  0.00000000000E+00 0. -1.
         22    1    1    2    0    0 -0.60560816552E+02 -0.56281085789E+02  0.20383444329E+03  0.21996284547E+03  0.00000000000E+00 0.  1.
</event>
<event>
 6    1  0.2809573E-005  0.3887603E+03  0.7818608E-02  0.1149887E+00
          2   -1    0    0  502    0  0.00000000000E+00  0.00000000000E+00  0.10177570467E+03  0.10177570467E+03  0.00000000000E+00 0. -1.
          1   -1    0    0  501    0 -0.00000000000E+00 -0.00000000000E+00 -0.18558194210E+04  0.18558194210E+04  0.00000000000E+00 0. -1.
          2    1    1    2  501    0 -0.35468832692E+02  0.14667641935E+03 -0.56871365967E+03  0.58839377698E+03  0.00000000000E+00 0. -1.
          1    1    1    2  502    0  0.10361621276E+03 -0.98047415821E+02 -0.12103631279E+04  0.12187405453E+04  0.00000000000E+00 0. -1.
         22    1    1    2    0    0 -0.75111809122E+02 -0.74856233555E+02 -0.95836036848E+01  0.10647574856E+03  0.00000000000E+00 0. -1.
         22    1    1    2    0    0  0.69644290513E+01  0.26227230022E+02  0.34616674938E+02  0.43985054853E+02  0.00000000000E+00 0. -1.
</event>
<event>
 6    1  0.2809573E-005  0.2119252E+03  0.7818608E-02  0.1168999E+00
          2   -1    0    0  502    0  0.00000000000E+00  0.00000000000E+00  0.40948073376E+03  0.40948073376E+03  0.00000000000E+00 0.  1.
          1   -1    0    0  501    0 -0.00000000000E+00 -0.00000000000E+00 -0.22971244632E+03  0.22971244632E+03  0.00000000000E+00 0.  1.
          2    1    1    2  501    0  0.12299448501E+03  0.15864188314E+03  0.30098182523E+02  0.20297977983E+03  0.00000000000E+00 0.  1.
          1    1    1    2  502    0 -0.16781047440E+03 -0.94999766961E+02 -0.41156760745E+02  0.19717806672E+03  0.00000000000E+00 0.  1.
         22    1    1    2    0    0 -0.10957875745E+02  0.28031088289E+02  0.16482944208E+02  0.34314784004E+02  0.00000000000E+00 0. -1.
         22    1    1    2    0    0  0.55773865137E+02 -0.91673204467E+02  0.17434392145E+03  0.20472054952E+03  0.00000000000E+00 0.  1.
</event>
<event>
 6    1  0.2809573E-005  0.6582645E+02  0.7818608E-02  0.1380718E+00
          2   -1    0    0  502    0  0.00000000000E+00  0.00000000000E+00  0.79542237536E+03  0.79542237536E+03  0.00000000000E+00 0. -1.
          1   -1    0    0  501    0 -0.00000000000E+00 -0.00000000000E+00 -0.21978211989E+02  0.21978211989E+02  0.00000000000E+00 0. -1.
          2    1    1    2  501    0  0.21011601000E+02 -0.10287256674E+02  0.10681393255E+02  0.25717837940E+02  0.00000000000E+00 0. -1.
          1    1    1    2  502    0 -0.64450950732E+02 -0.10731893550E+02  0.37399833812E+03  0.37966281817E+03  0.00000000000E+00 0. -1.
         22    1    1    2    0    0  0.25912199706E+02 -0.36194461242E+02  0.45775525668E+02  0.63850449242E+02  0.00000000000E+00 0. -1.
         22    1    1    2    0    0  0.17527150026E+02  0.57213611466E+02  0.34298890633E+03  0.34816948200E+03  0.00000000000E+00 0. -1.
</event>
<event>
 6    1  0.2809573E-005  0.4640526E+02  0.7818608E-02  0.1505977E+00
          2   -1    0    0  502    0  0.00000000000E+00  0.00000000000E+00  0.28015933795E+03  0.28015933795E+03  0.00000000000E+00 0. -1.
          1   -1    0    0  501    0 -0.00000000000E+00 -0.00000000000E+00 -0.92530877252E+02  0.92530877252E+02  0.00000000000E+00 0. -1.
          2    1    1    2  501    0  0.17831092103E+02 -0.25990038103E+02 -0.61037003543E+02  0.68694582958E+02  0.00000000000E+00 0. -1.
          1    1    1    2  502    0 -0.93506691039E+01  0.42658385585E+02  0.11535389943E+03  0.12334380806E+03  0.00000000000E+00 0. -1.
         22    1    1    2    0    0  0.14378242571E+02 -0.34437898310E+01 -0.20117772080E+02  0.24966343371E+02  0.00000000000E+00 0.  1.
         22    1    1    2    0    0 -0.22858665570E+02 -0.13224557651E+02  0.15342933689E+03  0.15568548081E+03  0.00000000000E+00 0. -1.
</event>
<event>
 6    1  0.2809573E-005  0.1576621E+03  0.7818608E-02  0.1264222E+00
          2   -1    0    0  502    0  0.00000000000E+00  0.00000000000E+00  0.67755231871E+02  0.67755231871E+02  0.00000000000E+00 0. -1.
          1   -1    0    0  501    0 -0.00000000000E+00 -0.00000000000E+00 -0.37787117233E+03  0.37787117233E+03  0.00000000000E+00 0. -1.
          2    1    1    2  501    0  0.53088789346E+02  0.17494466214E+02 -0.56668545847E+02  0.79597738604E+02  0.00000000000E+00 0. -1.
          1    1    1    2  502    0 -0.86895808781E+02  0.61280369291E+02 -0.79344674570E+02  0.13267155922E+03  0.00000000000E+00 0. -1.
         22    1    1    2    0    0  0.35159155415E+01 -0.95866427214E+02 -0.17386682471E+03  0.19857594583E+03  0.00000000000E+00 0. -1.
         22    1    1    2    0    0  0.30291103893E+02  0.17091591708E+02 -0.23589533608E+00  0.34781160544E+02  0.00000000000E+00 0. -1.
</event>
<event>
 6    1  0.2809573E-005  0.1639451E+03  0.7818608E-02  0.1197991E+00
          2   -1    0    0  502    0  0.00000000000E+00  0.00000000000E+00  0.43195927723E+03  0.43195927723E+03  0.00000000000E+00 0. -1.
          1   -1    0    0  501    0 -0.00000000000E+00 -0.00000000000E+00 -0.16165608788E+03  0.16165608788E+03  0.00000000000E+00 0. -1.
          2    1    1    2  501    0  0.10057450470E+03  0.61472445698E+02  0.57997749542E+02  0.13136906610E+03  0.00000000000E+00 0. -1.
          1    1    1    2  502    0 -0.16092242523E+02  0.12784308561E+02 -0.10334514449E+03  0.10536895987E+03  0.00000000000E+00 0. -1.
         22    1    1    2    0    0 -0.11238872212E+03 -0.37876288520E+02  0.25110236250E+03  0.27770170065E+03  0.00000000000E+00 0. -1.
         22    1    1    2    0    0  0.27906459945E+02 -0.36380465738E+02  0.64548221796E+02  0.79175638495E+02  0.00000000000E+00 0. -1.
</event>
<event>
 6    1  0.2809573E-005  0.1131610E+03  0.7818608E-02  0.1375830E+00
          2   -1    0    0  502    0  0.00000000000E+00  0.00000000000E+00  0.99841975556E+02  0.99841975556E+02  0.00000000000E+00 0.  1.
          1   -1    0    0  501    0 -0.00000000000E+00 -0.00000000000E+00 -0.90672793840E+03  0.90672793840E+03  0.00000000000E+00 0. -1.
          2    1    1    2  501    0 -0.31112407642E+02  0.22183045039E+02 -0.31672620640E+02  0.49630880455E+02  0.00000000000E+00 0.  1.
          1    1    1    2  502    0 -0.22797374107E+02  0.13932919031E+02 -0.80988839506E+03  0.81032898193E+03  0.00000000000E+00 0. -1.
         22    1    1    2    0    0 -0.12680883112E+02  0.14060359711E+01  0.63613931568E+02  0.64880767745E+02  0.00000000000E+00 0.  1.
         22    1    1    2    0    0  0.66590664861E+02 -0.37522000041E+02 -0.28938878711E+02  0.81729283827E+02  0.00000000000E+00 0.  1.
</event>
<event>
 6    1  0.2809573E-005  0.1269363E+03  0.7818608E-02  0.1233471E+00
          2   -1    0    0  502    0  0.00000000000E+00  0.00000000000E+00  0.83830792454E+03  0.83830792454E+03  0.00000000000E+00 0. -1.
          1   -1    0    0  501    0 -0.00000000000E+00 -0.00000000000E+00 -0.51202020242E+02  0.51202020242E+02  0.00000000000E+00 0. -1.
          2    1    1    2  501    0  0.11848157158E+03 -0.53701689692E+02  0.13200334888E+03  0.18532846084E+03  0.00000000000E+00 0. -1.
          1    1    1    2  502    0 -0.75991666634E+01  0.50389474986E+02  0.33807564061E+02  0.61153887129E+02  0.00000000000E+00 0. -1.
         22    1    1    2    0    0 -0.12108609237E+03  0.82796754848E+01  0.61981120833E+03  0.63158240061E+03  0.00000000000E+00 0. -1.
         22    1    1    2    0    0  0.10203687450E+02 -0.49674607787E+01  0.14837830266E+01  0.11445196208E+02  0.00000000000E+00 0. -1.
</event>
<event>
 6    1  0.2809573E-005  0.9706994E+02  0.7818608E-02  0.1305353E+00
          2   -1    0    0  502    0  0.00000000000E+00  0.00000000000E+00  0.37497845794E+03  0.37497845794E+03  0.00000000000E+00 0. -1.
          1   -1    0    0  501    0 -0.00000000000E+00 -0.00000000000E+00 -0.47515022717E+02  0.47515022717E+02  0.00000000000E+00 0. -1.
          2    1    1    2  501    0  0.15157698335E+02 -0.40984239751E+02  0.24780839534E+02  0.50234985167E+02  0.00000000000E+00 0. -1.
          1    1    1    2  502    0 -0.10447742031E+02  0.80824483267E+02  0.10840815900E+03  0.13562478146E+03  0.00000000000E+00 0. -1.
         22    1    1    2    0    0 -0.65264563263E+02 -0.20868110924E+02  0.12598260055E+03  0.14341044911E+03  0.00000000000E+00 0. -1.
         22    1    1    2    0    0  0.60554606959E+02 -0.18972132592E+02  0.68291836132E+02  0.93223264915E+02  0.00000000000E+00 0. -1.
</event>
<event>
 6    1  0.2809573E-005  0.1591413E+03  0.7818608E-02  0.1236993E+00
          2   -1    0    0  502    0  0.00000000000E+00  0.00000000000E+00  0.98145127982E+03  0.98145127982E+03  0.00000000000E+00 0.  1.
          1   -1    0    0  501    0 -0.00000000000E+00 -0.00000000000E+00 -0.13374446047E+03  0.13374446047E+03  0.00000000000E+00 0.  1.
          2    1    1    2  501    0 -0.61589668054E+01  0.61575861239E+02  0.28647982690E+03  0.29308737738E+03  0.00000000000E+00 0.  1.
          1    1    1    2  502    0  0.81426845980E+02 -0.13257474297E+03 -0.69554760991E+02  0.17042376153E+03  0.00000000000E+00 0.  1.
         22    1    1    2    0    0 -0.21717079389E+02  0.93891384882E+02  0.28046872164E+03  0.29656353031E+03  0.00000000000E+00 0.  1.
         22    1    1    2    0    0 -0.53550799786E+02 -0.22892503153E+02  0.35031303181E+03  0.35512107106E+03  0.00000000000E+00 0.  1.
</event>
<event>
 6    1  0.2809573E-005  0.4406091E+03  0.7818608E-02  0.1135661E+00
          2   -1    0    0  502    0  0.00000000000E+00  0.00000000000E+00  0.59810714727E+03  0.59810714727E+03  0.00000000000E+00 0.  1.
          1   -1    0    0  501    0 -0.00000000000E+00 -0.00000000000E+00 -0.24817871104E+03  0.24817871104E+03  0.00000000000E+00 0.  1.
          2    1    1    2  501    0 -0.82150406353E+02  0.86039916851E+02 -0.37447876487E+02  0.12471527576E+03  0.00000000000E+00 0.  1.
          1    1    1    2  502    0 -0.10098621004E+02 -0.24311677584E+02 -0.15361973520E+03  0.15585911220E+03  0.00000000000E+00 0.  1.
         22    1    1    2    0    0 -0.15905733379E+02  0.21366643461E+02  0.57935838526E+02  0.63765877966E+02  0.00000000000E+00 0.  1.
         22    1    1    2    0    0  0.10815476074E+03 -0.83094882728E+02  0.48306020939E+03  0.50194559237E+03  0.00000000000E+00 0.  1.
</event>
<event>
 6    1  0.2809573E-005  0.6861603E+02  0.7818608E-02  0.1471969E+00
          2   -1    0    0  502    0  0.00000000000E+00  0.00000000000E+00  0.38227966208E+02  0.38227966208E+02  0.00000000000E+00 0. -1.
          1   -1    0    0  501    0 -0.00000000000E+00 -0.00000000000E+00 -0.11339215155E+04  0.11339215155E+04  0.00000000000E+00 0. -1.
          2    1    1    2  501    0  0.75096303723E+01 -0.50184927380E+02 -0.57467416335E+03  0.57691014509E+03  0.00000000000E+00 0. -1.
          1    1    1    2  502    0 -0.20013944690E+02  0.57110097975E+02 -0.44205268812E+03  0.44617563845E+03  0.00000000000E+00 0. -1.
         22    1    1    2    0    0  0.59256430796E+01 -0.18288256447E+02 -0.11193663539E+03  0.11357545471E+03  0.00000000000E+00 0. -1.
         22    1    1    2    0    0  0.65786712380E+01  0.11363085851E+02  0.32969937607E+02  0.35488243421E+02  0.00000000000E+00 0. -1.
</event>
<event>
 6    1  0.2991086E-005  0.3845423E+02  0.7818608E-02  0.1603180E+00
          2   -1    0    0  502    0  0.00000000000E+00  0.00000000000E+00  0.75429016802E+02  0.75429016802E+02  0.00000000000E+00 0. -1.
          1   -1    0    0  501    0 -0.00000000000E+00 -0.00000000000E+00 -0.88809186034E+03  0.88809186034E+03  0.00000000000E+00 0.  1.
          2    1    1    2  501    0  0.12803046875E+02  0.27478136219E+02 -0.10758138098E+03  0.11177083480E+03  0.00000000000E+00 0. -1.
          1    1    1    2  502    0 -0.13907909163E+02 -0.33042063965E+02 -0.72641699979E+03  0.72730108312E+03  0.00000000000E+00 0.  1.
         22    1    1    2    0    0  0.13037904873E+02  0.11657449159E+02 -0.49426482011E+02  0.52429573796E+02  0.00000000000E+00 0. -1.
         22    1    1    2    0    0 -0.11933042585E+02 -0.60935214127E+01  0.70762019243E+02  0.72019385418E+02  0.00000000000E+00 0. -1.
</event>
<event>
 6    1  0.2809573E-005  0.8519828E+02  0.7818608E-02  0.1316716E+00
          2   -1    0    0  502    0  0.00000000000E+00  0.00000000000E+00  0.81678788331E+03  0.81678788331E+03  0.00000000000E+00 0.  1.
          1   -1    0    0  501    0 -0.00000000000E+00 -0.00000000000E+00 -0.72560978770E+02  0.72560978770E+02  0.00000000000E+00 0.  1.
          2    1    1    2  501    0 -0.32353190751E+01  0.41997647777E+02  0.17915436766E+03  0.18403955325E+03  0.00000000000E+00 0.  1.
          1    1    1    2  502    0 -0.44509635684E+02 -0.19085430062E+02 -0.53837544650E+02  0.72414380638E+02  0.00000000000E+00 0.  1.
         22    1    1    2    0    0  0.14569511131E+02  0.49268986358E+02  0.29089194760E+03  0.29539436158E+03  0.00000000000E+00 0.  1.
         22    1    1    2    0    0  0.33175443628E+02 -0.72181204073E+02  0.32801813393E+03  0.33750056661E+03  0.00000000000E+00 0.  1.
</event>
<event>
 6    1  0.2809573E-005  0.2659980E+03  0.7818608E-02  0.1232726E+00
          2   -1    0    0  502    0  0.00000000000E+00  0.00000000000E+00  0.23057120310E+03  0.23057120310E+03  0.00000000000E+00 0. -1.
          1   -1    0    0  501    0 -0.00000000000E+00 -0.00000000000E+00 -0.37710738497E+03  0.37710738497E+03  0.00000000000E+00 0.  1.
          2    1    1    2  501    0 -0.46251937715E+02  0.91707548852E+02 -0.82776841040E+02  0.13191482734E+03  0.00000000000E+00 0. -1.
          1    1    1    2  502    0  0.49890677160E+02 -0.25564783655E+03 -0.58150730108E+02  0.26688275218E+03  0.00000000000E+00 0.  1.
         22    1    1    2    0    0  0.45074622181E+01  0.15303646253E+03 -0.51093538511E+02  0.16140330156E+03  0.00000000000E+00 0. -1.
         22    1    1    2    0    0 -0.81462016631E+01  0.10903825172E+02  0.45484927786E+02  0.47477706985E+02  0.00000000000E+00 0. -1.
</event>
<event>
 6    1  0.2809573E-005  0.9780989E+02  0.7818608E-02  0.1326714E+00
          2   -1    0    0  502    0  0.00000000000E+00  0.00000000000E+00  0.30215473727E+02  0.30215473727E+02  0.00000000000E+00 0.  1.
          1   -1    0    0  501    0 -0.00000000000E+00 -0.00000000000E+00 -0.19281932931E+04  0.19281932931E+04  0.00000000000E+00 0. -1.
          2    1    1    2  501    0  0.35412170758E+02 -0.13079749379E+02 -0.19647008190E+02  0.42557098261E+02  0.00000000000E+00 0.  1.
          1    1    1    2  502    0 -0.69600664702E+02  0.19767159619E+02 -0.16612407900E+04  0.16628156709E+04  0.00000000000E+00 0. -1.
         22    1    1    2    0    0  0.58192798065E+02 -0.45478689822E+02 -0.17888965400E+03  0.19353609814E+03  0.00000000000E+00 0. -1.
         22    1    1    2    0    0 -0.24004304121E+02  0.38791279582E+02 -0.38200367200E+02  0.59499899514E+02  0.00000000000E+00 0.  1.
</event>
<event>
 6    1  0.2809573E-005  0.2417471E+03  0.7818608E-02  0.1250825E+00
          2   -1    0    0  502    0  0.00000000000E+00  0.00000000000E+00  0.21610308106E+03  0.21610308106E+03  0.00000000000E+00 0. -1.
          1   -1    0    0  501    0 -0.00000000000E+00 -0.00000000000E+00 -0.42016491471E+03  0.42016491471E+03  0.00000000000E+00 0. -1.
          2    1    1    2  501    0 -0.56096139672E+02 -0.12885543624E+03 -0.22066635635E+03  0.26161831197E+03  0.00000000000E+00 0. -1.
          1    1    1    2  502    0  0.52171238306E+02  0.21029876065E+03 -0.30354162906E+02  0.21878935541E+03  0.00000000000E+00 0. -1.
         22    1    1    2    0    0  0.12302575379E+02 -0.25681506482E+01  0.71683809742E+02  0.72777175940E+02  0.00000000000E+00 0. -1.
         22    1    1    2    0    0 -0.83776740129E+01 -0.78875173760E+02 -0.24725124135E+02  0.83083152450E+02  0.00000000000E+00 0. -1.
</event>
<event>
 6    1  0.2809573E-005  0.7302590E+02  0.7818608E-02  0.1385290E+00
          2   -1    0    0  502    0  0.00000000000E+00  0.00000000000E+00  0.68143021157E+02  0.68143021157E+02  0.00000000000E+00 0.  1.
          1   -1    0    0  501    0 -0.00000000000E+00 -0.00000000000E+00 -0.57383336880E+03  0.57383336880E+03  0.00000000000E+00 0. -1.
          2    1    1    2  501    0  0.36073065030E+02  0.27116597246E+02 -0.12337348707E+03  0.13136815892E+03  0.00000000000E+00 0.  1.
          1    1    1    2  502    0 -0.67606447733E+02 -0.22717236792E+02 -0.37960958292E+03  0.38625139490E+03  0.00000000000E+00 0. -1.
         22    1    1    2    0    0  0.26153402811E+02 -0.31173886454E+02  0.50317711252E+02  0.64712315218E+02  0.00000000000E+00 0.  1.
         22    1    1    2    0    0  0.53799798916E+01  0.26774526000E+02 -0.53024988908E+02  0.59644520912E+02  0.00000000000E+00 0.  1.
</event>
<event>
 6    1  0.2809573E-005  0.1315987E+03  0.7818608E-02  0.1355445E+00
          2   -1    0    0  502    0  0.00000000000E+00  0.00000000000E+00  0.64169889405E+02  0.64169889405E+02  0.00000000000E+00 0. -1.
          1   -1    0    0  501    0 -0.00000000000E+00 -0.00000000000E+00 -0.16010970760E+04  0.16010970760E+04  0.00000000000E+00 0.  1.
          2    1    1    2  501    0  0.71160672606E+02 -0.75729072618E+02 -0.15270813496E+03  0.18471196022E+03  0.00000000000E+00 0. -1.
          1    1    1    2  502    0 -0.81253531010E+02  0.96446082934E+02 -0.13442259763E+04  0.13501286823E+04  0.00000000000E+00 0.  1.
         22    1    1    2    0    0  0.13398575184E+02 -0.31620960567E+02 -0.80939647363E+02  0.87924021060E+02  0.00000000000E+00 0. -1.
         22    1    1    2    0    0 -0.33057167803E+01  0.10903950251E+02  0.40946572095E+02  0.42502301830E+02  0.00000000000E+00 0.  1.
</event>
<event>
 6    1  0.2809573E-005  0.1126909E+03  0.7818608E-02  0.1281933E+00
          2   -1    0    0  502    0  0.00000000000E+00  0.00000000000E+00  0.31634160695E+02  0.31634160695E+02  0.00000000000E+00 0. -1.
          1   -1    0    0  501    0 -0.00000000000E+00 -0.00000000000E+00 -0.66418816700E+03  0.66418816700E+03  0.00000000000E+00 0. -1.
          2    1    1    2  501    0 -0.60110234863E+02 -0.34222962152E+00 -0.10123839480E+03  0.11773941582E+03  0.00000000000E+00 0. -1.
          1    1    1    2  502    0  0.43724022918E+02  0.25266678736E+01 -0.37757334122E+03  0.38010498843E+03  0.00000000000E+00 0. -1.
         22    1    1    2    0    0 -0.17338025547E+01 -0.58405735221E+02 -0.43282088180E+02  0.72715714500E+02  0.00000000000E+00 0. -1.
         22    1    1    2    0    0  0.18120014500E+02  0.56221296969E+02 -0.11046018210E+03  0.12526220894E+03  0.00000000000E+00 0. -1.
</event>
<event>
 6    1  0.2809573E-005  0.5596743E+03  0.7818608E-02  0.1130018E+00
          2   -1    0    0  502    0  0.00000000000E+00  0.00000000000E+00  0.95878439317E+03  0.95878439317E+03  0.00000000000E+00 0. -1.
          1   -1    0    0  501    0 -0.00000000000E+00 -0.00000000000E+00 -0.60487126662E+03  0.60487126662E+03  0.00000000000E+00 0. -1.
          2    1    1    2  501    0  0.23477333978E+03 -0.17220590991E+03  0.19107992813E+03  0.34825986765E+03  0.00000000000E+00 0. -1.
          1    1    1    2  502    0 -0.41785152389E+03  0.14607056117E+03 -0.40865846488E+03  0.60244356232E+03  0.00000000000E+00 0. -1.
         22    1    1    2    0    0 -0.14688089494E+02  0.37095505977E-01  0.12013363863E+02  0.18975306595E+02  0.00000000000E+00 0.  1.
         22    1    1    2    0    0  0.19776627360E+03  0.26098253234E+02  0.55947829944E+03  0.59397692324E+03  0.00000000000E+00 0. -1.
</event>
<event>
 6    1  0.2809573E-005  0.4183613E+02  0.7818608E-02  0.1499231E+00
          2   -1    0    0  502    0  0.00000000000E+00  0.00000000000E+00  0.21674167479E+03  0.21674167479E+03  0.00000000000E+00 0. -1.
          1   -1    0    0  501    0 -0.00000000000E+00 -0.00000000000E+00 -0.90516860849E+02  0.90516860849E+02  0.00000000000E+00 0. -1.
          2    1    1    2  501    0  0.83275326682E+01 -0.29483410826E+02  0.12211438702E+01  0.30661221545E+02  0.00000000000E+00 0. -1.
          1    1    1    2  502    0 -0.17980414450E+02  0.17048997512E+02 -0.53359119703E+02  0.58831617991E+02  0.00000000000E+00 0. -1.
         22    1    1    2    0    0 -0.10511097931E+02  0.36815968479E+02  0.18193992230E+03  0.18592480750E+03  0.00000000000E+00 0. -1.
         22    1    1    2    0    0  0.20163979712E+02 -0.24381555166E+02 -0.35771325301E+01  0.31840888607E+02  0.00000000000E+00 0. -1.
</event>
<event>
 6    1  0.2809573E-005  0.6172687E+02  0.7818608E-02  0.1470084E+00
          2   -1    0    0  502    0  0.00000000000E+00  0.00000000000E+00  0.67169787100E+02  0.67169787100E+02  0.00000000000E+00 0. -1.
          1   -1    0    0  501    0 -0.00000000000E+00 -0.00000000000E+00 -0.43340173423E+03  0.43340173423E+03  0.00000000000E+00 0. -1.
          2    1    1    2  501    0  0.25084811840E+02 -0.93111829351E+01 -0.95728241555E+02  0.99397395056E+02  0.00000000000E+00 0. -1.
          1    1    1    2  502    0 -0.60087472185E+02 -0.71225736689E+01 -0.26100544535E+03  0.26792737425E+03  0.00000000000E+00 0. -1.
         22    1    1    2    0    0  0.32352811066E+02 -0.19041256799E+01 -0.66138983966E+02  0.73652530701E+02  0.00000000000E+00 0. -1.
         22    1    1    2    0    0  0.26498492788E+01  0.18337882284E+02  0.56640723748E+02  0.59594221318E+02  0.00000000000E+00 0. -1.
</event>
<event>
 6    1  0.2809573E-005  0.1113082E+03  0.7818608E-02  0.1259636E+00
          2   -1    0    0  502    0  0.00000000000E+00  0.00000000000E+00  0.15440893556E+03  0.15440893556E+03  0.00000000000E+00 0.  1.
          1   -1    0    0  501    0 -0.00000000000E+00 -0.00000000000E+00 -0.26871051342E+03  0.26871051342E+03  0.00000000000E+00 0. -1.
          2    1    1    2  501    0  0.40812447384E+01  0.83695058877E+02  0.13876391002E+02  0.84935703130E+02  0.00000000000E+00 0.  1.
          1    1    1    2  502    0  0.30351961108E+02 -0.30779290005E+02 -0.18316193926E+03  0.18819378903E+03  0.00000000000E+00 0. -1.
         22    1    1    2    0    0 -0.37073291262E+02 -0.91812194576E+02  0.29131513384E+02  0.10321120613E+03  0.00000000000E+00 0. -1.
         22    1    1    2    0    0  0.26400854154E+01  0.38896425703E+02  0.25852457012E+02  0.46778750700E+02  0.00000000000E+00 0.  1.
</event>
<event>
 6    1  0.2809573E-005  0.2738261E+03  0.7818608E-02  0.1207607E+00
          2   -1    0    0  502    0  0.00000000000E+00  0.00000000000E+00  0.52745614682E+02  0.52745614682E+02  0.00000000000E+00 0. -1.
          1   -1    0    0  501    0 -0.00000000000E+00 -0.00000000000E+00 -0.12278706535E+04  0.12278706535E+04  0.00000000000E+00 0. -1.
          2    1    1    2  501    0  0.30272134938E+02  0.17228766132E+02 -0.19846830096E+02  0.40089015964E+02  0.00000000000E+00 0. -1.
          1    1    1    2  502    0  0.98709535868E+02  0.13831131330E+03 -0.23325041923E+03  0.28858161745E+03  0.00000000000E+00 0. -1.
         22    1    1    2    0    0 -0.11165802003E+03 -0.14342401531E+03 -0.90925881078E+03  0.92724837373E+03  0.00000000000E+00 0. -1.
         22    1    1    2    0    0 -0.17323650778E+02 -0.12116064123E+02 -0.12768978740E+02  0.24697261066E+02  0.00000000000E+00 0. -1.
</event>
<event>
 6    1  0.2809573E-005  0.1830342E+03  0.7818608E-02  0.1210206E+00
          2   -1    0    0  502    0  0.00000000000E+00  0.00000000000E+00  0.46913333787E+03  0.46913333787E+03  0.00000000000E+00 0. -1.
          1   -1    0    0  501    0 -0.00000000000E+00 -0.00000000000E+00 -0.50264697146E+03  0.50264697146E+03  0.00000000000E+00 0. -1.
          2    1    1    2  501    0  0.99285764306E+02 -0.51887905926E+02  0.13535570101E+03  0.17570197372E+03  0.00000000000E+00 0. -1.
          1    1    1    2  502    0 -0.54737549359E+02  0.18053455645E+02 -0.46549155339E+03  0.46904638667E+03  0.00000000000E+00 0. -1.
         22    1    1    2    0    0 -0.57029759438E+02 -0.27577284083E+02  0.21493445370E+03  0.22407525398E+03  0.00000000000E+00 0.  1.
         22    1    1    2    0    0  0.12481544491E+02  0.61411734364E+02  0.81687765095E+02  0.10295669496E+03  0.00000000000E+00 0.  1.
</event>
<event>
 6    1  0.2868210E-005  0.7033933E+02  0.7818608E-02  0.1401302E+00
          2   -1    0    0  502    0  0.00000000000E+00  0.00000000000E+00  0.22314695686E+03  0.22314695686E+03  0.00000000000E+00 0. -1.
          1   -1    0    0  501    0 -0.00000000000E+00 -0.00000000000E+00 -0.39080038877E+03  0.39080038877E+03  0.00000000000E+00 0. -1.
          2    1    1    2  501    0  0.16861378308E+01  0.73027365059E+02 -0.11768457424E+03  0.13851172557E+03  0.00000000000E+00 0. -1.
          1    1    1    2  502    0  0.17651931562E+02 -0.61345297434E+02 -0.23875596499E+03  0.24714215954E+03  0.00000000000E+00 0. -1.
         22    1    1    2    0    0 -0.23210500557E+02 -0.26526932063E+02  0.20380158485E+03  0.20682720191E+03  0.00000000000E+00 0. -1.
         22    1    1    2    0    0  0.38724311643E+01  0.14844864438E+02 -0.15014477525E+02  0.21466258608E+02  0.00000000000E+00 0.  1.
</event>
<event>
 6    1  0.2809573E-005  0.8125955E+02  0.7818608E-02  0.1330446E+00
          2   -1    0    0  502    0  0.00000000000E+00  0.00000000000E+00  0.30134895190E+02  0.30134895190E+02  0.00000000000E+00 0.  1.
          1   -1    0    0  501    0 -0.00000000000E+00 -0.00000000000E+00 -0.40461091877E+03  0.40461091877E+03  0.00000000000E+00 0.  1.
          2    1    1    2  501    0 -0.36352493635E+02 -0.67491238031E+01 -0.15517465393E+03  0.15951873773E+03  0.00000000000E+00 0.  1.
          1    1    1    2  502    0  0.36528948013E+02  0.14255117109E+02 -0.90016514240E+02  0.98186278281E+02  0.00000000000E+00 0.  1.
         22    1    1    2    0    0  0.24571240798E+02  0.45902779664E+02 -0.96533267875E+02  0.10967899918E+03  0.00000000000E+00 0.  1.
         22    1    1    2    0    0 -0.24747695176E+02 -0.53408772970E+02 -0.32751587537E+02  0.67361798765E+02  0.00000000000E+00 0.  1.
</event>
<event>
 6    1  0.2809573E-005  0.6414670E+02  0.7818608E-02  0.1381729E+00
          2   -1    0    0  502    0  0.00000000000E+00  0.00000000000E+00  0.44567910722E+03  0.44567910722E+03  0.00000000000E+00 0.  1.
          1   -1    0    0  501    0 -0.00000000000E+00 -0.00000000000E+00 -0.51970553279E+02  0.51970553279E+02  0.00000000000E+00 0.  1.
          2    1    1    2  501    0  0.21002828367E+02 -0.13448480549E+02 -0.57067564166E+01  0.25584125884E+02  0.00000000000E+00 0.  1.
          1    1    1    2  502    0  0.39391747576E+02  0.83735387302E+02  0.15218457377E+03  0.17811083447E+03  0.00000000000E+00 0.  1.
         22    1    1    2    0    0 -0.71219889146E+01 -0.35531744505E+02 -0.24287556088E+01  0.36319780388E+02  0.00000000000E+00 0.  1.
         22    1    1    2    0    0 -0.53272587029E+02 -0.34755162249E+02  0.24965949220E+03  0.25763491975E+03  0.00000000000E+00 0.  1.
</event>
<event>
 6    1  0.2809573E-005  0.5843010E+02  0.7818608E-02  0.1473117E+00
          2   -1    0    0  502    0  0.00000000000E+00  0.00000000000E+00  0.11079108133E+03  0.11079108133E+03  0.00000000000E+00 0.  1.
          1   -1    0    0  501    0 -0.00000000000E+00 -0.00000000000E+00 -0.10939951386E+03  0.10939951386E+03  0.00000000000E+00 0.  1.
          2    1    1    2  501    0 -0.24534566575E+02 -0.12772238862E+02 -0.18741977170E+02  0.33411625983E+02  0.00000000000E+00 0.  1.
          1    1    1    2  502    0  0.55743047209E+02 -0.14336656749E+02 -0.23908352020E+01  0.57606797618E+02  0.00000000000E+00 0.  1.
         22    1    1    2    0    0 -0.12406669558E+02  0.17940908067E+02 -0.49541964969E+02  0.54131395001E+02  0.00000000000E+00 0.  1.
         22    1    1    2    0    0 -0.18801811076E+02  0.91679875440E+01  0.72066344811E+02  0.75040776580E+02  0.00000000000E+00 0.  1.
</event>
<event>
 6    1  0.2809573E-005  0.1398803E+03  0.7818608E-02  0.1259036E+00
          2   -1    0    0  502    0  0.00000000000E+00  0.00000000000E+00  0.56246061717E+03  0.56246061717E+03  0.00000000000E+00 0. -1.
          1   -1    0    0  501    0 -0.00000000000E+00 -0.00000000000E+00 -0.38906565531E+02  0.38906565531E+02  0.00000000000E+00 0. -1.
          2    1    1    2  501    0  0.35887527915E+02 -0.24499077350E+02  0.10028545029E+02  0.44594743706E+02  0.00000000000E+00 0. -1.
          1    1    1    2  502    0 -0.49863165400E+02  0.52620095483E+02  0.90857048994E+02  0.11623344211E+03  0.00000000000E+00 0. -1.
         22    1    1    2    0    0 -0.53083019581E+02 -0.14889433553E+02  0.16545195357E+03  0.17439567408E+03  0.00000000000E+00 0. -1.
         22    1    1    2    0    0  0.67058657067E+02 -0.13231584579E+02  0.25721650405E+03  0.26614332281E+03  0.00000000000E+00 0. -1.
</event>
<event>
 6    1  0.2809573E-005  0.1030193E+03  0.7818608E-02  0.1373280E+00
          2   -1    0    0  502    0  0.00000000000E+00  0.00000000000E+00  0.21801356041E+03  0.21801356041E+03  0.00000000000E+00 0.  1.
          1   -1    0    0  501    0 -0.00000000000E+00 -0.00000000000E+00 -0.83887759742E+02  0.83887759742E+02  0.00000000000E+00 0.  1.
          2    1    1    2  501    0 -0.11030306932E+02 -0.30875470573E+02  0.62355292413E+01  0.33374304173E+02  0.00000000000E+00 0.  1.
          1    1    1    2  502    0  0.80077283701E+02 -0.77087931723E+01  0.67497752536E+02  0.10501306326E+03  0.00000000000E+00 0.  1.
         22    1    1    2    0    0 -0.58310400657E+02  0.24595899301E+02 -0.30975748893E+02  0.70459620398E+02  0.00000000000E+00 0.  1.
         22    1    1    2    0    0 -0.10736576112E+02  0.13988364444E+02  0.91368267782E+02  0.93054332322E+02  0.00000000000E+00 0.  1.
</event>
<event>
 6    1  0.2809573E-005  0.1563241E+03  0.7818608E-02  0.1283764E+00
          2   -1    0    0  502    0  0.00000000000E+00  0.00000000000E+00  0.17263571655E+03  0.17263571655E+03  0.00000000000E+00 0.  1.
          1   -1    0    0  501    0 -0.00000000000E+00 -0.00000000000E+00 -0.61176569560E+03  0.61176569560E+03  0.00000000000E+00 0. -1.
          2    1    1    2  501    0  0.76875239297E+02  0.54913654596E+02  0.60274065641E+02  0.11206370897E+03  0.00000000000E+00 0.  1.
          1    1    1    2  502    0 -0.59804737668E+02 -0.40397778695E+02 -0.53770786967E+03  0.54252957548E+03  0.00000000000E+00 0. -1.
         22    1    1    2    0    0 -0.28491986259E+02  0.71709936090E+01 -0.38933280134E+02  0.48775165118E+02  0.00000000000E+00 0. -1.
         22    1    1    2    0    0  0.11421484629E+02 -0.21686869510E+02  0.77237105111E+02  0.81032962590E+02  0.00000000000E+00 0.  1.
</event>
<event>
 6    1  0.2809573E-005  0.4468586E+03  0.7818608E-02  0.1108373E+00
          2   -1    0    0  502    0  0.00000000000E+00  0.00000000000E+00  0.37058295702E+02  0.37058295702E+02  0.00000000000E+00 0. -1.
          1   -1    0    0  501    0 -0.00000000000E+00 -0.00000000000E+00 -0.23001176318E+04  0.23001176318E+04  0.00000000000E+00 0. -1.
          2    1    1    2  501    0  0.11942467791E+03 -0.78518651450E+02 -0.13552814880E+04  0.13627968829E+04  0.00000000000E+00 0. -1.
          1    1    1    2  502    0  0.28864464041E+02 -0.27847382493E+02 -0.56301722837E+03  0.56444400381E+03  0.00000000000E+00 0. -1.
         22    1    1    2    0    0  0.98997607844E+01  0.50059250817E+02 -0.11048937078E+03  0.12170388207E+03  0.00000000000E+00 0.  1.
         22    1    1    2    0    0 -0.15818890274E+03  0.56306783126E+02 -0.23427124895E+03  0.28823115872E+03  0.00000000000E+00 0. -1.
</event>
<event>
 6    1  0.2809573E-005  0.1198506E+03  0.7818608E-02  0.1357165E+00
          2   -1    0    0  502    0  0.00000000000E+00  0.00000000000E+00  0.46975081030E+02  0.46975081030E+02  0.00000000000E+00 0.  1.
          1   -1    0    0  501    0 -0.00000000000E+00 -0.00000000000E+00 -0.63785283044E+03  0.63785283044E+03  0.00000000000E+00 0. -1.
          2    1    1    2  501    0  0.60954947119E+02  0.44578236751E+02 -0.11559634423E+03  0.13807693352E+03  0.00000000000E+00 0.  1.
          1    1    1    2  502    0 -0.62761122308E+01 -0.35784839227E+02 -0.38043293094E+03  0.38216378589E+03  0.00000000000E+00 0. -1.
         22    1    1    2    0    0 -0.10128675416E+02 -0.10586764698E+02  0.29254273317E+02  0.32718223665E+02  0.00000000000E+00 0. -1.
         22    1    1    2    0    0 -0.44550159473E+02  0.17933671734E+01 -0.12410274756E+03  0.13186896840E+03  0.00000000000E+00 0. -1.
</event>
<event>
 6    1  0.2809573E-005  0.1321059E+03  0.7818608E-02  0.1288057E+00
          2   -1    0    0  502    0  0.00000000000E+00  0.00000000000E+00  0.13369113446E+03  0.13369113446E+03  0.00000000000E+00 0. -1.
          1   -1    0    0  501    0 -0.00000000000E+00 -0.00000000000E+00 -0.31227967547E+03  0.31227967547E+03  0.00000000000E+00 0. -1.
          2    1    1    2  501    0  0.17832111379E+01  0.60618671548E+02  0.10775001913E+02  0.61594673864E+02  0.00000000000E+00 0. -1.
          1    1    1    2  502    0 -0.42310839070E+02 -0.10755420230E+03 -0.21560476733E+03  0.24462937115E+03  0.00000000000E+00 0. -1.
         22    1    1    2    0    0 -0.27286631941E+02 -0.25658438223E+02  0.12350413162E+02  0.39439173927E+02  0.00000000000E+00 0. -1.
         22    1    1    2    0    0  0.67814259874E+02  0.72593968970E+02  0.13890811248E+02  0.10030759099E+03  0.00000000000E+00 0. -1.
</event>
<event>
 6    1  0.2809573E-005  0.1007738E+03  0.7818608E-02  0.1343002E+00
          2   -1    0    0  502    0  0.00000000000E+00  0.00000000000E+00  0.56215926235E+03  0.56215926235E+03  0.00000000000E+00 0.  1.
          1   -1    0    0  501    0 -0.00000000000E+00 -0.00000000000E+00 -0.92019939550E+02  0.92019939550E+02  0.00000000000E+00 0. -1.
          2    1    1    2  501    0  0.18142349673E+02  0.22620478176E+02  0.10313535994E+03  0.10713418387E+03  0.00000000000E+00 0.  1.
          1    1    1    2  502    0 -0.15383767931E+02 -0.96959047452E+02 -0.46241113505E+02  0.10851708518E+03  0.00000000000E+00 0. -1.
         22    1    1    2    0    0  0.27689561767E+02  0.66731947378E+02  0.39635831903E+03  0.40288929211E+03  0.00000000000E+00 0.  1.
         22    1    1    2    0    0 -0.30448143509E+02  0.76066218983E+01  0.16886757333E+02  0.35638640730E+02  0.00000000000E+00 0. -1.
</event>
<event>
 6    1  0.2809573E-005  0.1300285E+03  0.7818608E-02  0.1274077E+00
          2   -1    0    0  502    0  0.00000000000E+00  0.00000000000E+00  0.55288328738E+03  0.55288328738E+03  0.00000000000E+00 0.  1.
          1   -1    0    0  501    0 -0.00000000000E+00 -0.00000000000E+00 -0.69363370728E+02  0.69363370728E+02  0.00000000000E+00 0. -1.
          2    1    1    2  501    0  0.95658680716E+02 -0.11677611183E+01  0.16118800680E+03  0.18743937793E+03  0.00000000000E+00 0.  1.
          1    1    1    2  502    0 -0.95725337724E+02 -0.10320525674E+02  0.97960878031E+01  0.96777150551E+02  0.00000000000E+00 0. -1.
         22    1    1    2    0    0 -0.28523026942E+02 -0.42553637504E+02  0.22811105370E+03  0.23379270295E+03  0.00000000000E+00 0. -1.
         22    1    1    2    0    0  0.28589683950E+02  0.54041924296E+02  0.84424768335E+02  0.10423742667E+03  0.00000000000E+00 0.  1.
</event>
<event>
 6    1  0.2809573E-005  0.5894005E+02  0.7818608E-02  0.1436539E+00
          2   -1    0    0  502    0  0.00000000000E+00  0.00000000000E+00  0.22158539320E+03  0.22158539320E+03  0.00000000000E+00 0.  1.
          1   -1    0    0  501    0 -0.00000000000E+00 -0.00000000000E+00 -0.40821659946E+03  0.40821659946E+03  0.00000000000E+00 0.  1.
          2    1    1    2  501    0  0.67421839817E+01  0.45994417900E+02  0.15449431058E+02  0.48986002519E+02  0.00000000000E+00 0.  1.
          1    1    1    2  502    0 -0.18881993633E+01 -0.44906569987E+02 -0.36903176221E+03  0.37175880197E+03  0.00000000000E+00 0.  1.
         22    1    1    2    0    0 -0.23623900303E+02  0.28228207387E+02 -0.17025395203E+01  0.36848595613E+02  0.00000000000E+00 0.  1.
         22    1    1    2    0    0  0.18769915685E+02 -0.29316055300E+02  0.16865366441E+03  0.17220859256E+03  0.00000000000E+00 0.  1.
</event>
<event>
 6    1  0.3056235E-005  0.4343672E+03  0.7818608E-02  0.1114088E+00
          2   -1    0    0  502    0  0.00000000000E+00  0.00000000000E+00  0.26790384581E+03  0.26790384581E+03  0.00000000000E+00 0.  1.
          1   -1    0    0  501    0 -0.00000000000E+00 -0.00000000000E+00 -0.83539741756E+03  0.83539741756E+03  0.00000000000E+00 0.  1.
          2    1    1    2  501    0 -0.92719076884E+01  0.51447363002E+02 -0.21813594007E+03  0.22431247799E+03  0.00000000000E+00 0.  1.
          1    1    1    2  502    0 -0.16561501883E+02 -0.54447569152E+02 -0.59738899523E+03  0.60009368665E+03  0.00000000000E+00 0.  1.
         22    1    1    2    0    0  0.36985244411E+02  0.48378793730E+02  0.20998346151E+03  0.21863547310E+03  0.00000000000E+00 0.  1.
         22    1    1    2    0    0 -0.11151834840E+02 -0.45378587580E+02  0.38047902046E+02  0.60259625631E+02  0.00000000000E+00 0. -1.
</event>
<event>
 6    1  0.2809573E-005  0.5087347E+03  0.7818608E-02  0.1050164E+00
          2   -1    0    0  502    0  0.00000000000E+00  0.00000000000E+00  0.92970520081E+03  0.92970520081E+03  0.00000000000E+00 0. -1.
          1   -1    0    0  501    0 -0.00000000000E+00 -0.00000000000E+00 -0.50211049478E+03  0.50211049478E+03  0.00000000000E+00 0. -1.
          2    1    1    2  501    0 -0.20011727759E+03  0.24573455458E+03 -0.15521359779E+03  0.35287909692E+03  0.00000000000E+00 0. -1.
          1    1    1    2  502    0  0.37869405952E+03 -0.39734629225E+03  0.14642466862E+03  0.56809633889E+03  0.00000000000E+00 0. -1.
         22    1    1    2    0    0 -0.32590726009E+02  0.81665708225E+02  0.77781949350E+02  0.11739452699E+03  0.00000000000E+00 0. -1.
         22    1    1    2    0    0 -0.14598605591E+03  0.69946029448E+02  0.35860168585E+03  0.39344573279E+03  0.00000000000E+00 0. -1.
</event>
<event>
 6    1  0.2809573E-005  0.7597076E+02  0.7818608E-02  0.1400192E+00
          2   -1    0    0  502    0  0.00000000000E+00  0.00000000000E+00  0.30608190463E+02  0.30608190463E+02  0.00000000000E+00 0. -1.
          1   -1    0    0  501    0 -0.00000000000E+00 -0.00000000000E+00 -0.12647275626E+04  0.12647275626E+04  0.00000000000E+00 0. -1.
          2    1    1    2  501    0  0.30176989244E+02  0.88789215709E+01 -0.35176929027E+03  0.35317293144E+03  0.00000000000E+00 0. -1.
          1    1    1    2  502    0 -0.49068030237E+02 -0.18340613497E+02 -0.77374449689E+03  0.77551569691E+03  0.00000000000E+00 0. -1.
         22    1    1    2    0    0 -0.21410629209E+02  0.18767086690E+02  0.17846434874E+02  0.33602288965E+02  0.00000000000E+00 0. -1.
         22    1    1    2    0    0  0.40301670202E+02 -0.93053947645E+01 -0.12645201990E+03  0.13304483579E+03  0.00000000000E+00 0. -1.
</event>
<event>
 6    1  0.2809573E-005  0.3170629E+03  0.7818608E-02  0.1156303E+00
          2   -1    0    0  502    0  0.00000000000E+00  0.00000000000E+00  0.80839335223E+03  0.80839335223E+03  0.00000000000E+00 0. -1.
          1   -1    0    0  501    0 -0.00000000000E+00 -0.00000000000E+00 -0.62314834557E+03  0.62314834557E+03  0.00000000000E+00 0. -1.
          2    1    1    2  501    0 -0.10456157101E+02 -0.22544535027E+03  0.30119252733E+03  0.37636667719E+03  0.00000000000E+00 0. -1.
          1    1    1    2  502    0  0.26715321040E+02  0.29492350376E+03 -0.53561546630E+03  0.61202737618E+03  0.00000000000E+00 0. -1.
         22    1    1    2    0    0  0.42952182818E+02 -0.21009303981E+01  0.22134221970E+03  0.22548100173E+03  0.00000000000E+00 0. -1.
         22    1    1    2    0    0 -0.59211346756E+02 -0.67377223092E+02  0.19832572593E+03  0.21766664269E+03  0.00000000000E+00 0. -1.
</event>
<event>
 6    1  0.2809573E-005  0.1397962E+03  0.7818608E-02  0.1231915E+00
          2   -1    0    0  502    0  0.00000000000E+00  0.00000000000E+00  0.11232222898E+04  0.11232222898E+04  0.00000000000E+00 0. -1.
          1   -1    0    0  501    0 -0.00000000000E+00 -0.00000000000E+00 -0.13233080626E+03  0.13233080626E+03  0.00000000000E+00 0.  1.
          2    1    1    2  501    0 -0.65661636036E+02 -0.18490796474E+03  0.44514874321E+03  0.48647693620E+03  0.00000000000E+00 0. -1.
          1    1    1    2  502    0  0.30404551744E+02  0.12453011810E+03 -0.63785633120E+02  0.14318098363E+03  0.00000000000E+00 0.  1.
         22    1    1    2    0    0 -0.13711594888E+02 -0.21425117009E+02  0.33673171946E+02  0.42201018733E+02  0.00000000000E+00 0.  1.
         22    1    1    2    0    0  0.48968679180E+02  0.81802963644E+02  0.57585520153E+03  0.58369415753E+03  0.00000000000E+00 0. -1.
</event>
<event>
 6    1  0.2809573E-005  0.1750586E+03  0.7818608E-02  0.1238007E+00
          2   -1    0    0  502    0  0.00000000000E+00  0.00000000000E+00  0.26885539639E+02  0.26885539639E+02  0.00000000000E+00 0. -1.
          1   -1    0    0  501    0 -0.00000000000E+00 -0.00000000000E+00 -0.17380431388E+04  0.17380431388E+04  0.00000000000E+00 0. -1.
          2    1    1    2  501    0 -0.11517411453E+02  0.68580217269E+02 -0.91517725215E+02  0.11494081519E+03  0.00000000000E+00 0. -1.
          1    1    1    2  502    0 -0.23475630145E+02  0.52371978540E+00 -0.12817373999E+04  0.12819524725E+04  0.00000000000E+00 0. -1.
         22    1    1    2    0    0 -0.39238113080E+02  0.29404851933E+01 -0.62593690077E+02  0.73934065280E+02  0.00000000000E+00 0. -1.
         22    1    1    2    0    0  0.74231154678E+02 -0.72044422248E+02 -0.27530878391E+03  0.29410132539E+03  0.00000000000E+00 0.  1.
</event>
<event>
 6    1  0.2809573E-005  0.1056003E+03  0.7818608E-02  0.1284477E+00
          2   -1    0    0  502    0  0.00000000000E+00  0.00000000000E+00  0.28252479462E+03  0.28252479462E+03  0.00000000000E+00 0.  1.
          1   -1    0    0  501    0 -0.00000000000E+00 -0.00000000000E+00 -0.19025498875E+03  0.19025498875E+03  0.00000000000E+00 0.  1.
          2    1    1    2  501    0 -0.10407296673E+03  0.41571221448E+02  0.52276995905E+02  0.12366176918E+03  0.00000000000E+00 0.  1.
          1    1    1    2  502    0  0.70390810577E+02  0.15987756323E+02 -0.11538381926E+03  0.13610253602E+03  0.00000000000E+00 0.  1.
         22    1    1    2    0    0  0.59444077188E+02 -0.41487209990E+02  0.16576607514E+03  0.18092312890E+03  0.00000000000E+00 0.  1.
         22    1    1    2    0    0 -0.25761921037E+02 -0.16071767781E+02 -0.10389445913E+02  0.32092349268E+02  0.00000000000E+00 0. -1.
</event>
<event>
 6    1  0.2809573E-005  0.6099477E+02  0.7818608E-02  0.1461549E+00
          2   -1    0    0  502    0  0.00000000000E+00  0.00000000000E+00  0.13763248988E+02  0.13763248988E+02  0.00000000000E+00 0. -1.
          1   -1    0    0  501    0 -0.00000000000E+00 -0.00000000000E+00 -0.18801371802E+04  0.18801371802E+04  0.00000000000E+00 0.  1.
          2    1    1    2  501    0 -0.20590020386E+01 -0.19950449700E+02 -0.14917099528E+03  0.15051327438E+03  0.00000000000E+00 0. -1.
          1    1    1    2  502    0  0.31417709507E+02  0.34326415431E+02 -0.14093795716E+04  0.14101475639E+04  0.00000000000E+00 0.  1.
         22    1    1    2    0    0 -0.51054252174E+02 -0.15331360417E+02 -0.30690880089E+03  0.31150377099E+03  0.00000000000E+00 0. -1.
         22    1    1    2    0    0  0.21695544706E+02  0.95539468693E+00 -0.91456344572E+00  0.21735819869E+02  0.00000000000E+00 0. -1.
</event>
<event>
 6    1  0.2809573E-005  0.1001086E+03  0.7818608E-02  0.1285620E+00
          2   -1    0    0  502    0  0.00000000000E+00  0.00000000000E+00  0.90679621575E+03  0.90679621575E+03  0.00000000000E+00 0. -1.
          1   -1    0    0  501    0 -0.00000000000E+00 -0.00000000000E+00 -0.92235180834E+02  0.92235180834E+02  0.00000000000E+00 0.  1.
          2    1    1    2  501    0  0.54290795854E+02  0.46235623912E+02  0.62024720174E+03  0.62433309595E+03  0.00000000000E+00 0. -1.
          1    1    1    2  502    0 -0.13568032787E+02 -0.41341745448E+02 -0.68789662534E+02  0.81395633187E+02  0.00000000000E+00 0.  1.
         22    1    1    2    0    0  0.31863028757E+02 -0.38079022640E+01  0.18051373679E+03  0.18334383516E+03  0.00000000000E+00 0.  1.
         22    1    1    2    0    0 -0.72585791824E+02 -0.10859761996E+01  0.82589758916E+02  0.10995883228E+03  0.00000000000E+00 0.  1.
</event>
<event>
 6    1  0.2809573E-005  0.9029553E+02  0.7818608E-02  0.1356409E+00
          2   -1    0    0  502    0  0.00000000000E+00  0.00000000000E+00  0.75857192076E+02  0.75857192076E+02  0.00000000000E+00 0. -1.
          1   -1    0    0  501    0 -0.00000000000E+00 -0.00000000000E+00 -0.22188050913E+04  0.22188050913E+04  0.00000000000E+00 0.  1.
          2    1    1    2  501    0  0.25197377601E+02  0.99631986680E+01 -0.84891804849E+02  0.89111119935E+02  0.00000000000E+00 0. -1.
          1    1    1    2  502    0 -0.46463222750E+02  0.47994153540E+01 -0.20800444077E+04  0.20805688173E+04  0.00000000000E+00 0.  1.
         22    1    1    2    0    0  0.30598988471E+02 -0.48185850558E+02 -0.28435735320E+02  0.63771195164E+02  0.00000000000E+00 0. -1.
         22    1    1    2    0    0 -0.93331433210E+01  0.33423236536E+02  0.50424048731E+02  0.61211150906E+02  0.00000000000E+00 0. -1.
</event>
<event>
 6    1  0.2809573E-005  0.1220068E+03  0.7818608E-02  0.1311715E+00
          2   -1    0    0  502    0  0.00000000000E+00  0.00000000000E+00  0.94501862999E+02  0.94501862999E+02  0.00000000000E+00 0. -1.
          1   -1    0    0  501    0 -0.00000000000E+00 -0.00000000000E+00 -0.45829625677E+03  0.45829625677E+03  0.00000000000E+00 0. -1.
          2    1    1    2  501    0  0.54336727395E+02 -0.49052430925E+02 -0.25613820809E+02  0.77554424375E+02  0.00000000000E+00 0. -1.
          1    1    1    2  502    0 -0.61934198201E+02  0.61157992207E+02 -0.34276616426E+03  0.35364500319E+03  0.00000000000E+00 0. -1.
         22    1    1    2    0    0  0.17113839155E+02 -0.41332515038E+02  0.49789396070E+02  0.66934626696E+02  0.00000000000E+00 0. -1.
         22    1    1    2    0    0 -0.95163683494E+01  0.29226953756E+02 -0.45203804771E+02  0.54664065511E+02  0.00000000000E+00 0. -1.
</event>
<event>
 6    1  0.2809573E-005  0.3147497E+03  0.7818608E-02  0.1109897E+00
          2   -1    0    0  502    0  0.00000000000E+00  0.00000000000E+00  0.16284020658E+03  0.16284020658E+03  0.00000000000E+00 0. -1.
          1   -1    0    0  501    0 -0.00000000000E+00 -0.00000000000E+00 -0.91475187093E+03  0.91475187093E+03  0.00000000000E+00 0. -1.
          2    1    1    2  501    0 -0.26350477836E+03 -0.17895644499E+03 -0.42709826898E+03  0.53279743692E+03  0.00000000000E+00 0. -1.
          1    1    1    2  502    0  0.16210360683E+03  0.21772005032E+03 -0.20954973320E+03  0.34291498997E+03  0.00000000000E+00 0. -1.
         22    1    1    2    0    0 -0.24550650045E+02  0.14109622012E+02 -0.27776425809E+02  0.39665421738E+02  0.00000000000E+00 0.  1.
         22    1    1    2    0    0  0.12595182157E+03 -0.52873227349E+02 -0.87487236362E+02  0.16221422889E+03  0.00000000000E+00 0. -1.
</event>
<event>
 6    1  0.2809573E-005  0.1427678E+03  0.7818608E-02  0.1214664E+00
          2   -1    0    0  502    0  0.00000000000E+00  0.00000000000E+00  0.54190213749E+03  0.54190213749E+03  0.00000000000E+00 0. -1.
          1   -1    0    0  501    0 -0.00000000000E+00 -0.00000000000E+00 -0.72800059125E+03  0.72800059125E+03  0.00000000000E+00 0. -1.
          2    1    1    2  501    0  0.11515342808E+03  0.18068268733E+02  0.14461505674E+03  0.18574253409E+03  0.00000000000E+00 0. -1.
          1    1    1    2  502    0 -0.29107258569E+02 -0.18826405824E+02 -0.69128648212E+03  0.69215508842E+03  0.00000000000E+00 0. -1.
         22    1    1    2    0    0  0.29384713118E+02  0.18300704236E+02  0.11485464239E+03  0.11995818446E+03  0.00000000000E+00 0.  1.
         22    1    1    2    0    0 -0.11543088263E+03 -0.17542567145E+02  0.24571832923E+03  0.27204692177E+03  0.00000000000E+00 0. -1.
</event>
<event>
 6    1  0.2809573E-005  0.4180693E+02  0.7818608E-02  0.1501583E+00
          2   -1    0    0  502    0  0.00000000000E+00  0.00000000000E+00  0.38366009791E+02  0.38366009791E+02  0.00000000000E+00 0. -1.
          1   -1    0    0  501    0 -0.00000000000E+00 -0.00000000000E+00 -0.42221068932E+03  0.42221068932E+03  0.00000000000E+00 0.  1.
          2    1    1    2  501    0 -0.21565675401E+02  0.19578448970E+02 -0.68006087768E+02  0.73981227302E+02  0.00000000000E+00 0. -1.
          1    1    1    2  502    0  0.24149771200E+02 -0.54958069643E+01 -0.24501178947E+03  0.24626041566E+03  0.00000000000E+00 0.  1.
         22    1    1    2    0    0  0.72645495800E+01 -0.37010441073E+02  0.22372571472E+02  0.43852917614E+02  0.00000000000E+00 0. -1.
         22    1    1    2    0    0 -0.98486453791E+01  0.22927799068E+02 -0.93199373762E+02  0.96482138531E+02  0.00000000000E+00 0. -1.
</event>
<event>
 6    1  0.2809573E-005  0.1031751E+03  0.7818608E-02  0.1372079E+00
          2   -1    0    0  502    0  0.00000000000E+00  0.00000000000E+00  0.46798944490E+02  0.46798944490E+02  0.00000000000E+00 0.  1.
          1   -1    0    0  501    0 -0.00000000000E+00 -0.00000000000E+00 -0.15834055968E+04  0.15834055968E+04  0.00000000000E+00 0.  1.
          2    1    1    2  501    0 -0.57947647775E+02 -0.48108027132E+02 -0.24511855366E+03  0.25642819171E+03  0.00000000000E+00 0.  1.
          1    1    1    2  502    0  0.84140154548E+02  0.44131305960E+02 -0.12317114739E+04  0.12353705083E+04  0.00000000000E+00 0.  1.
         22    1    1    2    0    0  0.13590324440E+02  0.11657654433E+02  0.32789940131E+02  0.37360112407E+02  0.00000000000E+00 0.  1.
         22    1    1    2    0    0 -0.39782831213E+02 -0.76809332617E+01 -0.92566564909E+02  0.10104572893E+03  0.00000000000E+00 0.  1.
</event>
<event>
 6    1  0.2809573E-005  0.8483286E+02  0.7818608E-02  0.1324369E+00
          2   -1    0    0  502    0  0.00000000000E+00  0.00000000000E+00  0.43910366208E+02  0.43910366208E+02  0.00000000000E+00 0. -1.
          1   -1    0    0  501    0 -0.00000000000E+00 -0.00000000000E+00 -0.81841327830E+03  0.81841327830E+03  0.00000000000E+00 0.  1.
          2    1    1    2  501    0 -0.21244937814E+02  0.31005290586E+02 -0.28151283560E+02  0.46959239699E+02  0.00000000000E+00 0. -1.
          1    1    1    2  502    0 -0.11772193481E+02  0.30786200634E+02 -0.63455249335E+03  0.63540793314E+03  0.00000000000E+00 0.  1.
         22    1    1    2    0    0  0.16121263271E+02  0.31755981998E+02 -0.33940072983E+01  0.35775086411E+02  0.00000000000E+00 0. -1.
         22    1    1    2    0    0  0.16895868024E+02 -0.93547473219E+02 -0.10840512789E+03  0.14418138526E+03  0.00000000000E+00 0. -1.
</event>
<event>
 6    1  0.2809573E-005  0.9441321E+02  0.7818608E-02  0.1333678E+00
          2   -1    0    0  502    0  0.00000000000E+00  0.00000000000E+00  0.25534999748E+03  0.25534999748E+03  0.00000000000E+00 0. -1.
          1   -1    0    0  501    0 -0.00000000000E+00 -0.00000000000E+00 -0.11040225603E+04  0.11040225603E+04  0.00000000000E+00 0. -1.
          2    1    1    2  501    0 -0.29344496119E+02 -0.27766190478E+02  0.32597028480E+02  0.51909797263E+02  0.00000000000E+00 0. -1.
          1    1    1    2  502    0  0.52415741883E+02 -0.42481853387E+01 -0.10742706821E+04  0.10755570442E+04  0.00000000000E+00 0. -1.
         22    1    1    2    0    0 -0.67233583396E+02  0.39969668883E+02  0.15281140846E+03  0.17166611699E+03  0.00000000000E+00 0. -1.
         22    1    1    2    0    0  0.44162337632E+02 -0.79552930662E+01  0.40189682330E+02  0.60239599258E+02  0.00000000000E+00 0. -1.
</event>
<event>
 6    1  0.2809573E-005  0.9387885E+02  0.7818608E-02  0.1363573E+00
          2   -1    0    0  502    0  0.00000000000E+00  0.00000000000E+00  0.15936485340E+03  0.15936485340E+03  0.00000000000E+00 0.  1.
          1   -1    0    0  501    0 -0.00000000000E+00 -0.00000000000E+00 -0.65005798992E+03  0.65005798992E+03  0.00000000000E+00 0. -1.
          2    1    1    2  501    0  0.26445679949E+02 -0.13726637857E+02  0.45274977847E+01  0.30137896592E+02  0.00000000000E+00 0.  1.
          1    1    1    2  502    0 -0.11229318913E+02 -0.61282023115E+02 -0.59651254811E+03  0.59975728759E+03  0.00000000000E+00 0. -1.
         22    1    1    2    0    0 -0.10912634487E+02  0.25105984289E+02  0.12221641470E+03  0.12524475263E+03  0.00000000000E+00 0.  1.
         22    1    1    2    0    0 -0.43037265488E+01  0.49902676683E+02 -0.20924500888E+02  0.54282906515E+02  0.00000000000E+00 0.  1.
</event>
<event>
 6    1  0.2809573E-005  0.2239801E+03  0.7818608E-02  0.1187834E+00
          2   -1    0    0  502    0  0.00000000000E+00  0.00000000000E+00  0.55477866022E+03  0.55477866022E+03  0.00000000000E+00 0.  1.
          1   -1    0    0  501    0 -0.00000000000E+00 -0.00000000000E+00 -0.52909078961E+03  0.52909078961E+03  0.00000000000E+00 0.  1.
          2    1    1    2  501    0 -0.66701119476E+02  0.16769655574E+02 -0.17770754910E+02  0.71035627804E+02  0.00000000000E+00 0.  1.
          1    1    1    2  502    0 -0.40040203857E+00 -0.64988567766E+02 -0.47133068785E+03  0.47579017599E+03  0.00000000000E+00 0.  1.
         22    1    1    2    0    0  0.45288745346E+02 -0.38513220537E+02  0.26895285175E+03  0.27544504911E+03  0.00000000000E+00 0. -1.
         22    1    1    2    0    0  0.21812776169E+02  0.86732132729E+02  0.24583646162E+03  0.26159859693E+03  0.00000000000E+00 0.  1.
</event>
<event>
 6    1  0.2809573E-005  0.3107766E+03  0.7818608E-02  0.1158673E+00
          2   -1    0    0  502    0  0.00000000000E+00  0.00000000000E+00  0.29262899465E+03  0.29262899465E+03  0.00000000000E+00 0. -1.
          1   -1    0    0  501    0 -0.00000000000E+00 -0.00000000000E+00 -0.96528543930E+03  0.96528543930E+03  0.00000000000E+00 0.  1.
          2    1    1    2  501    0  0.10642999861E+03  0.45294523490E+02 -0.66767879955E+02  0.13355481367E+03  0.00000000000E+00 0. -1.
          1    1    1    2  502    0 -0.55709169068E+02 -0.40555963415E+02 -0.84654221672E+03  0.84934211150E+03  0.00000000000E+00 0.  1.
         22    1    1    2    0    0  0.33118235555E+02  0.27745281032E+02  0.78756006272E+02  0.89828317749E+02  0.00000000000E+00 0. -1.
         22    1    1    2    0    0 -0.83839065095E+02 -0.32483841107E+02  0.16189764575E+03  0.18518919102E+03  0.00000000000E+00 0. -1.
</event>
<event>
 6    1  0.2809573E-005  0.8021320E+02  0.7818608E-02  0.1329867E+00
          2   -1    0    0  502    0  0.00000000000E+00  0.00000000000E+00  0.11793967482E+03  0.11793967482E+03  0.00000000000E+00 0. -1.
          1   -1    0    0  501    0 -0.00000000000E+00 -0.00000000000E+00 -0.12534064432E+03  0.12534064432E+03  0.00000000000E+00 0. -1.
          2    1    1    2  501    0 -0.29904432291E+01 -0.41435295215E+02 -0.22435805459E+02  0.47214317816E+02  0.00000000000E+00 0. -1.
          1    1    1    2  502    0  0.46224388625E+02  0.12712096468E+02 -0.30958435428E+02  0.57067646040E+02  0.00000000000E+00 0. -1.
         22    1    1    2    0    0 -0.55713156563E+02  0.61684780677E+02  0.58453474938E+02  0.10161582905E+03  0.00000000000E+00 0. -1.
         22    1    1    2    0    0  0.12479211167E+02 -0.32961581930E+02 -0.12460203550E+02  0.37382526228E+02  0.00000000000E+00 0. -1.
</event>
<event>
 6    1  0.2809573E-005  0.2085564E+03  0.7818608E-02  0.1237716E+00
          2   -1    0    0  502    0  0.00000000000E+00  0.00000000000E+00  0.39469604771E+03  0.39469604771E+03  0.00000000000E+00 0. -1.
          1   -1    0    0  501    0 -0.00000000000E+00 -0.00000000000E+00 -0.32331275808E+03  0.32331275808E+03  0.00000000000E+00 0. -1.
          2    1    1    2  501    0  0.26142382166E+02 -0.10555333188E+02  0.11974087036E+02  0.30630343850E+02  0.00000000000E+00 0. -1.
          1    1    1    2  502    0 -0.20336086664E+03  0.52599662332E+02 -0.23855537934E+03  0.31785379590E+03  0.00000000000E+00 0. -1.
         22    1    1    2    0    0  0.20651959077E+02 -0.14952631806E+02  0.15083277396E+03  0.15297258027E+03  0.00000000000E+00 0. -1.
         22    1    1    2    0    0  0.15656652539E+03 -0.27091697338E+02  0.14713180796E+03  0.21655208577E+03  0.00000000000E+00 0. -1.
</event>
<event>
 6    1  0.2809573E-005  0.6549710E+02  0.7818608E-02  0.1425806E+00
          2   -1    0    0  502    0  0.00000000000E+00  0.00000000000E+00  0.26403350913E+03  0.26403350913E+03  0.00000000000E+00 0. -1.
          1   -1    0    0  501    0 -0.00000000000E+00 -0.00000000000E+00 -0.10525411812E+03  0.10525411812E+03  0.00000000000E+00 0. -1.
          2    1    1    2  501    0  0.30359880241E+02  0.22334477890E+02 -0.55816533226E+02  0.67350104768E+02  0.00000000000E+00 0. -1.
          1    1    1    2  502    0  0.19503762620E+02 -0.39193883382E+02  0.14478885292E+03  0.15126258355E+03  0.00000000000E+00 0. -1.
         22    1    1    2    0    0 -0.20129924456E+02  0.19396459437E+02 -0.33217930645E+02  0.43415059756E+02  0.00000000000E+00 0. -1.
         22    1    1    2    0    0 -0.29733718405E+02 -0.25370539445E+01  0.10302500196E+03  0.10725987918E+03  0.00000000000E+00 0. -1.
</event>
<event>
 6    1  0.2809573E-005  0.1052853E+03  0.7818608E-02  0.1290681E+00
          2   -1    0    0  502    0  0.00000000000E+00  0.00000000000E+00  0.76937104422E+03  0.76937104422E+03  0.00000000000E+00 0. -1.
          1   -1    0    0  501    0 -0.00000000000E+00 -0.00000000000E+00 -0.48465700918E+02  0.48465700918E+02  0.00000000000E+00 0. -1.
          2    1    1    2  501    0  0.28002899327E+02  0.65905458514E+02  0.12104996440E+02  0.72623844373E+02  0.00000000000E+00 0. -1.
          1    1    1    2  502    0  0.18243133077E+02 -0.96060438204E+02  0.29727746560E+03  0.31294458175E+03  0.00000000000E+00 0. -1.
         22    1    1    2    0    0  0.23846338871E+02  0.23173532859E+02  0.31603490577E+02  0.45874187942E+02  0.00000000000E+00 0. -1.
         22    1    1    2    0    0 -0.70092371276E+02  0.69814468309E+01  0.37991939068E+03  0.38639413107E+03  0.00000000000E+00 0. -1.
</event>
<event>
 6    1  0.2809573E-005  0.2357434E+03  0.7818608E-02  0.1228261E+00
          2   -1    0    0  502    0  0.00000000000E+00  0.00000000000E+00  0.87128919438E+02  0.87128919438E+02  0.00000000000E+00 0.  1.
          1   -1    0    0  501    0 -0.00000000000E+00 -0.00000000000E+00 -0.87791636667E+03  0.87791636667E+03  0.00000000000E+00 0.  1.
          2    1    1    2  501    0  0.59014769389E+02  0.77686758130E+02 -0.19726827394E+03  0.22007441309E+03  0.00000000000E+00 0.  1.
          1    1    1    2  502    0 -0.22841916649E+02  0.26761383035E+02 -0.57598595602E+03  0.57705956912E+03  0.00000000000E+00 0.  1.
         22    1    1    2    0    0  0.19761975154E+02 -0.83122560178E+01  0.37972343292E+02  0.43606514619E+02  0.00000000000E+00 0.  1.
         22    1    1    2    0    0 -0.55934827893E+02 -0.96135885147E+02 -0.55505560564E+02  0.12430478928E+03  0.00000000000E+00 0.  1.
</event>
<event>
 6    1  0.2809573E-005  0.2293472E+03  0.7818608E-02  0.1255703E+00
          2   -1    0    0  502    0  0.00000000000E+00  0.00000000000E+00  0.21036905666E+03  0.21036905666E+03  0.00000000000E+00 0.  1.
          1   -1    0    0  501    0 -0.00000000000E+00 -0.00000000000E+00 -0.15701804765E+03  0.15701804765E+03  0.00000000000E+00 0.  1.
          2    1    1    2  501    0 -0.48620550132E+02  0.93012216613E+02  0.50818387880E+01  0.10507642657E+03  0.00000000000E+00 0.  1.
          1    1    1    2  502    0 -0.43532170141E+02 -0.45822829081E+01 -0.43152513493E+02  0.61466955143E+02  0.00000000000E+00 0.  1.
         22    1    1    2    0    0  0.99493298052E+02 -0.77269044409E+02  0.19238022357E+02  0.12743438737E+03  0.00000000000E+00 0.  1.
         22    1    1    2    0    0 -0.73405777792E+01 -0.11160889296E+02  0.72183661358E+02  0.73409335231E+02  0.00000000000E+00 0. -1.
</event>
<event>
 6    1  0.2809573E-005  0.1966456E+03  0.7818608E-02  0.1266266E+00
          2   -1    0    0  502    0  0.00000000000E+00  0.00000000000E+00  0.87852413221E+02  0.87852413221E+02  0.00000000000E+00 0. -1.
          1   -1    0    0  501    0 -0.00000000000E+00 -0.00000000000E+00 -0.26264055360E+04  0.26264055360E+04  0.00000000000E+00 0. -1.
          2    1    1    2  501    0 -0.70048476128E+02  0.32643973722E+02 -0.43981086481E+02  0.88919930253E+02  0.00000000000E+00 0. -1.
          1    1    1    2  502    0  0.16632646750E+03  0.28165423954E+02 -0.24458955954E+04  0.24517061506E+04  0.00000000000E+00 0. -1.
         22    1    1    2    0    0 -0.11783429259E+02  0.12564337996E+02  0.31545232593E+02  0.35941807046E+02  0.00000000000E+00 0. -1.
         22    1    1    2    0    0 -0.84494562111E+02 -0.73373735673E+02 -0.80221673503E+02  0.13769006141E+03  0.00000000000E+00 0. -1.
</event>
<event>
 6    1  0.2809573E-005  0.9979180E+02  0.7818608E-02  0.1284106E+00
          2   -1    0    0  502    0  0.00000000000E+00  0.00000000000E+00  0.18863114830E+03  0.18863114830E+03  0.00000000000E+00 0. -1.
          1   -1    0    0  501    0 -0.00000000000E+00 -0.00000000000E+00 -0.92762615953E+02  0.92762615953E+02  0.00000000000E+00 0. -1.
          2    1    1    2  501    0 -0.37921529557E+02  0.38016768518E+02 -0.14390699216E+02  0.55591450030E+02  0.00000000000E+00 0. -1.
          1    1    1    2  502    0 -0.36680085336E+02 -0.40658911917E+02  0.26192204100E+02  0.60700966501E+02  0.00000000000E+00 0. -1.
         22    1    1    2    0    0 -0.17159412874E+02  0.38587039367E+02  0.15239777966E+02  0.44896056505E+02  0.00000000000E+00 0. -1.
         22    1    1    2    0    0  0.91761027767E+02 -0.35944895968E+02  0.68827249496E+02  0.12020529122E+03  0.00000000000E+00 0. -1.
</event>
<event>
 6    1  0.2809573E-005  0.1012729E+03  0.7818608E-02  0.1281954E+00
          2   -1    0    0  502    0  0.00000000000E+00  0.00000000000E+00  0.24993553031E+02  0.24993553031E+02  0.00000000000E+00 0. -1.
          1   -1    0    0  501    0 -0.00000000000E+00 -0.00000000000E+00 -0.81865687327E+03  0.81865687327E+03  0.00000000000E+00 0. -1.
          2    1    1    2  501    0  0.15128257911E+02 -0.21282852376E+02 -0.41595990060E+03  0.41677867376E+03  0.00000000000E+00 0. -1.
          1    1    1    2  502    0  0.38786318831E+02 -0.13715876577E+02 -0.28629323878E+02  0.50121272774E+02  0.00000000000E+00 0. -1.
         22    1    1    2    0    0 -0.85723853777E+02  0.56999669838E+02 -0.26029019010E+03  0.27990806442E+03  0.00000000000E+00 0.  1.
         22    1    1    2    0    0  0.31809277034E+02 -0.22000940885E+02 -0.88783905663E+02  0.96842415346E+02  0.00000000000E+00 0. -1.
</event>
<event>
 6    1  0.2809573E-005  0.2731842E+03  0.7818608E-02  0.1203975E+00
          2   -1    0    0  502    0  0.00000000000E+00  0.00000000000E+00  0.16411168709E+03  0.16411168709E+03  0.00000000000E+00 0.  1.
          1   -1    0    0  501    0 -0.00000000000E+00 -0.00000000000E+00 -0.11974180923E+04  0.11974180923E+04  0.00000000000E+00 0.  1.
          2    1    1    2  501    0  0.22741359594E+03 -0.80037370100E+02 -0.24743806303E+03  0.34546855033E+03  0.00000000000E+00 0.  1.
          1    1    1    2  502    0 -0.25016634555E+03  0.92937130850E+02 -0.83916206104E+03  0.88057565003E+03  0.00000000000E+00 0.  1.
         22    1    1    2    0    0  0.38921851807E+02  0.34842552141E+01 -0.29875638035E+02  0.49189473777E+02  0.00000000000E+00 0. -1.
         22    1    1    2    0    0 -0.16169102196E+02 -0.16384015964E+02  0.83169356932E+02  0.86296105227E+02  0.00000000000E+00 0.  1.
</event>
<event>
 6    1  0.2809573E-005  0.1373895E+03  0.7818608E-02  0.1273441E+00
          2   -1    0    0  502    0  0.00000000000E+00  0.00000000000E+00  0.16458087703E+03  0.16458087703E+03  0.00000000000E+00 0. -1.
          1   -1    0    0  501    0 -0.00000000000E+00 -0.00000000000E+00 -0.55721794054E+03  0.55721794054E+03  0.00000000000E+00 0. -1.
          2    1    1    2  501    0  0.19035426504E+02  0.41470397349E+02 -0.26094286207E+02  0.52564751413E+02  0.00000000000E+00 0. -1.
          1    1    1    2  502    0 -0.29846067567E+02 -0.35544304032E+02 -0.49201510331E+03  0.49419940023E+03  0.00000000000E+00 0. -1.
         22    1    1    2    0    0  0.47217613883E+02  0.18715326412E+02  0.12053115617E+03  0.13079574195E+03  0.00000000000E+00 0. -1.
         22    1    1    2    0    0 -0.36406972820E+02 -0.24641419729E+02  0.49411698352E+01  0.44238923987E+02  0.00000000000E+00 0.  1.
</event>
<event>
 6    1  0.2809573E-005  0.2199684E+03  0.7818608E-02  0.1175260E+00
          2   -1    0    0  502    0  0.00000000000E+00  0.00000000000E+00  0.77147969208E+03  0.77147969208E+03  0.00000000000E+00 0.  1.
          1   -1    0    0  501    0 -0.00000000000E+00 -0.00000000000E+00 -0.10908609267E+03  0.10908609267E+03  0.00000000000E+00 0.  1.
          2    1    1    2  501    0  0.17891358297E+03 -0.49956701627E+02  0.71740598747E+02  0.19912924375E+03  0.00000000000E+00 0.  1.
          1    1    1    2  502    0 -0.90285089699E+02  0.55998301104E+02  0.47149756946E+02  0.11623384502E+03  0.00000000000E+00 0.  1.
         22    1    1    2    0    0 -0.70018271076E+02  0.44943937919E+02  0.44523023635E+03  0.45293761071E+03  0.00000000000E+00 0.  1.
         22    1    1    2    0    0 -0.18610222194E+02 -0.50985537397E+02  0.98273007359E+02  0.11226508526E+03  0.00000000000E+00 0.  1.
</event>
<event>
 6    1  0.2809573E-005  0.5159941E+02  0.7818608E-02  0.1465965E+00
          2   -1    0    0  502    0  0.00000000000E+00  0.00000000000E+00  0.31677939574E+02  0.31677939574E+02  0.00000000000E+00 0. -1.
          1   -1    0    0  501    0 -0.00000000000E+00 -0.00000000000E+00 -0.37701731644E+03  0.37701731644E+03  0.00000000000E+00 0. -1.
          2    1    1    2  501    0  0.47408674076E+01 -0.23637339578E+02 -0.14343805030E+03  0.14544990175E+03  0.00000000000E+00 0. -1.
          1    1    1    2  502    0 -0.12032422529E+01  0.35092052204E+02 -0.72110411427E+02  0.80204808808E+02  0.00000000000E+00 0. -1.
         22    1    1    2    0    0 -0.29894287757E+02  0.15453811502E+02  0.12461707338E+02  0.35885691860E+02  0.00000000000E+00 0. -1.
         22    1    1    2    0    0  0.26356662603E+02 -0.26908524129E+02 -0.14225262248E+03  0.14715485360E+03  0.00000000000E+00 0. -1.
</event>
<event>
 6    1  0.2809573E-005  0.1861006E+03  0.7818608E-02  0.1285673E+00
          2   -1    0    0  502    0  0.00000000000E+00  0.00000000000E+00  0.26904739256E+02  0.26904739256E+02  0.00000000000E+00 0. -1.
          1   -1    0    0  501    0 -0.00000000000E+00 -0.00000000000E+00 -0.10554754967E+04  0.10554754967E+04  0.00000000000E+00 0. -1.
          2    1    1    2  501    0 -0.73620509167E+02 -0.21977333210E+02 -0.38106764698E+03  0.38873581533E+03  0.00000000000E+00 0. -1.
          1    1    1    2  502    0 -0.20939701071E+02  0.56776146569E+02 -0.61998150661E+02  0.86635862006E+02  0.00000000000E+00 0. -1.
         22    1    1    2    0    0 -0.11150989893E+02 -0.84861017900E+01 -0.29041734062E+01  0.14310580783E+02  0.00000000000E+00 0.  1.
         22    1    1    2    0    0  0.10571120013E+03 -0.26312711568E+02 -0.58260078645E+03  0.59269797789E+03  0.00000000000E+00 0. -1.
</event>
<event>
 6    1  0.2809573E-005  0.2674347E+03  0.7818608E-02  0.1125279E+00
          2   -1    0    0  502    0  0.00000000000E+00  0.00000000000E+00  0.21469210752E+03  0.21469210752E+03  0.00000000000E+00 0. -1.
          1   -1    0    0  501    0 -0.00000000000E+00 -0.00000000000E+00 -0.16999951509E+04  0.16999951509E+04  0.00000000000E+00 0. -1.
          2    1    1    2  501    0 -0.32980132919E+03  0.95780990220E+02 -0.74693530983E+03  0.82210417339E+03  0.00000000000E+00 0. -1.
          1    1    1    2  502    0  0.19472573354E+03 -0.12943343681E+03 -0.84431032755E+03  0.87608849728E+03  0.00000000000E+00 0. -1.
         22    1    1    2    0    0 -0.12759017688E+02  0.13889424307E+01 -0.17160827920E+02  0.21429318896E+02  0.00000000000E+00 0. -1.
         22    1    1    2    0    0  0.14783461335E+03  0.32263504164E+02  0.12310342195E+03  0.19506526882E+03  0.00000000000E+00 0. -1.
</event>
<event>
 6    1  0.2809573E-005  0.8131535E+02  0.7818608E-02  0.1334464E+00
          2   -1    0    0  502    0  0.00000000000E+00  0.00000000000E+00  0.18754505072E+03  0.18754505072E+03  0.00000000000E+00 0.  1.
          1   -1    0    0  501    0 -0.00000000000E+00 -0.00000000000E+00 -0.18390734918E+03  0.18390734918E+03  0.00000000000E+00 0.  1.
          2    1    1    2  501    0  0.32090336612E+02 -0.16099345276E+02 -0.14336825303E+03  0.14779524552E+03  0.00000000000E+00 0.  1.
          1    1    1    2  502    0 -0.16418884897E+02 -0.31303468788E+02  0.40899182262E+02  0.54057654861E+02  0.00000000000E+00 0.  1.
         22    1    1    2    0    0 -0.30124513364E+02  0.63609389193E+02  0.12325184128E+03  0.14193187478E+03  0.00000000000E+00 0.  1.
         22    1    1    2    0    0  0.14453061649E+02 -0.16206575128E+02 -0.17145068974E+02  0.27667624736E+02  0.00000000000E+00 0.  1.
</event>
<event>
 6    1  0.2809573E-005  0.7876649E+02  0.7818608E-02  0.1397997E+00
          2   -1    0    0  502    0  0.00000000000E+00  0.00000000000E+00  0.52060608145E+03  0.52060608145E+03  0.00000000000E+00 0. -1.
          1   -1    0    0  501    0 -0.00000000000E+00 -0.00000000000E+00 -0.15633633063E+03  0.15633633063E+03  0.00000000000E+00 0. -1.
          2    1    1    2  501    0 -0.81049434306E+01  0.34087902481E+02  0.20480755599E+03  0.20778308448E+03  0.00000000000E+00 0. -1.
          1    1    1    2  502    0  0.20826510856E+02 -0.73594166197E+02 -0.12989429412E+03  0.15073941919E+03  0.00000000000E+00 0. -1.
         22    1    1    2    0    0  0.87833233148E+01  0.54907333116E+02  0.28646445282E+03  0.29181131700E+03  0.00000000000E+00 0. -1.
         22    1    1    2    0    0 -0.21504890740E+02 -0.15401069400E+02  0.28920361300E+01  0.26608591421E+02  0.00000000000E+00 0. -1.
</event>
<event>
 6    1  0.2809573E-005  0.4015764E+03  0.7818608E-02  0.1109251E+00
          2   -1    0    0  502    0  0.00000000000E+00  0.00000000000E+00  0.20894564991E+04  0.20894564991E+04  0.00000000000E+00 0. -1.
          1   -1    0    0  501    0 -0.00000000000E+00 -0.00000000000E+00 -0.11984467027E+03  0.11984467027E+03  0.00000000000E+00 0.  1.
          2    1    1    2  501    0  0.98639908892E+02  0.27881529547E+03  0.30703488596E+03  0.42630766098E+03  0.00000000000E+00 0. -1.
          1    1    1    2  502    0 -0.17448206964E+03 -0.40290423822E+03  0.13245739090E+04  0.13954468310E+04  0.00000000000E+00 0.  1.
         22    1    1    2    0    0  0.71347103392E+01  0.66482978039E+02  0.26077545199E+03  0.26921130515E+03  0.00000000000E+00 0. -1.
         22    1    1    2    0    0  0.68707450406E+02  0.57605964714E+02  0.77227581861E+02  0.11833537219E+03  0.00000000000E+00 0. -1.
</event>
<event>
 6    1  0.2809573E-005  0.2100453E+03  0.7818608E-02  0.1230417E+00
          2   -1    0    0  502    0  0.00000000000E+00  0.00000000000E+00  0.31784877474E+03  0.31784877474E+03  0.00000000000E+00 0.  1.
          1   -1    0    0  501    0 -0.00000000000E+00 -0.00000000000E+00 -0.18076427084E+04  0.18076427084E+04  0.00000000000E+00 0. -1.
          2    1    1    2  501    0 -0.68175055367E+02  0.47870789075E+02  0.38319974660E+02  0.91694444100E+02  0.00000000000E+00 0.  1.
          1    1    1    2  502    0  0.17938918822E+03 -0.91335306651E+02 -0.17452510407E+04  0.17568220781E+04  0.00000000000E+00 0. -1.
         22    1    1    2    0    0 -0.12335687895E+03  0.17141275610E+02  0.11059447044E+03  0.16655893794E+03  0.00000000000E+00 0.  1.
         22    1    1    2    0    0  0.12142746098E+02  0.26323241966E+02  0.10654266187E+03  0.11041602306E+03  0.00000000000E+00 0.  1.
</event>
<event>
 6    1  0.2809573E-005  0.7867409E+02  0.7818608E-02  0.1362369E+00
          2   -1    0    0  502    0  0.00000000000E+00  0.00000000000E+00  0.15737420167E+03  0.15737420167E+03  0.00000000000E+00 0.  1.
          1   -1    0    0  501    0 -0.00000000000E+00 -0.00000000000E+00 -0.10757231481E+04  0.10757231481E+04  0.00000000000E+00 0. -1.
          2    1    1    2  501    0 -0.16542952054E+02 -0.63256769545E+02 -0.11274589501E+01  0.65393878304E+02  0.00000000000E+00 0.  1.
          1    1    1    2  502    0 -0.17167094171E+02  0.72578802859E+02 -0.10079771604E+04  0.10107325797E+04  0.00000000000E+00 0. -1.
         22    1    1    2    0    0 -0.75887471220E+01 -0.32703659080E+02 -0.18156606169E+02  0.38167797260E+02  0.00000000000E+00 0. -1.
         22    1    1    2    0    0  0.41298793347E+02  0.23381625766E+02  0.10891227903E+03  0.11880309457E+03  0.00000000000E+00 0.  1.
</event>
<event>
 6    1  0.2809573E-005  0.1124536E+03  0.7818608E-02  0.1328289E+00
          2   -1    0    0  502    0  0.00000000000E+00  0.00000000000E+00  0.34927845501E+03  0.34927845501E+03  0.00000000000E+00 0. -1.
          1   -1    0    0  501    0 -0.00000000000E+00 -0.00000000000E+00 -0.13097119262E+03  0.13097119262E+03  0.00000000000E+00 0.  1.
          2    1    1    2  501    0  0.14964866972E+02  0.31392229408E+02  0.73796424165E+02  0.81580215311E+02  0.00000000000E+00 0. -1.
          1    1    1    2  502    0 -0.90870486779E+02 -0.31043926461E+02 -0.84868751110E+02  0.12815566961E+03  0.00000000000E+00 0.  1.
         22    1    1    2    0    0  0.73214159616E+02  0.28720273152E+02  0.60752127828E+02  0.99378007093E+02  0.00000000000E+00 0. -1.
         22    1    1    2    0    0  0.26914601905E+01 -0.29068576099E+02  0.16862746151E+03  0.17113575562E+03  0.00000000000E+00 0. -1.
</event>
<event>
 6    1  0.2809573E-005  0.8618142E+02  0.7818608E-02  0.1353829E+00
          2   -1    0    0  502    0  0.00000000000E+00  0.00000000000E+00  0.10083463082E+03  0.10083463082E+03  0.00000000000E+00 0. -1.
          1   -1    0    0  501    0 -0.00000000000E+00 -0.00000000000E+00 -0.59156771336E+03  0.59156771336E+03  0.00000000000E+00 0. -1.
          2    1    1    2  501    0  0.50483781984E+02 -0.33247558901E+02 -0.29978397111E+03  0.30581766096E+03  0.00000000000E+00 0. -1.
          1    1    1    2  502    0 -0.10558832978E+03  0.25761987347E+02 -0.21735950401E+03  0.24301796098E+03  0.00000000000E+00 0. -1.
         22    1    1    2    0    0  0.39235635597E+02  0.14107769148E+02  0.78405257427E+02  0.88802300890E+02  0.00000000000E+00 0. -1.
         22    1    1    2    0    0  0.15868912198E+02 -0.66221975940E+01 -0.51994864848E+02  0.54764421350E+02  0.00000000000E+00 0.  1.
</event>
<event>
 6    1  0.2809573E-005  0.2524739E+03  0.7818608E-02  0.1189676E+00
          2   -1    0    0  502    0  0.00000000000E+00  0.00000000000E+00  0.13937772798E+04  0.13937772798E+04  0.00000000000E+00 0. -1.
          1   -1    0    0  501    0 -0.00000000000E+00 -0.00000000000E+00 -0.30949266015E+02  0.30949266015E+02  0.00000000000E+00 0. -1.
          2    1    1    2  501    0 -0.62222840622E+02 -0.42619317401E+02  0.11395261359E+03  0.13665023328E+03  0.00000000000E+00 0. -1.
          1    1    1    2  502    0 -0.10407076037E+03  0.20808553007E+02  0.50471394508E+03  0.51575176723E+03  0.00000000000E+00 0. -1.
         22    1    1    2    0    0  0.15853261843E+02  0.36560457954E+02  0.62645674834E+02  0.74246034051E+02  0.00000000000E+00 0.  1.
         22    1    1    2    0    0  0.15044033915E+03 -0.14749693560E+02  0.68151578027E+03  0.69807851125E+03  0.00000000000E+00 0. -1.
</event>
<event>
 6    1  0.2809573E-005  0.2433832E+03  0.7818608E-02  0.1161969E+00
          2   -1    0    0  502    0  0.00000000000E+00  0.00000000000E+00  0.10882456753E+04  0.10882456753E+04  0.00000000000E+00 0.  1.
          1   -1    0    0  501    0 -0.00000000000E+00 -0.00000000000E+00 -0.36362595555E+03  0.36362595555E+03  0.00000000000E+00 0. -1.
          2    1    1    2  501    0 -0.11542664823E+03  0.23858373668E+02  0.39948760936E+03  0.41651276469E+03  0.00000000000E+00 0.  1.
          1    1    1    2  502    0  0.23609649085E+03 -0.19667026542E+02 -0.30188471374E+03  0.38374825774E+03  0.00000000000E+00 0. -1.
         22    1    1    2    0    0 -0.59021670836E+02 -0.58795027207E+02  0.19885676453E+03  0.21560247135E+03  0.00000000000E+00 0.  1.
         22    1    1    2    0    0 -0.61648171785E+02  0.54603680081E+02  0.42816005963E+03  0.43600813711E+03  0.00000000000E+00 0.  1.
</event>
<event>
 6    1  0.2809573E-005  0.1562425E+03  0.7818608E-02  0.1258701E+00
          2   -1    0    0  502    0  0.00000000000E+00  0.00000000000E+00  0.44492398994E+03  0.44492398994E+03  0.00000000000E+00 0.  1.
          1   -1    0    0  501    0 -0.00000000000E+00 -0.00000000000E+00 -0.92106572239E+02  0.92106572239E+02  0.00000000000E+00 0.  1.
          2    1    1    2  501    0 -0.60754297396E+02 -0.18029206174E+02 -0.11953381843E+02  0.64490466465E+02  0.00000000000E+00 0.  1.
          1    1    1    2  502    0  0.12934114135E+03  0.73216092483E+02  0.15057877226E+03  0.21157432193E+03  0.00000000000E+00 0.  1.
         22    1    1    2    0    0 -0.78019915612E+02 -0.16497372935E+02  0.55010165421E+02  0.96878216569E+02  0.00000000000E+00 0.  1.
         22    1    1    2    0    0  0.94330716528E+01 -0.38689513375E+02  0.15918186187E+03  0.16408755722E+03  0.00000000000E+00 0.  1.
</event>
<event>
 6    1  0.2809573E-005  0.5146904E+02  0.7818608E-02  0.1477513E+00
          2   -1    0    0  502    0  0.00000000000E+00  0.00000000000E+00  0.17585352750E+03  0.17585352750E+03  0.00000000000E+00 0. -1.
          1   -1    0    0  501    0 -0.00000000000E+00 -0.00000000000E+00 -0.19070605826E+03  0.19070605826E+03  0.00000000000E+00 0. -1.
          2    1    1    2  501    0  0.55330635452E+01  0.31352482909E+02 -0.47421714555E+02  0.57117527853E+02  0.00000000000E+00 0. -1.
          1    1    1    2  502    0  0.88021483019E+01 -0.55355279082E+02 -0.10773847792E+03  0.12144654940E+03  0.00000000000E+00 0. -1.
         22    1    1    2    0    0 -0.25774797253E+02  0.12737567406E+02  0.16001427857E+03  0.16257661315E+03  0.00000000000E+00 0. -1.
         22    1    1    2    0    0  0.11439585406E+02  0.11265228768E+02 -0.19706616854E+02  0.25418895359E+02  0.00000000000E+00 0.  1.
</event>
<event>
 6    1  0.2809573E-005  0.8489347E+02  0.7818608E-02  0.1339909E+00
          2   -1    0    0  502    0  0.00000000000E+00  0.00000000000E+00  0.59595515961E+03  0.59595515961E+03  0.00000000000E+00 0. -1.
          1   -1    0    0  501    0 -0.00000000000E+00 -0.00000000000E+00 -0.34923477941E+03  0.34923477941E+03  0.00000000000E+00 0. -1.
          2    1    1    2  501    0  0.13556787576E+02 -0.15523232791E+02  0.11140452282E+03  0.11329485845E+03  0.00000000000E+00 0. -1.
          1    1    1    2  502    0  0.51133836350E+02  0.47302184157E+02 -0.33328464898E+03  0.34048615697E+03  0.00000000000E+00 0. -1.
         22    1    1    2    0    0 -0.37111221736E+02 -0.79802634365E+02  0.34355949096E+03  0.35465310807E+03  0.00000000000E+00 0. -1.
         22    1    1    2    0    0 -0.27579402190E+02  0.48023682999E+02  0.12504101539E+03  0.13675581554E+03  0.00000000000E+00 0.  1.
</event>
<event>
 6    1  0.2809573E-005  0.1168103E+03  0.7818608E-02  0.1329809E+00
          2   -1    0    0  502    0  0.00000000000E+00  0.00000000000E+00  0.97295492969E+02  0.97295492969E+02  0.00000000000E+00 0.  1.
          1   -1    0    0  501    0 -0.00000000000E+00 -0.00000000000E+00 -0.10756241427E+04  0.10756241427E+04  0.00000000000E+00 0.  1.
          2    1    1    2  501    0  0.10813965973E+03  0.47820287555E+02 -0.40637736029E+03  0.42322987237E+03  0.00000000000E+00 0.  1.
          1    1    1    2  502    0 -0.97108511969E+02 -0.41895420579E+02 -0.61260154006E+03  0.62166384506E+03  0.00000000000E+00 0.  1.
         22    1    1    2    0    0  0.14192271570E+02 -0.33108313074E+01 -0.40480798294E+02  0.43024146787E+02  0.00000000000E+00 0. -1.
         22    1    1    2    0    0 -0.25223419335E+02 -0.26140356689E+01  0.81131048877E+02  0.85001771495E+02  0.00000000000E+00 0.  1.
</event>
<event>
 6    1  0.2809573E-005  0.3240276E+03  0.7818608E-02  0.1188072E+00
          2   -1    0    0  502    0  0.00000000000E+00  0.00000000000E+00  0.10352347662E+03  0.10352347662E+03  0.00000000000E+00 0.  1.
          1   -1    0    0  501    0 -0.00000000000E+00 -0.00000000000E+00 -0.40271187701E+04  0.40271187701E+04  0.00000000000E+00 0. -1.
          2    1    1    2  501    0 -0.11223371176E+02  0.37881380509E+02 -0.30953303551E+02  0.50190338219E+02  0.00000000000E+00 0.  1.
          1    1    1    2  502    0  0.22436357762E+03 -0.22781465460E+03 -0.36985708403E+04  0.37123664680E+04  0.00000000000E+00 0. -1.
         22    1    1    2    0    0 -0.20823335235E+03  0.17102787895E+03 -0.21099351533E+03  0.34224249870E+03  0.00000000000E+00 0.  1.
         22    1    1    2    0    0 -0.49068540965E+01  0.18905395145E+02  0.16922365688E+02  0.25842941845E+02  0.00000000000E+00 0.  1.
</event>
<event>
 6    1  0.2809573E-005  0.8327734E+02  0.7818608E-02  0.1386904E+00
          2   -1    0    0  502    0  0.00000000000E+00  0.00000000000E+00  0.81214540328E+02  0.81214540328E+02  0.00000000000E+00 0.  1.
          1   -1    0    0  501    0 -0.00000000000E+00 -0.00000000000E+00 -0.24941621346E+03  0.24941621346E+03  0.00000000000E+00 0.  1.
          2    1    1    2  501    0  0.21005909674E+02  0.21528714339E+02 -0.14982425594E+02  0.33603673296E+02  0.00000000000E+00 0.  1.
          1    1    1    2  502    0  0.23159896710E+02 -0.20531473104E+02 -0.16472044488E+03  0.16760294498E+03  0.00000000000E+00 0.  1.
         22    1    1    2    0    0 -0.63625687072E+02  0.17330442832E+02 -0.35842386095E+02  0.75054972821E+02  0.00000000000E+00 0.  1.
         22    1    1    2    0    0  0.19459880689E+02 -0.18327684067E+02  0.47343583436E+02  0.54369162696E+02  0.00000000000E+00 0. -1.
</event>
<event>
 6    1  0.2809573E-005  0.1762496E+03  0.7818608E-02  0.1215546E+00
          2   -1    0    0  502    0  0.00000000000E+00  0.00000000000E+00  0.69062549210E+03  0.69062549210E+03  0.00000000000E+00 0. -1.
          1   -1    0    0  501    0 -0.00000000000E+00 -0.00000000000E+00 -0.18061825738E+03  0.18061825738E+03  0.00000000000E+00 0. -1.
          2    1    1    2  501    0  0.34313044829E+02  0.14080105771E+03 -0.86284272784E+02  0.16866326994E+03  0.00000000000E+00 0. -1.
          1    1    1    2  502    0  0.57778295786E+02 -0.14499080332E+03  0.48392507078E+03  0.50847235780E+03  0.00000000000E+00 0. -1.
         22    1    1    2    0    0 -0.26643097730E+02  0.18266413787E+02 -0.25297188433E+02  0.41030041090E+02  0.00000000000E+00 0.  1.
         22    1    1    2    0    0 -0.65448242885E+02 -0.14076668171E+02  0.13766362516E+03  0.15307808065E+03  0.00000000000E+00 0. -1.
</event>
<event>
 6    1  0.2809573E-005  0.1421155E+03  0.7818608E-02  0.1212956E+00
          2   -1    0    0  502    0  0.00000000000E+00  0.00000000000E+00  0.10233891183E+04  0.10233891183E+04  0.00000000000E+00 0. -1.
          1   -1    0    0  501    0 -0.00000000000E+00 -0.00000000000E+00 -0.43256065822E+02  0.43256065822E+02  0.00000000000E+00 0. -1.
          2    1    1    2  501    0 -0.10015709379E+03  0.50313750088E+02  0.47233717678E+03  0.48545373152E+03  0.00000000000E+00 0. -1.
          1    1    1    2  502    0 -0.53229532395E+01  0.20421726944E+02 -0.17461504147E+02  0.27391328731E+02  0.00000000000E+00 0. -1.
         22    1    1    2    0    0 -0.64647269553E+01  0.22418690446E+02  0.14008681481E+03  0.14201656966E+03  0.00000000000E+00 0. -1.
         22    1    1    2    0    0  0.11194477398E+03 -0.93154167477E+02  0.38517056505E+03  0.41178355422E+03  0.00000000000E+00 0. -1.
</event>
<event>
 6    1  0.2809573E-005  0.1502471E+03  0.7818608E-02  0.1227044E+00
          2   -1    0    0  502    0  0.00000000000E+00  0.00000000000E+00  0.40869981579E+03  0.40869981579E+03  0.00000000000E+00 0. -1.
          1   -1    0    0  501    0 -0.00000000000E+00 -0.00000000000E+00 -0.18161552481E+03  0.18161552481E+03  0.00000000000E+00 0. -1.
          2    1    1    2  501    0 -0.12150161004E+03 -0.77656210183E+02 -0.92802038387E+02  0.17147987214E+03  0.00000000000E+00 0. -1.
          1    1    1    2  502    0  0.10630885275E+03  0.17033299064E+02  0.55121144398E+02  0.12095472711E+03  0.00000000000E+00 0. -1.
         22    1    1    2    0    0 -0.13026370441E+02 -0.19482076803E+02  0.41814674482E+01  0.23805930216E+02  0.00000000000E+00 0.  1.
         22    1    1    2    0    0  0.28219127725E+02  0.80104987923E+02  0.26058371752E+03  0.27407481113E+03  0.00000000000E+00 0. -1.
</event>
<event>
 6    1  0.2809573E-005  0.7104697E+02  0.7818608E-02  0.1359483E+00
          2   -1    0    0  502    0  0.00000000000E+00  0.00000000000E+00  0.14142261536E+03  0.14142261536E+03  0.00000000000E+00 0. -1.
          1   -1    0    0  501    0 -0.00000000000E+00 -0.00000000000E+00 -0.85747539382E+02  0.85747539382E+02  0.00000000000E+00 0. -1.
          2    1    1    2  501    0  0.20963252645E+02  0.16113858876E+02  0.13335836093E+02  0.29613492425E+02  0.00000000000E+00 0. -1.
          1    1    1    2  502    0  0.16742834845E+02 -0.33571325221E+02  0.49306601266E+02  0.61955607689E+02  0.00000000000E+00 0. -1.
         22    1    1    2    0    0 -0.79704416847E+02  0.17724909797E+02 -0.30851460891E+02  0.87285618125E+02  0.00000000000E+00 0. -1.
         22    1    1    2    0    0  0.41998329358E+02 -0.26744345125E+00  0.23884099505E+02  0.48315436499E+02  0.00000000000E+00 0. -1.
</event>
<event>
 6    1  0.2809573E-005  0.1259468E+03  0.7818608E-02  0.1295193E+00
          2   -1    0    0  502    0  0.00000000000E+00  0.00000000000E+00  0.46028073546E+03  0.46028073546E+03  0.00000000000E+00 0. -1.
          1   -1    0    0  501    0 -0.00000000000E+00 -0.00000000000E+00 -0.54663778241E+02  0.54663778241E+02  0.00000000000E+00 0.  1.
          2    1    1    2  501    0  0.11382535984E+02 -0.25680920295E+02  0.22751860698E+03  0.22924613043E+03  0.00000000000E+00 0. -1.
          1    1    1    2  502    0  0.46390114298E+01  0.27893633183E+02 -0.31669239056E+02  0.42456046702E+02  0.00000000000E+00 0.  1.
         22    1    1    2    0    0  0.35882105874E+02  0.74257352567E+01  0.17777879123E+03  0.18151574499E+03  0.00000000000E+00 0.  1.
         22    1    1    2    0    0 -0.51903653287E+02 -0.96384481448E+01  0.31988798056E+02  0.61726591582E+02  0.00000000000E+00 0.  1.
</event>
<event>
 6    1  0.2809573E-005  0.8126742E+02  0.7818608E-02  0.1370902E+00
          2   -1    0    0  502    0  0.00000000000E+00  0.00000000000E+00  0.61704795987E+02  0.61704795987E+02  0.00000000000E+00 0.  1.
          1   -1    0    0  501    0 -0.00000000000E+00 -0.00000000000E+00 -0.40082728254E+03  0.40082728254E+03  0.00000000000E+00 0.  1.
          2    1    1    2  501    0 -0.23880945506E+02 -0.52261097663E+01 -0.98710053363E+02  0.10169211580E+03  0.00000000000E+00 0.  1.
          1    1    1    2  502    0 -0.94283931316E+01  0.22129364947E+02 -0.23286563582E+03  0.23410469397E+03  0.00000000000E+00 0.  1.
         22    1    1    2    0    0  0.16714485279E+02 -0.49642303839E+02 -0.48748650502E+02  0.71555316185E+02  0.00000000000E+00 0.  1.
         22    1    1    2    0    0  0.16594853358E+02  0.32739048658E+02  0.41201853130E+02  0.55179952577E+02  0.00000000000E+00 0. -1.
</event>
<event>
 6    1  0.2809573E-005  0.2991043E+03  0.7818608E-02  0.1145354E+00
          2   -1    0    0  502    0  0.00000000000E+00  0.00000000000E+00  0.42619995451E+02  0.42619995451E+02  0.00000000000E+00 0.  1.
          1   -1    0    0  501    0 -0.00000000000E+00 -0.00000000000E+00 -0.98173378331E+03  0.98173378331E+03  0.00000000000E+00 0.  1.
          2    1    1    2  501    0 -0.21897031880E+02 -0.69963746696E+02 -0.67991067781E+03  0.68385154504E+03  0.00000000000E+00 0.  1.
          1    1    1    2  502    0  0.22159063362E+02 -0.34173213501E+01 -0.17467635633E+03  0.17610943086E+03  0.00000000000E+00 0.  1.
         22    1    1    2    0    0 -0.19289078374E+02  0.10372297371E+02  0.27077349832E+02  0.34825794624E+02  0.00000000000E+00 0.  1.
         22    1    1    2    0    0  0.19027046892E+02  0.63008770675E+02 -0.11160410355E+03  0.12956700824E+03  0.00000000000E+00 0.  1.
</event>
<event>
 6    1  0.2809573E-005  0.1314337E+03  0.7818608E-02  0.1277607E+00
          2   -1    0    0  502    0  0.00000000000E+00  0.00000000000E+00  0.83292483377E+02  0.83292483377E+02  0.00000000000E+00 0. -1.
          1   -1    0    0  501    0 -0.00000000000E+00 -0.00000000000E+00 -0.72673786176E+03  0.72673786176E+03  0.00000000000E+00 0. -1.
          2    1    1    2  501    0 -0.24108048642E+02  0.20018164205E+02 -0.13056931085E+03  0.13427684031E+03  0.00000000000E+00 0. -1.
          1    1    1    2  502    0  0.26097428069E+02 -0.66636017548E+02 -0.53162262368E+03  0.53641779295E+03  0.00000000000E+00 0. -1.
         22    1    1    2    0    0 -0.46163029339E+02 -0.42694498572E+01  0.47226743854E+02  0.66178688525E+02  0.00000000000E+00 0. -1.
         22    1    1    2    0    0  0.44173649911E+02  0.50887303200E+02 -0.28480187702E+02  0.73157023347E+02  0.00000000000E+00 0. -1.
</event>
<event>
 6    1  0.2809573E-005  0.1118731E+03  0.7818608E-02  0.1289247E+00
          2   -1    0    0  502    0  0.00000000000E+00  0.00000000000E+00  0.33296104292E+03  0.33296104292E+03  0.00000000000E+00 0. -1.
          1   -1    0    0  501    0 -0.00000000000E+00 -0.00000000000E+00 -0.59375232281E+02  0.59375232281E+02  0.00000000000E+00 0. -1.
          2    1    1    2  501    0  0.41329793799E+02 -0.17192170383E+02  0.33483666908E+01  0.44888017749E+02  0.00000000000E+00 0. -1.
          1    1    1    2  502    0  0.15107984424E+02 -0.38388519492E+02  0.14854977731E+03  0.15417187150E+03  0.00000000000E+00 0. -1.
         22    1    1    2    0    0 -0.34476848769E+01  0.65951008418E+02  0.12261955886E+03  0.13927303492E+03  0.00000000000E+00 0.  1.
         22    1    1    2    0    0 -0.52990093346E+02 -0.10370318544E+02 -0.93189221882E+00  0.54003351032E+02  0.00000000000E+00 0. -1.
</event>
<event>
 6    1  0.2809573E-005  0.2247541E+03  0.7818608E-02  0.1259631E+00
          2   -1    0    0  502    0  0.00000000000E+00  0.00000000000E+00  0.24518940123E+03  0.24518940123E+03  0.00000000000E+00 0. -1.
          1   -1    0    0  501    0 -0.00000000000E+00 -0.00000000000E+00 -0.50663104159E+03  0.50663104159E+03  0.00000000000E+00 0. -1.
          2    1    1    2  501    0 -0.37851434146E+00  0.17919455870E+03 -0.28592955735E+03  0.33744117251E+03  0.00000000000E+00 0. -1.
          1    1    1    2  502    0  0.13428525877E+02 -0.22840294305E+03  0.11080275490E+03  0.25421542084E+03  0.00000000000E+00 0. -1.
         22    1    1    2    0    0 -0.29057459535E+01  0.12810493902E+02  0.32729323636E+02  0.35266992205E+02  0.00000000000E+00 0.  1.
         22    1    1    2    0    0 -0.10144265582E+02  0.36397890446E+02 -0.11904416155E+03  0.12489685726E+03  0.00000000000E+00 0.  1.
</event>
<event>
 6    1  0.2809573E-005  0.1682236E+03  0.7818608E-02  0.1252259E+00
          2   -1    0    0  502    0  0.00000000000E+00  0.00000000000E+00  0.25443258535E+03  0.25443258535E+03  0.00000000000E+00 0.  1.
          1   -1    0    0  501    0 -0.00000000000E+00 -0.00000000000E+00 -0.10411725670E+03  0.10411725670E+03  0.00000000000E+00 0. -1.
          2    1    1    2  501    0  0.16846403957E+02  0.32567555328E+02  0.60661465554E+01  0.37165106220E+02  0.00000000000E+00 0.  1.
          1    1    1    2  502    0  0.73478917274E+02  0.25804298972E+02 -0.25725806629E+02  0.82017255842E+02  0.00000000000E+00 0. -1.
         22    1    1    2    0    0 -0.90525962651E+02 -0.94617999024E+02  0.14483687380E+03  0.19525684537E+03  0.00000000000E+00 0. -1.
         22    1    1    2    0    0  0.20064141991E+00  0.36246144724E+02  0.25138114929E+02  0.44110634619E+02  0.00000000000E+00 0.  1.
</event>
<event>
 6    1  0.2809573E-005  0.2308918E+03  0.7818608E-02  0.1178335E+00
          2   -1    0    0  502    0  0.00000000000E+00  0.00000000000E+00  0.76509184191E+03  0.76509184191E+03  0.00000000000E+00 0.  1.
          1   -1    0    0  501    0 -0.00000000000E+00 -0.00000000000E+00 -0.15377709647E+03  0.15377709647E+03  0.00000000000E+00 0.  1.
          2    1    1    2  501    0  0.60517806761E+02 -0.23164529387E+03  0.28475546030E+03  0.37203174499E+03  0.00000000000E+00 0.  1.
          1    1    1    2  502    0 -0.32418935806E+02  0.21063987981E+03  0.19985659268E+02  0.21405506988E+03  0.00000000000E+00 0.  1.
         22    1    1    2    0    0  0.14854459553E+02 -0.30559132437E+02  0.22178441385E+02  0.40575840178E+02  0.00000000000E+00 0. -1.
         22    1    1    2    0    0 -0.42953330508E+02  0.51564546499E+02  0.28439518449E+03  0.29220628333E+03  0.00000000000E+00 0.  1.
</event>
<event>
 6    1  0.2809573E-005  0.1710966E+03  0.7818608E-02  0.1291614E+00
          2   -1    0    0  502    0  0.00000000000E+00  0.00000000000E+00  0.15544056069E+03  0.15544056069E+03  0.00000000000E+00 0. -1.
          1   -1    0    0  501    0 -0.00000000000E+00 -0.00000000000E+00 -0.49537843796E+03  0.49537843796E+03  0.00000000000E+00 0. -1.
          2    1    1    2  501    0 -0.94653521862E+01  0.17737700265E+02  0.35247448260E+02  0.40578337959E+02  0.00000000000E+00 0. -1.
          1    1    1    2  502    0  0.10768329792E+03  0.67938757807E+02 -0.40996784668E+03  0.42928429132E+03  0.00000000000E+00 0. -1.
         22    1    1    2    0    0 -0.84495710787E+02 -0.94153272575E+02 -0.16146192244E+02  0.12753455768E+03  0.00000000000E+00 0. -1.
         22    1    1    2    0    0 -0.13722234948E+02  0.84768145025E+01  0.50928713394E+02  0.53421811688E+02  0.00000000000E+00 0. -1.
</event>
<event>
 6    1  0.2809573E-005  0.7961622E+02  0.7818608E-02  0.1347750E+00
          2   -1    0    0  502    0  0.00000000000E+00  0.00000000000E+00  0.40520037478E+03  0.40520037478E+03  0.00000000000E+00 0. -1.
          1   -1    0    0  501    0 -0.00000000000E+00 -0.00000000000E+00 -0.65307481757E+02  0.65307481757E+02  0.00000000000E+00 0. -1.
          2    1    1    2  501    0 -0.36960121286E+02  0.47946683982E+02  0.10320652869E+02  0.61412140054E+02  0.00000000000E+00 0. -1.
          1    1    1    2  502    0  0.51282220484E+02 -0.29635844684E+02  0.32373688026E+01  0.59318040971E+02  0.00000000000E+00 0. -1.
         22    1    1    2    0    0 -0.34749052378E+00 -0.58654981004E+02  0.28273021214E+03  0.28875058511E+03  0.00000000000E+00 0. -1.
         22    1    1    2    0    0 -0.13974608675E+02  0.40344141705E+02  0.43604659210E+02  0.61027090397E+02  0.00000000000E+00 0. -1.
</event>
<event>
 6    1  0.2809573E-005  0.1412981E+03  0.7818608E-02  0.1299679E+00
          2   -1    0    0  502    0  0.00000000000E+00  0.00000000000E+00  0.10408430616E+03  0.10408430616E+03  0.00000000000E+00 0.  1.
          1   -1    0    0  501    0 -0.00000000000E+00 -0.00000000000E+00 -0.61545800107E+03  0.61545800107E+03  0.00000000000E+00 0.  1.
          2    1    1    2  501    0  0.58326501182E+02  0.11055586110E+03 -0.34220911969E+03  0.36432356603E+03  0.00000000000E+00 0.  1.
          1    1    1    2  502    0 -0.43484441694E+02 -0.98956405564E+02 -0.19917268226E+03  0.22661205667E+03  0.00000000000E+00 0.  1.
         22    1    1    2    0    0 -0.20514845169E+02  0.12394654814E+02 -0.44270776681E+02  0.50342705611E+02  0.00000000000E+00 0. -1.
         22    1    1    2    0    0  0.56727856801E+01 -0.23994110354E+02  0.74278883717E+02  0.78263978913E+02  0.00000000000E+00 0.  1.
</event>
<event>
 6    1  0.2809573E-005  0.1863327E+03  0.7818608E-02  0.1165395E+00
          2   -1    0    0  502    0  0.00000000000E+00  0.00000000000E+00  0.11613845550E+04  0.11613845550E+04  0.00000000000E+00 0. -1.
          1   -1    0    0  501    0 -0.00000000000E+00 -0.00000000000E+00 -0.58633546023E+02  0.58633546023E+02  0.00000000000E+00 0. -1.
          2    1    1    2  501    0 -0.10950391176E+03 -0.59349730887E+02  0.94745332169E+02  0.15649337115E+03  0.00000000000E+00 0. -1.
          1    1    1    2  502    0  0.33298925843E+02 -0.10986633880E+03  0.31888550044E+03  0.33892092478E+03  0.00000000000E+00 0. -1.
         22    1    1    2    0    0 -0.29452302202E+02  0.99253637113E+01  0.68643874428E+02  0.75352056682E+02  0.00000000000E+00 0.  1.
         22    1    1    2    0    0  0.10565728811E+03  0.15929070598E+03  0.62047630193E+03  0.64925174840E+03  0.00000000000E+00 0. -1.
</event>
<event>
 6    1  0.2809573E-005  0.7633724E+02  0.7818608E-02  0.1372554E+00
          2   -1    0    0  502    0  0.00000000000E+00  0.00000000000E+00  0.14832913027E+03  0.14832913027E+03  0.00000000000E+00 0.  1.
          1   -1    0    0  501    0 -0.00000000000E+00 -0.00000000000E+00 -0.32713398009E+03  0.32713398009E+03  0.00000000000E+00 0.  1.
          2    1    1    2  501    0  0.54697334016E+02  0.40093040866E+02 -0.24890736584E+03  0.25798086565E+03  0.00000000000E+00 0.  1.
          1    1    1    2  502    0 -0.56261161046E+02 -0.76546169695E+01 -0.17845653973E+02  0.59517886126E+02  0.00000000000E+00 0.  1.
         22    1    1    2    0    0 -0.71152714878E+01 -0.43280993664E+02  0.11744129264E+03  0.12536478260E+03  0.00000000000E+00 0.  1.
         22    1    1    2    0    0  0.86790985173E+01  0.10842569768E+02 -0.29493122647E+02  0.32599575975E+02  0.00000000000E+00 0. -1.
</event>
<event>
 6    1  0.2809573E-005  0.1101740E+03  0.7818608E-02  0.1261743E+00
          2   -1    0    0  502    0  0.00000000000E+00  0.00000000000E+00  0.22124988139E+03  0.22124988139E+03  0.00000000000E+00 0. -1.
          1   -1    0    0  501    0 -0.00000000000E+00 -0.00000000000E+00 -0.42641467151E+03  0.42641467151E+03  0.00000000000E+00 0. -1.
          2    1    1    2  501    0  0.13422498933E+03 -0.56272272929E+02 -0.24477783756E+03  0.28477904807E+03  0.00000000000E+00 0. -1.
          1    1    1    2  502    0 -0.44942530822E+02  0.76039353589E+02 -0.11413335596E+03  0.14431991309E+03  0.00000000000E+00 0. -1.
         22    1    1    2    0    0 -0.10347185259E+03 -0.20029699299E+02  0.16808324638E+03  0.19839251712E+03  0.00000000000E+00 0. -1.
         22    1    1    2    0    0  0.14189394086E+02  0.26261863842E+00 -0.14336842977E+02  0.20173074620E+02  0.00000000000E+00 0.  1.
</event>
<event>
 6    1  0.2809573E-005  0.1050315E+03  0.7818608E-02  0.1371522E+00
          2   -1    0    0  502    0  0.00000000000E+00  0.00000000000E+00  0.17499031126E+02  0.17499031126E+02  0.00000000000E+00 0. -1.
          1   -1    0    0  501    0 -0.00000000000E+00 -0.00000000000E+00 -0.11901239736E+04  0.11901239736E+04  0.00000000000E+00 0. -1.
          2    1    1    2  501    0 -0.14347635367E+02 -0.17784569436E+02 -0.17647913493E+03  0.17795232680E+03  0.00000000000E+00 0. -1.
          1    1    1    2  502    0  0.13898933083E+02 -0.68205172610E+02 -0.61344054349E+03  0.61737705360E+03  0.00000000000E+00 0. -1.
         22    1    1    2    0    0  0.13047091248E+02  0.74383854736E+02 -0.38727147606E+03  0.39456606621E+03  0.00000000000E+00 0. -1.
         22    1    1    2    0    0 -0.12598388964E+02  0.11605887310E+02  0.45662119990E+01  0.17727558117E+02  0.00000000000E+00 0. -1.
</event>
<event>
 6    1  0.2809573E-005  0.9798140E+02  0.7818608E-02  0.1323733E+00
          2   -1    0    0  502    0  0.00000000000E+00  0.00000000000E+00  0.21807633833E+03  0.21807633833E+03  0.00000000000E+00 0.  1.
          1   -1    0    0  501    0 -0.00000000000E+00 -0.00000000000E+00 -0.87739442713E+03  0.87739442713E+03  0.00000000000E+00 0. -1.
          2    1    1    2  501    0  0.51148351131E+02 -0.39547121743E+02  0.54908272248E+01  0.64886653829E+02  0.00000000000E+00 0.  1.
          1    1    1    2  502    0  0.67640581971E+01  0.34730379286E+02 -0.82256405498E+03  0.82332470889E+03  0.00000000000E+00 0. -1.
         22    1    1    2    0    0 -0.35386519313E+02 -0.35401849207E+02  0.81508609171E+01  0.50714230844E+02  0.00000000000E+00 0.  1.
         22    1    1    2    0    0 -0.22525890014E+02  0.40218591664E+02  0.14960427804E+03  0.15654517190E+03  0.00000000000E+00 0. -1.
</event>
<event>
 6    1  0.2809573E-005  0.9791662E+02  0.7818608E-02  0.1358946E+00
          2   -1    0    0  502    0  0.00000000000E+00  0.00000000000E+00  0.14834506294E+03  0.14834506294E+03  0.00000000000E+00 0. -1.
          1   -1    0    0  501    0 -0.00000000000E+00 -0.00000000000E+00 -0.21920820723E+03  0.21920820723E+03  0.00000000000E+00 0. -1.
          2    1    1    2  501    0  0.98080230645E+01  0.40870872296E+02  0.13031685787E+02  0.44005117352E+02  0.00000000000E+00 0. -1.
          1    1    1    2  502    0  0.69181197193E+01 -0.75850681777E+02 -0.15580751638E+03  0.17342770386E+03  0.00000000000E+00 0. -1.
         22    1    1    2    0    0  0.24110206402E+02  0.99262467173E+01  0.93866686387E+02  0.97420671522E+02  0.00000000000E+00 0. -1.
         22    1    1    2    0    0 -0.40836349186E+02  0.25053562764E+02 -0.21954000085E+02  0.52699777435E+02  0.00000000000E+00 0. -1.
</event>
<event>
 6    1  0.2809573E-005  0.2196137E+03  0.7818608E-02  0.1171559E+00
          2   -1    0    0  502    0  0.00000000000E+00  0.00000000000E+00  0.40363282712E+03  0.40363282712E+03  0.00000000000E+00 0. -1.
          1   -1    0    0  501    0 -0.00000000000E+00 -0.00000000000E+00 -0.35506994640E+03  0.35506994640E+03  0.00000000000E+00 0. -1.
          2    1    1    2  501    0 -0.24019282235E+03 -0.59907213947E+02  0.73246270541E+02  0.25815980001E+03  0.00000000000E+00 0. -1.
          1    1    1    2  502    0  0.19353078610E+03  0.12613552269E+02 -0.19801530618E+03  0.27717021548E+03  0.00000000000E+00 0. -1.
         22    1    1    2    0    0  0.85539096230E+02  0.30888913879E+02  0.14928362747E+03  0.17480464357E+03  0.00000000000E+00 0. -1.
         22    1    1    2    0    0 -0.38877059971E+02  0.16404747799E+02  0.24048288894E+02  0.48568114449E+02  0.00000000000E+00 0.  1.
</event>
<event>
 6    1  0.2809573E-005  0.8367724E+02  0.7818608E-02  0.1345540E+00
          2   -1    0    0  502    0  0.00000000000E+00  0.00000000000E+00  0.38532780488E+03  0.38532780488E+03  0.00000000000E+00 0.  1.
          1   -1    0    0  501    0 -0.00000000000E+00 -0.00000000000E+00 -0.32525771029E+02  0.32525771029E+02  0.00000000000E+00 0.  1.
          2    1    1    2  501    0 -0.28451108366E+02  0.18900426125E+02  0.10676493682E+02  0.35786578382E+02  0.00000000000E+00 0.  1.
          1    1    1    2  502    0  0.24245459542E+02 -0.70571946220E+01  0.13685858999E+02  0.28721926134E+02  0.00000000000E+00 0.  1.
         22    1    1    2    0    0  0.41561033226E+02  0.29375172713E+02  0.26103762938E+03  0.26595274807E+03  0.00000000000E+00 0.  1.
         22    1    1    2    0    0 -0.37355384402E+02 -0.41218404216E+02  0.67402051793E+02  0.87392323323E+02  0.00000000000E+00 0.  1.
</event>
<event>
 6    1  0.2809573E-005  0.1312504E+03  0.7818608E-02  0.1267231E+00
          2   -1    0    0  502    0  0.00000000000E+00  0.00000000000E+00  0.33500282763E+03  0.33500282763E+03  0.00000000000E+00 0. -1.
          1   -1    0    0  501    0 -0.00000000000E+00 -0.00000000000E+00 -0.73524732054E+03  0.73524732054E+03  0.00000000000E+00 0. -1.
          2    1    1    2  501    0  0.37300184429E+02  0.51619173101E+02  0.22191818954E+02  0.67441230850E+02  0.00000000000E+00 0. -1.
          1    1    1    2  502    0  0.10258239702E+02 -0.12888343603E+03 -0.68642013403E+03  0.69849035209E+03  0.00000000000E+00 0. -1.
         22    1    1    2    0    0 -0.24181320418E+01  0.42698331988E+02  0.98284018835E+01  0.43881572450E+02  0.00000000000E+00 0. -1.
         22    1    1    2    0    0 -0.45140292089E+02  0.34565930946E+02  0.25415542027E+03  0.26043699278E+03  0.00000000000E+00 0. -1.
</event>
<event>
 6    1  0.2809573E-005  0.6539552E+02  0.7818608E-02  0.1380870E+00
          2   -1    0    0  502    0  0.00000000000E+00  0.00000000000E+00  0.22066944022E+02  0.22066944022E+02  0.00000000000E+00 0.  1.
          1   -1    0    0  501    0 -0.00000000000E+00 -0.00000000000E+00 -0.11156300013E+04  0.11156300013E+04  0.00000000000E+00 0. -1.
          2    1    1    2  501    0  0.10027279605E+01  0.27304680924E+02 -0.57401196979E+02  0.63572387703E+02  0.00000000000E+00 0.  1.
          1    1    1    2  502    0  0.31871768483E+01 -0.38003329639E+02 -0.85476275217E+03  0.85561309811E+03  0.00000000000E+00 0. -1.
         22    1    1    2    0    0  0.28803005511E+02 -0.44109760675E+02 -0.51287324743E+02  0.73523287416E+02  0.00000000000E+00 0.  1.
         22    1    1    2    0    0 -0.32992910320E+02  0.54808409390E+02 -0.13011178341E+03  0.14498817211E+03  0.00000000000E+00 0.  1.
</event>
<event>
 6    1  0.2809573E-005  0.6935858E+02  0.7818608E-02  0.1372199E+00
          2   -1    0    0  502    0  0.00000000000E+00  0.00000000000E+00  0.16613694243E+02  0.16613694243E+02  0.00000000000E+00 0. -1.
          1   -1    0    0  501    0 -0.00000000000E+00 -0.00000000000E+00 -0.11461465529E+04  0.11461465529E+04  0.00000000000E+00 0. -1.
          2    1    1    2  501    0 -0.28468071013E+02 -0.24942424444E+02 -0.32058967251E+03  0.32281619186E+03  0.00000000000E+00 0. -1.
          1    1    1    2  502    0  0.34019295257E+02 -0.10705848776E+02 -0.52663760809E+03  0.52784381962E+03  0.00000000000E+00 0. -1.
         22    1    1    2    0    0  0.42121435762E+02  0.38170411469E+02 -0.52467379432E+02  0.77356457823E+02  0.00000000000E+00 0. -1.
         22    1    1    2    0    0 -0.47672660005E+02 -0.25221382491E+01 -0.22983819862E+03  0.23474377785E+03  0.00000000000E+00 0. -1.
</event>
<event>
 6    1  0.2809573E-005  0.4442656E+03  0.7818608E-02  0.1165539E+00
          2   -1    0    0  502    0  0.00000000000E+00  0.00000000000E+00  0.76177075942E+03  0.76177075942E+03  0.00000000000E+00 0. -1.
          1   -1    0    0  501    0 -0.00000000000E+00 -0.00000000000E+00 -0.47354368300E+03  0.47354368300E+03  0.00000000000E+00 0. -1.
          2    1    1    2  501    0  0.13866829236E+02  0.78329869268E+02 -0.24572458088E+02  0.83256609762E+02  0.00000000000E+00 0. -1.
          1    1    1    2  502    0 -0.23737210074E+03 -0.17429253124E+03 -0.33698781957E+03  0.44753121813E+03  0.00000000000E+00 0. -1.
         22    1    1    2    0    0 -0.76872948853E+01 -0.99983105841E+01  0.74117863773E+02  0.75183232489E+02  0.00000000000E+00 0.  1.
         22    1    1    2    0    0  0.23119256639E+03  0.10596097256E+03  0.57566949030E+03  0.62934338204E+03  0.00000000000E+00 0. -1.
</event>
<event>
 6    1  0.2809573E-005  0.1053300E+03  0.7818608E-02  0.1270047E+00
          2   -1    0    0  502    0  0.00000000000E+00  0.00000000000E+00  0.69004282952E+03  0.69004282952E+03  0.00000000000E+00 0.  1.
          1   -1    0    0  501    0 -0.00000000000E+00 -0.00000000000E+00 -0.10661994038E+04  0.10661994038E+04  0.00000000000E+00 0. -1.
          2    1    1    2  501    0  0.55614982049E+01 -0.49511040210E+02  0.10137770400E+03  0.11295889621E+03  0.00000000000E+00 0.  1.
          1    1    1    2  502    0 -0.67140986879E+02 -0.77178434364E+02 -0.10427083776E+04  0.10477142662E+04  0.00000000000E+00 0. -1.
         22    1    1    2    0    0  0.56443820388E+02  0.15189872751E+03  0.48252276369E+03  0.50900623352E+03  0.00000000000E+00 0.  1.
         22    1    1    2    0    0  0.51356682863E+01 -0.25209252938E+02  0.82651335674E+02  0.86562837356E+02  0.00000000000E+00 0.  1.
</event>
<event>
 6    1  0.2809573E-005  0.9393317E+02  0.7818608E-02  0.1331871E+00
          2   -1    0    0  502    0  0.00000000000E+00  0.00000000000E+00  0.11591907945E+03  0.11591907945E+03  0.00000000000E+00 0. -1.
          1   -1    0    0  501    0 -0.00000000000E+00 -0.00000000000E+00 -0.31243721509E+03  0.31243721509E+03  0.00000000000E+00 0. -1.
          2    1    1    2  501    0 -0.13495144889E+02 -0.57065304680E+02 -0.29035530974E+02  0.65434165332E+02  0.00000000000E+00 0. -1.
          1    1    1    2  502    0  0.66951768712E+02  0.56575806914E+02 -0.20122573343E+03  0.21948839845E+03  0.00000000000E+00 0. -1.
         22    1    1    2    0    0 -0.32664033817E+02 -0.41694911116E+02 -0.32538158315E+02  0.62162178732E+02  0.00000000000E+00 0.  1.
         22    1    1    2    0    0 -0.20792590006E+02  0.42184408882E+02  0.66281287073E+02  0.81271552021E+02  0.00000000000E+00 0. -1.
</event>
<event>
 6    1  0.2809573E-005  0.7929727E+02  0.7818608E-02  0.1431050E+00
          2   -1    0    0  502    0  0.00000000000E+00  0.00000000000E+00  0.43201365912E+02  0.43201365912E+02  0.00000000000E+00 0.  1.
          1   -1    0    0  501    0 -0.00000000000E+00 -0.00000000000E+00 -0.14369758786E+04  0.14369758786E+04  0.00000000000E+00 0. -1.
          2    1    1    2  501    0  0.43449796218E+02  0.38434774091E+00 -0.38128348404E+03  0.38375138790E+03  0.00000000000E+00 0.  1.
          1    1    1    2  502    0 -0.78121138268E+02 -0.13197170205E+02 -0.95231974799E+03  0.95560974250E+03  0.00000000000E+00 0. -1.
         22    1    1    2    0    0  0.10148360721E+02  0.11752635426E+02  0.37246463670E+02  0.40353596131E+02  0.00000000000E+00 0.  1.
         22    1    1    2    0    0  0.24522981329E+02  0.10601870378E+01 -0.97417744371E+02  0.10046251803E+03  0.00000000000E+00 0.  1.
</event>
<event>
 6    1  0.2809573E-005  0.6464084E+02  0.7818608E-02  0.1389839E+00
          2   -1    0    0  502    0  0.00000000000E+00  0.00000000000E+00  0.11621381709E+03  0.11621381709E+03  0.00000000000E+00 0.  1.
          1   -1    0    0  501    0 -0.00000000000E+00 -0.00000000000E+00 -0.28073890469E+03  0.28073890469E+03  0.00000000000E+00 0.  1.
          2    1    1    2  501    0 -0.17019159409E+02 -0.17713799613E+02 -0.46988061159E+02  0.53021772652E+02  0.00000000000E+00 0.  1.
          1    1    1    2  502    0  0.19647382978E+02  0.94342077488E+02 -0.16328003512E+03  0.18959645859E+03  0.00000000000E+00 0.  1.
         22    1    1    2    0    0 -0.21661137423E+02 -0.88647121171E+01 -0.38192253779E+02  0.44793261146E+02  0.00000000000E+00 0. -1.
         22    1    1    2    0    0  0.19032913855E+02 -0.67763565757E+02  0.83935262452E+02  0.10954122939E+03  0.00000000000E+00 0.  1.
</event>
<event>
 6    1  0.2809573E-005  0.1730774E+03  0.7818608E-02  0.1243547E+00
          2   -1    0    0  502    0  0.00000000000E+00  0.00000000000E+00  0.29915467473E+02  0.29915467473E+02  0.00000000000E+00 0.  1.
          1   -1    0    0  501    0 -0.00000000000E+00 -0.00000000000E+00 -0.60746455371E+03  0.60746455371E+03  0.00000000000E+00 0.  1.
          2    1    1    2  501    0  0.22682461658E+02  0.39789999890E+02 -0.24561502730E+03  0.24984891394E+03  0.00000000000E+00 0.  1.
          1    1    1    2  502    0 -0.68814488644E+01  0.33505827510E+02 -0.16066912746E+03  0.16426978826E+03  0.00000000000E+00 0.  1.
         22    1    1    2    0    0 -0.49949467280E+02 -0.91164185380E+02 -0.13458620899E+03  0.17005677178E+03  0.00000000000E+00 0.  1.
         22    1    1    2    0    0  0.34148454486E+02  0.17868357980E+02 -0.36678722485E+02  0.53204547209E+02  0.00000000000E+00 0.  1.
</event>
<event>
 6    1  0.2809573E-005  0.1317978E+03  0.7818608E-02  0.1226901E+00
          2   -1    0    0  502    0  0.00000000000E+00  0.00000000000E+00  0.68238147092E+03  0.68238147092E+03  0.00000000000E+00 0.  1.
          1   -1    0    0  501    0 -0.00000000000E+00 -0.00000000000E+00 -0.56339375011E+02  0.56339375011E+02  0.00000000000E+00 0. -1.
          2    1    1    2  501    0  0.98097116722E+02 -0.42896770265E+02  0.45907838186E+03  0.47139806735E+03  0.00000000000E+00 0.  1.
          1    1    1    2  502    0 -0.11126379601E+02  0.52397558129E+02  0.17214601804E+02  0.56264046568E+02  0.00000000000E+00 0. -1.
         22    1    1    2    0    0  0.26781512926E+02 -0.15476620796E+01  0.60747268393E+02  0.66406892035E+02  0.00000000000E+00 0. -1.
         22    1    1    2    0    0 -0.11375225005E+03 -0.79531257844E+01  0.89001843849E+02  0.14465183998E+03  0.00000000000E+00 0.  1.
</event>
<event>
 6    1  0.2809573E-005  0.4066703E+02  0.7818608E-02  0.1599012E+00
          2   -1    0    0  502    0  0.00000000000E+00  0.00000000000E+00  0.92245324303E+02  0.92245324303E+02  0.00000000000E+00 0. -1.
          1   -1    0    0  501    0 -0.00000000000E+00 -0.00000000000E+00 -0.21779107868E+03  0.21779107868E+03  0.00000000000E+00 0. -1.
          2    1    1    2  501    0  0.30980346973E+02 -0.42753510870E+01 -0.14825050654E+03  0.15151327736E+03  0.00000000000E+00 0. -1.
          1    1    1    2  502    0 -0.25628857581E+02  0.33865537928E+00  0.10994014286E+02  0.27889449233E+02  0.00000000000E+00 0. -1.
         22    1    1    2    0    0 -0.10981745488E+02 -0.46103866594E+01  0.70226632441E+02  0.71229448286E+02  0.00000000000E+00 0. -1.
         22    1    1    2    0    0  0.56302560960E+01  0.85470823670E+01 -0.58515894558E+02  0.59404228104E+02  0.00000000000E+00 0.  1.
</event>
<event>
 6    1  0.2809573E-005  0.8696541E+02  0.7818608E-02  0.1316588E+00
          2   -1    0    0  502    0  0.00000000000E+00  0.00000000000E+00  0.32011751639E+03  0.32011751639E+03  0.00000000000E+00 0. -1.
          1   -1    0    0  501    0 -0.00000000000E+00 -0.00000000000E+00 -0.95452767872E+02  0.95452767872E+02  0.00000000000E+00 0.  1.
          2    1    1    2  501    0 -0.10047176995E+02  0.23432416195E+02  0.12189561054E+02  0.28259676095E+02  0.00000000000E+00 0. -1.
          1    1    1    2  502    0 -0.57788284065E+02  0.79943270093E+01 -0.55563382413E+02  0.80564784520E+02  0.00000000000E+00 0.  1.
         22    1    1    2    0    0  0.29233747673E+02  0.46062422816E+02  0.58311547846E+02  0.79853587339E+02  0.00000000000E+00 0.  1.
         22    1    1    2    0    0  0.38601713387E+02 -0.77489166020E+02  0.20972702203E+03  0.22689223631E+03  0.00000000000E+00 0. -1.
</event>
<event>
 6    1  0.2809573E-005  0.3807012E+03  0.7818608E-02  0.1165463E+00
          2   -1    0    0  502    0  0.00000000000E+00  0.00000000000E+00  0.11527270557E+04  0.11527270557E+04  0.00000000000E+00 0.  1.
          1   -1    0    0  501    0 -0.00000000000E+00 -0.00000000000E+00 -0.12140923607E+03  0.12140923607E+03  0.00000000000E+00 0.  1.
          2    1    1    2  501    0 -0.74304171961E+02  0.28532475591E+02  0.90834895986E+02  0.12077330195E+03  0.00000000000E+00 0.  1.
          1    1    1    2  502    0  0.94979711969E+02 -0.31841983616E+03  0.34613290445E+03  0.47981280234E+03  0.00000000000E+00 0.  1.
         22    1    1    2    0    0 -0.15501186679E+01  0.29599792760E+03  0.56709380990E+03  0.63969724498E+03  0.00000000000E+00 0.  1.
         22    1    1    2    0    0 -0.19125421341E+02 -0.61105670255E+01  0.27256209306E+02  0.33852942510E+02  0.00000000000E+00 0. -1.
</event>
<event>
 6    1  0.2809573E-005  0.1314214E+03  0.7818608E-02  0.1296277E+00
          2   -1    0    0  502    0  0.00000000000E+00  0.00000000000E+00  0.66275767565E+02  0.66275767565E+02  0.00000000000E+00 0.  1.
          1   -1    0    0  501    0 -0.00000000000E+00 -0.00000000000E+00 -0.33881227326E+03  0.33881227326E+03  0.00000000000E+00 0.  1.
          2    1    1    2  501    0  0.13129971810E+02 -0.11432265303E+03 -0.10569452485E+03  0.15624787275E+03  0.00000000000E+00 0.  1.
          1    1    1    2  502    0 -0.12500020097E+02  0.22780702635E+02 -0.24389732473E+02  0.35638040983E+02  0.00000000000E+00 0.  1.
         22    1    1    2    0    0 -0.23893384172E+02 -0.22225590846E+02 -0.67549465007E+02  0.75018670466E+02  0.00000000000E+00 0.  1.
         22    1    1    2    0    0  0.23263432460E+02  0.11376754124E+03 -0.74902783365E+02  0.13818345663E+03  0.00000000000E+00 0.  1.
</event>
<event>
 6    1  0.2809573E-005  0.8516113E+02  0.7818608E-02  0.1317905E+00
          2   -1    0    0  502    0  0.00000000000E+00  0.00000000000E+00  0.22278178550E+03  0.22278178550E+03  0.00000000000E+00 0.  1.
          1   -1    0    0  501    0 -0.00000000000E+00 -0.00000000000E+00 -0.16534411810E+04  0.16534411810E+04  0.00000000000E+00 0. -1.
          2    1    1    2  501    0  0.28356941965E+02 -0.35011170375E+02  0.43026119407E+02  0.62298837548E+02  0.00000000000E+00 0.  1.
          1    1    1    2  502    0  0.12023366286E+02  0.45805615825E+02 -0.16195363328E+04  0.16202285793E+04  0.00000000000E+00 0. -1.
         22    1    1    2    0    0 -0.60513188044E+02  0.36471475826E+02  0.55844540130E+02  0.90059020306E+02  0.00000000000E+00 0.  1.
         22    1    1    2    0    0  0.20132879793E+02 -0.47265921276E+02  0.90006277826E+02  0.10363652933E+03  0.00000000000E+00 0. -1.
</event>
<event>
 6    1  0.2809573E-005  0.6801690E+02  0.7818608E-02  0.1380801E+00
          2   -1    0    0  502    0  0.00000000000E+00  0.00000000000E+00  0.98794718369E+02  0.98794718369E+02  0.00000000000E+00 0.  1.
          1   -1    0    0  501    0 -0.00000000000E+00 -0.00000000000E+00 -0.16832967878E+03  0.16832967878E+03  0.00000000000E+00 0.  1.
          2    1    1    2  501    0  0.29708234630E+02 -0.15030822952E+02 -0.81686178932E+02  0.88210751453E+02  0.00000000000E+00 0.  1.
          1    1    1    2  502    0 -0.20811300208E+02 -0.12646712137E+00 -0.41036821080E+02  0.46012464557E+02  0.00000000000E+00 0.  1.
         22    1    1    2    0    0  0.32703297075E+02 -0.17752168461E+02 -0.20208109006E+02  0.42343981795E+02  0.00000000000E+00 0. -1.
         22    1    1    2    0    0 -0.41600231497E+02  0.32909458535E+02  0.73396148610E+02  0.90557199341E+02  0.00000000000E+00 0.  1.
</event>
<event>
 6    1  0.2809573E-005  0.2361786E+03  0.7818608E-02  0.1151766E+00
          2   -1    0    0  502    0  0.00000000000E+00  0.00000000000E+00  0.23728959703E+03  0.23728959703E+03  0.00000000000E+00 0. -1.
          1   -1    0    0  501    0 -0.00000000000E+00 -0.00000000000E+00 -0.52533497025E+03  0.52533497025E+03  0.00000000000E+00 0. -1.
          2    1    1    2  501    0 -0.33422737030E+02  0.13794140448E+03 -0.19663990443E+03  0.24251219029E+03  0.00000000000E+00 0. -1.
          1    1    1    2  502    0 -0.21800129232E+02 -0.29199289880E+03 -0.11177302354E+03  0.31341395530E+03  0.00000000000E+00 0. -1.
         22    1    1    2    0    0  0.72040316365E+02  0.90616296238E+02  0.59635304634E+02  0.13022092722E+03  0.00000000000E+00 0. -1.
         22    1    1    2    0    0 -0.16817450103E+02  0.63435198076E+02 -0.39267749875E+02  0.76477494488E+02  0.00000000000E+00 0. -1.
</event>
<event>
 6    1  0.2809573E-005  0.2403892E+03  0.7818608E-02  0.1184108E+00
          2   -1    0    0  502    0  0.00000000000E+00  0.00000000000E+00  0.46993429561E+03  0.46993429561E+03  0.00000000000E+00 0. -1.
          1   -1    0    0  501    0 -0.00000000000E+00 -0.00000000000E+00 -0.18552393504E+03  0.18552393504E+03  0.00000000000E+00 0. -1.
          2    1    1    2  501    0  0.44385866753E+02 -0.13628436653E+02 -0.25667707728E+02  0.53053469943E+02  0.00000000000E+00 0. -1.
          1    1    1    2  502    0 -0.33060659287E+02 -0.22915096877E+02 -0.13436835327E+03  0.14026034086E+03  0.00000000000E+00 0. -1.
         22    1    1    2    0    0 -0.42033985583E+02 -0.22032105740E+02  0.91715343326E+02  0.10326651843E+03  0.00000000000E+00 0. -1.
         22    1    1    2    0    0  0.30708778117E+02  0.58575639270E+02  0.35273107824E+03  0.35887790142E+03  0.00000000000E+00 0. -1.
</event>
<event>
 6    1  0.2809573E-005  0.4235216E+03  0.7818608E-02  0.1086887E+00
          2   -1    0    0  502    0  0.00000000000E+00  0.00000000000E+00  0.13462660399E+04  0.13462660399E+04  0.00000000000E+00 0.  1.
          1   -1    0    0  501    0 -0.00000000000E+00 -0.00000000000E+00 -0.16862867655E+03  0.16862867655E+03  0.00000000000E+00 0.  1.
          2    1    1    2  501    0 -0.27642183209E+02 -0.34445440022E+03  0.51224237571E+03  0.61790385627E+03  0.00000000000E+00 0.  1.
          1    1    1    2  502    0 -0.46494185948E+02  0.43068272999E+03  0.51300311827E+03  0.67143244082E+03  0.00000000000E+00 0.  1.
         22    1    1    2    0    0 -0.24335944923E+02 -0.59439844204E+02  0.60242785367E+02  0.88059789252E+02  0.00000000000E+00 0. -1.
         22    1    1    2    0    0  0.98472314079E+02 -0.26788485567E+02  0.92149083998E+02  0.13749863010E+03  0.00000000000E+00 0. -1.
</event>
<event>
 6    1  0.5729169E-005  0.3716744E+02  0.7818608E-02  0.1544977E+00
          2   -1    0    0  502    0  0.00000000000E+00  0.00000000000E+00  0.11104894377E+03  0.11104894377E+03  0.00000000000E+00 0. -1.
          1   -1    0    0  501    0 -0.00000000000E+00 -0.00000000000E+00 -0.86192741496E+03  0.86192741496E+03  0.00000000000E+00 0. -1.
          2    1    1    2  501    0  0.22839408228E+02  0.31623567216E+02 -0.27460405732E+03  0.27736091445E+03  0.00000000000E+00 0. -1.
          1    1    1    2  502    0 -0.28005611895E+01 -0.20433136331E+02 -0.55043233452E+03  0.55081858274E+03  0.00000000000E+00 0. -1.
         22    1    1    2    0    0  0.10124062237E+01  0.10894280287E+02 -0.32273967146E+02  0.34078134701E+02  0.00000000000E+00 0.  1.
         22    1    1    2    0    0 -0.21051253262E+02 -0.22084711172E+02  0.10643188780E+03  0.11071872684E+03  0.00000000000E+00 0. -1.
</event>
<event>
 6    1  0.2809573E-005  0.1730850E+03  0.7818608E-02  0.1211778E+00
          2   -1    0    0  502    0  0.00000000000E+00  0.00000000000E+00  0.29221325749E+03  0.29221325749E+03  0.00000000000E+00 0. -1.
          1   -1    0    0  501    0 -0.00000000000E+00 -0.00000000000E+00 -0.37445148918E+03  0.37445148918E+03  0.00000000000E+00 0. -1.
          2    1    1    2  501    0  0.15509152034E+03 -0.69772334855E+02 -0.18760821611E+03  0.25321611549E+03  0.00000000000E+00 0. -1.
          1    1    1    2  502    0 -0.96536599808E+02  0.80037967661E+02 -0.10309731657E+03  0.16234053115E+03  0.00000000000E+00 0. -1.
         22    1    1    2    0    0  0.16580355310E+02 -0.25018675963E+02  0.10761348930E+01  0.30033321419E+02  0.00000000000E+00 0.  1.
         22    1    1    2    0    0 -0.75135275846E+02  0.14753043157E+02  0.20739116610E+03  0.22107477860E+03  0.00000000000E+00 0. -1.
</event>
<event>
 6    1  0.2809573E-005  0.2736411E+03  0.7818608E-02  0.1118279E+00
          2   -1    0    0  502    0  0.00000000000E+00  0.00000000000E+00  0.89315721620E+03  0.89315721620E+03  0.00000000000E+00 0.  1.
          1   -1    0    0  501    0 -0.00000000000E+00 -0.00000000000E+00 -0.16273824394E+04  0.16273824394E+04  0.00000000000E+00 0.  1.
          2    1    1    2  501    0  0.11477884036E+03 -0.37036599316E+03  0.22087999549E+03  0.44624334561E+03  0.00000000000E+00 0.  1.
          1    1    1    2  502    0 -0.12764488534E+03  0.22113957924E+03 -0.14867649762E+04  0.15085310817E+04  0.00000000000E+00 0.  1.
         22    1    1    2    0    0 -0.98777784256E+00  0.16817420066E+03  0.48845151458E+03  0.51659308897E+03  0.00000000000E+00 0.  1.
         22    1    1    2    0    0  0.13853822823E+02 -0.18947786742E+02  0.43208242871E+02  0.49172139279E+02  0.00000000000E+00 0. -1.
</event>
<event>
 6    1  0.2809573E-005  0.1297534E+03  0.7818608E-02  0.1275576E+00
          2   -1    0    0  502    0  0.00000000000E+00  0.00000000000E+00  0.20652431223E+02  0.20652431223E+02  0.00000000000E+00 0. -1.
          1   -1    0    0  501    0 -0.00000000000E+00 -0.00000000000E+00 -0.13817727204E+04  0.13817727204E+04  0.00000000000E+00 0. -1.
          2    1    1    2  501    0  0.18142378651E+02 -0.59157891895E+02 -0.54696849867E+03  0.55045739219E+03  0.00000000000E+00 0. -1.
          1    1    1    2  502    0  0.36402007240E+01  0.11498161119E+03 -0.34732278878E+03  0.36587858858E+03  0.00000000000E+00 0. -1.
         22    1    1    2    0    0 -0.49032595738E+02  0.10257061433E+02 -0.94451760189E+02  0.10691369303E+03  0.00000000000E+00 0.  1.
         22    1    1    2    0    0  0.27250016363E+02 -0.66080780728E+02 -0.37237724155E+03  0.37917547784E+03  0.00000000000E+00 0. -1.
</event>
<event>
 6    1  0.2809573E-005  0.8396116E+02  0.7818608E-02  0.1322900E+00
          2   -1    0    0  502    0  0.00000000000E+00  0.00000000000E+00  0.14453810227E+03  0.14453810227E+03  0.00000000000E+00 0.  1.
          1   -1    0    0  501    0 -0.00000000000E+00 -0.00000000000E+00 -0.17777517429E+04  0.17777517429E+04  0.00000000000E+00 0.  1.
          2    1    1    2  501    0 -0.35196511186E+01 -0.33481801455E+02 -0.61018785913E+01  0.34214790589E+02  0.00000000000E+00 0.  1.
          1    1    1    2  502    0  0.30037538997E+02  0.42041080964E+01 -0.17232352242E+04  0.17235021224E+04  0.00000000000E+00 0.  1.
         22    1    1    2    0    0  0.28455711066E+02 -0.31251808189E+02  0.56780778491E+01  0.42645557511E+02  0.00000000000E+00 0. -1.
         22    1    1    2    0    0 -0.54973598944E+02  0.60529501548E+02  0.90445384296E+02  0.12192737461E+03  0.00000000000E+00 0.  1.
</event>
<event>
 6    1  0.2809573E-005  0.5807020E+02  0.7818608E-02  0.1412595E+00
          2   -1    0    0  502    0  0.00000000000E+00  0.00000000000E+00  0.23335642782E+03  0.23335642782E+03  0.00000000000E+00 0.  1.
          1   -1    0    0  501    0 -0.00000000000E+00 -0.00000000000E+00 -0.91486025297E+02  0.91486025297E+02  0.00000000000E+00 0.  1.
          2    1    1    2  501    0  0.14757656302E+02  0.19122516370E+02  0.30441732445E+02  0.38860753031E+02  0.00000000000E+00 0.  1.
          1    1    1    2  502    0 -0.13904350064E+02 -0.34024818099E+02 -0.62739718335E+02  0.72713763856E+02  0.00000000000E+00 0.  1.
         22    1    1    2    0    0  0.47320173110E+02  0.23342293145E+02  0.29271410686E+02  0.60339679449E+02  0.00000000000E+00 0.  1.
         22    1    1    2    0    0 -0.48173479349E+02 -0.84399914154E+01  0.14489697773E+03  0.15292825678E+03  0.00000000000E+00 0.  1.
</event>
<event>
 6    1  0.2809573E-005  0.1617331E+03  0.7818608E-02  0.1228719E+00
          2   -1    0    0  502    0  0.00000000000E+00  0.00000000000E+00  0.66537971726E+02  0.66537971726E+02  0.00000000000E+00 0. -1.
          1   -1    0    0  501    0 -0.00000000000E+00 -0.00000000000E+00 -0.60331688751E+03  0.60331688751E+03  0.00000000000E+00 0. -1.
          2    1    1    2  501    0  0.73255333937E+02  0.61591907028E+02 -0.37357099320E+03  0.38563609001E+03  0.00000000000E+00 0. -1.
          1    1    1    2  502    0 -0.76094620532E+02 -0.44278113847E+02 -0.11895440777E+03  0.14799018132E+03  0.00000000000E+00 0. -1.
         22    1    1    2    0    0 -0.33391755899E+02  0.37573448900E+02 -0.49119832923E+02  0.70281799995E+02  0.00000000000E+00 0.  1.
         22    1    1    2    0    0  0.36231042494E+02 -0.54887242081E+02  0.48663181030E+01  0.65946787908E+02  0.00000000000E+00 0. -1.
</event>
<event>
 6    1  0.2809573E-005  0.1259243E+03  0.7818608E-02  0.1298220E+00
          2   -1    0    0  502    0  0.00000000000E+00  0.00000000000E+00  0.16807994854E+03  0.16807994854E+03  0.00000000000E+00 0. -1.
          1   -1    0    0  501    0 -0.00000000000E+00 -0.00000000000E+00 -0.48959700913E+03  0.48959700913E+03  0.00000000000E+00 0.  1.
          2    1    1    2  501    0  0.45771559757E+02 -0.41600711251E+02 -0.96491486574E+00  0.61859404458E+02  0.00000000000E+00 0. -1.
          1    1    1    2  502    0 -0.39723121587E+02  0.33432467554E+01 -0.42742823293E+03  0.42928312102E+03  0.00000000000E+00 0.  1.
         22    1    1    2    0    0 -0.15517593518E+02 -0.32244828524E+02  0.84817872080E+02  0.92057569484E+02  0.00000000000E+00 0. -1.
         22    1    1    2    0    0  0.94691553480E+01  0.70502293020E+02  0.22058215122E+02  0.74476862705E+02  0.00000000000E+00 0. -1.
</event>
<event>
 6    1  0.2809573E-005  0.1353737E+03  0.7818608E-02  0.1326908E+00
          2   -1    0    0  502    0  0.00000000000E+00  0.00000000000E+00  0.28616616158E+02  0.28616616158E+02  0.00000000000E+00 0.  1.
          1   -1    0    0  501    0 -0.00000000000E+00 -0.00000000000E+00 -0.14004293090E+04  0.14004293090E+04  0.00000000000E+00 0.  1.
          2    1    1    2  501    0  0.22261714095E+02  0.86810054622E+01 -0.81436507710E+03  0.81471554703E+03  0.00000000000E+00 0.  1.
          1    1    1    2  502    0 -0.48369638569E+02 -0.89151599953E+02 -0.15111534667E+03  0.18199856513E+03  0.00000000000E+00 0.  1.
         22    1    1    2    0    0  0.16279647304E+02  0.53839358438E+01  0.17931256965E+01  0.17240330080E+02  0.00000000000E+00 0. -1.
         22    1    1    2    0    0  0.98282771704E+01  0.75086658647E+02 -0.40812539473E+03  0.41509148289E+03  0.00000000000E+00 0.  1.
</event>
<event>
 6    1  0.2809573E-005  0.7444034E+02  0.7818608E-02  0.1449969E+00
          2   -1    0    0  502    0  0.00000000000E+00  0.00000000000E+00  0.27275079612E+02  0.27275079612E+02  0.00000000000E+00 0. -1.
          1   -1    0    0  501    0 -0.00000000000E+00 -0.00000000000E+00 -0.17227375023E+04  0.17227375023E+04  0.00000000000E+00 0. -1.
          2    1    1    2  501    0 -0.23139759376E+02  0.62974823695E+00 -0.13575321478E+03  0.13771267324E+03  0.00000000000E+00 0. -1.
          1    1    1    2  502    0 -0.24223530836E+02  0.12556774229E+02 -0.14027816842E+04  0.14030470076E+04  0.00000000000E+00 0. -1.
         22    1    1    2    0    0  0.33568907791E+01  0.13745666690E+02  0.20257022738E+02  0.24709492885E+02  0.00000000000E+00 0. -1.
         22    1    1    2    0    0  0.44006399434E+02 -0.26932189156E+02 -0.17718454636E+03  0.18454340810E+03  0.00000000000E+00 0. -1.
</event>
<event>
 6    1  0.2809573E-005  0.1371418E+03  0.7818608E-02  0.1247061E+00
          2   -1    0    0  502    0  0.00000000000E+00  0.00000000000E+00  0.31837980425E+03  0.31837980425E+03  0.00000000000E+00 0.  1.
          1   -1    0    0  501    0 -0.00000000000E+00 -0.00000000000E+00 -0.23423929128E+04  0.23423929128E+04  0.00000000000E+00 0. -1.
          2    1    1    2  501    0  0.26658566081E+02 -0.30059229452E+02  0.10228073564E+01  0.40190577947E+02  0.00000000000E+00 0.  1.
          1    1    1    2  502    0  0.49313864283E+02  0.46258215048E+01 -0.23036502811E+04  0.23041826909E+04  0.00000000000E+00 0. -1.
         22    1    1    2    0    0  0.20444496025E+02  0.23828000373E+02  0.16230801381E+03  0.16531679397E+03  0.00000000000E+00 0.  1.
         22    1    1    2    0    0 -0.96416926389E+02  0.16054075742E+01  0.11630635140E+03  0.15108265421E+03  0.00000000000E+00 0.  1.
</event>
<event>
 6    1  0.2809573E-005  0.8562141E+02  0.7818608E-02  0.1426212E+00
          2   -1    0    0  502    0  0.00000000000E+00  0.00000000000E+00  0.81346538153E+02  0.81346538153E+02  0.00000000000E+00 0.  1.
          1   -1    0    0  501    0 -0.00000000000E+00 -0.00000000000E+00 -0.26377839899E+03  0.26377839899E+03  0.00000000000E+00 0. -1.
          2    1    1    2  501    0  0.54654389892E+02  0.28698444644E+02 -0.15359401914E+03  0.16553496843E+03  0.00000000000E+00 0.  1.
          1    1    1    2  502    0 -0.46434063312E+02 -0.16295199495E+02 -0.20878210331E+02  0.53456107498E+02  0.00000000000E+00 0. -1.
         22    1    1    2    0    0 -0.27765343209E+01 -0.24511385101E+02 -0.63975351857E+02  0.68566484434E+02  0.00000000000E+00 0.  1.
         22    1    1    2    0    0 -0.54437922583E+01  0.12108139952E+02  0.56015720488E+02  0.57567376777E+02  0.00000000000E+00 0. -1.
</event>
<event>
 6    1  0.2809573E-005  0.1920796E+03  0.7818608E-02  0.1261804E+00
          2   -1    0    0  502    0  0.00000000000E+00  0.00000000000E+00  0.12107326654E+03  0.12107326654E+03  0.00000000000E+00 0. -1.
          1   -1    0    0  501    0 -0.00000000000E+00 -0.00000000000E+00 -0.23820759928E+04  0.23820759928E+04  0.00000000000E+00 0.  1.
          2    1    1    2  501    0 -0.16637672631E+02 -0.13666171094E+02 -0.39727444684E+03  0.39785746505E+03  0.00000000000E+00 0. -1.
          1    1    1    2  502    0  0.43149524977E+02  0.51016938215E+02 -0.19495745224E+04  0.19507192078E+04  0.00000000000E+00 0.  1.
         22    1    1    2    0    0 -0.12699103734E+02 -0.52043240526E+02 -0.11809510091E+02  0.54856454941E+02  0.00000000000E+00 0. -1.
         22    1    1    2    0    0 -0.13812748611E+02  0.14692473405E+02  0.97655753004E+02  0.99716131562E+02  0.00000000000E+00 0. -1.
</event>
<event>
 6    1  0.2809573E-005  0.7218730E+02  0.7818608E-02  0.1447356E+00
          2   -1    0    0  502    0  0.00000000000E+00  0.00000000000E+00  0.12121625758E+03  0.12121625758E+03  0.00000000000E+00 0.  1.
          1   -1    0    0  501    0 -0.00000000000E+00 -0.00000000000E+00 -0.79746600558E+02  0.79746600558E+02  0.00000000000E+00 0.  1.
          2    1    1    2  501    0  0.26922227318E+02  0.64890480631E+01 -0.87313763181E+01  0.29037062540E+02  0.00000000000E+00 0.  1.
          1    1    1    2  502    0  0.24471835550E+02 -0.19218610110E+01  0.14217799388E+02  0.28367412719E+02  0.00000000000E+00 0.  1.
         22    1    1    2    0    0 -0.13725465802E+02  0.84659281247E+01  0.81485960475E+02  0.83066371686E+02  0.00000000000E+00 0.  1.
         22    1    1    2    0    0 -0.37668597066E+02 -0.13033115177E+02 -0.45502726527E+02  0.60492011188E+02  0.00000000000E+00 0.  1.
</event>
<event>
 6    1  0.2809573E-005  0.7160733E+02  0.7818608E-02  0.1398830E+00
          2   -1    0    0  502    0  0.00000000000E+00  0.00000000000E+00  0.30109243432E+03  0.30109243432E+03  0.00000000000E+00 0. -1.
          1   -1    0    0  501    0 -0.00000000000E+00 -0.00000000000E+00 -0.47898342765E+02  0.47898342765E+02  0.00000000000E+00 0. -1.
          2    1    1    2  501    0  0.34400500881E+02 -0.22579111237E+02 -0.65969208471E+01  0.41674093748E+02  0.00000000000E+00 0. -1.
          1    1    1    2  502    0 -0.32237379727E+02  0.18190152770E+02  0.72575505519E+02  0.81469836816E+02  0.00000000000E+00 0. -1.
         22    1    1    2    0    0 -0.26193469307E+02 -0.22822515071E+02  0.18632138285E+03  0.18953264293E+03  0.00000000000E+00 0. -1.
         22    1    1    2    0    0  0.24030348154E+02  0.27211473538E+02  0.89412403039E+00  0.36314203589E+02  0.00000000000E+00 0.  1.
</event>
<event>
 6    1  0.2809573E-005  0.8464204E+02  0.7818608E-02  0.1323541E+00
          2   -1    0    0  502    0  0.00000000000E+00  0.00000000000E+00  0.49215547594E+03  0.49215547594E+03  0.00000000000E+00 0. -1.
          1   -1    0    0  501    0 -0.00000000000E+00 -0.00000000000E+00 -0.74270244513E+02  0.74270244513E+02  0.00000000000E+00 0.  1.
          2    1    1    2  501    0 -0.16091559892E+02 -0.19908812991E+02  0.26173266387E+02  0.36610640637E+02  0.00000000000E+00 0. -1.
          1    1    1    2  502    0  0.50212286250E+02  0.57731656965E+02 -0.33504266802E+02  0.83526964511E+02  0.00000000000E+00 0.  1.
         22    1    1    2    0    0 -0.24594754394E+02  0.36028900824E+02  0.63847366936E+02  0.77327032162E+02  0.00000000000E+00 0.  1.
         22    1    1    2    0    0 -0.95259719646E+01 -0.73851744798E+02  0.36136886491E+03  0.36896108315E+03  0.00000000000E+00 0. -1.
</event>
<event>
 6    1  0.2809573E-005  0.1244371E+03  0.7818608E-02  0.1237429E+00
          2   -1    0    0  502    0  0.00000000000E+00  0.00000000000E+00  0.12454592670E+04  0.12454592670E+04  0.00000000000E+00 0.  1.
          1   -1    0    0  501    0 -0.00000000000E+00 -0.00000000000E+00 -0.28419395482E+02  0.28419395482E+02  0.00000000000E+00 0.  1.
          2    1    1    2  501    0 -0.96850876749E+02 -0.71118481707E+02  0.60319165319E+03  0.61504317022E+03  0.00000000000E+00 0.  1.
          1    1    1    2  502    0  0.37096678528E+02  0.80277952315E+02  0.14205838815E+03  0.16733588626E+03  0.00000000000E+00 0.  1.
         22    1    1    2    0    0 -0.36138113895E+02 -0.19919002574E+02  0.13649102767E+03  0.14259218272E+03  0.00000000000E+00 0.  1.
         22    1    1    2    0    0  0.95892312116E+02  0.10759531967E+02  0.33529880250E+03  0.34890742327E+03  0.00000000000E+00 0.  1.
</event>
<event>
 6    1  0.2809573E-005  0.7141070E+02  0.7818608E-02  0.1384052E+00
          2   -1    0    0  502    0  0.00000000000E+00  0.00000000000E+00  0.16762067457E+03  0.16762067457E+03  0.00000000000E+00 0.  1.
          1   -1    0    0  501    0 -0.00000000000E+00 -0.00000000000E+00 -0.20005409030E+03  0.20005409030E+03  0.00000000000E+00 0.  1.
          2    1    1    2  501    0 -0.19555571508E+02 -0.58158798666E+01 -0.87015013828E+01  0.22180193010E+02  0.00000000000E+00 0.  1.
          1    1    1    2  502    0  0.31498304285E+02 -0.10825875501E+01 -0.15729640741E+03  0.16042280061E+03  0.00000000000E+00 0.  1.
         22    1    1    2    0    0  0.84261061570E+01  0.47652452972E+02  0.49717198330E+01  0.48646413406E+02  0.00000000000E+00 0.  1.
         22    1    1    2    0    0 -0.20368838934E+02 -0.40753985555E+02  0.12859277323E+03  0.13642535785E+03  0.00000000000E+00 0.  1.
</event>
<event>
 6    1  0.3526301E-005  0.7021660E+02  0.7818608E-02  0.1437071E+00
          2   -1    0    0  502    0  0.00000000000E+00  0.00000000000E+00  0.71168749379E+02  0.71168749379E+02  0.00000000000E+00 0.  1.
          1   -1    0    0  501    0 -0.00000000000E+00 -0.00000000000E+00 -0.27412489000E+04  0.27412489000E+04  0.00000000000E+00 0.  1.
          2    1    1    2  501    0  0.45413434157E+02 -0.64516579478E+01 -0.11403253870E+03  0.12291226048E+03  0.00000000000E+00 0.  1.
          1    1    1    2  502    0 -0.69044863250E+02 -0.92816714740E+00 -0.25567263807E+04  0.25576586638E+04  0.00000000000E+00 0.  1.
         22    1    1    2    0    0  0.19912376184E+02 -0.12703322324E+02 -0.61775828233E+02  0.66137206452E+02  0.00000000000E+00 0.  1.
         22    1    1    2    0    0  0.37190529084E+01  0.20083147419E+02  0.62454596980E+02  0.65709518708E+02  0.00000000000E+00 0.  1.
</event>
<event>
 6    1  0.2809573E-005  0.9318073E+02  0.7818608E-02  0.1341535E+00
          2   -1    0    0  502    0  0.00000000000E+00  0.00000000000E+00  0.15924182752E+03  0.15924182752E+03  0.00000000000E+00 0. -1.
          1   -1    0    0  501    0 -0.00000000000E+00 -0.00000000000E+00 -0.14262363979E+03  0.14262363979E+03  0.00000000000E+00 0.  1.
          2    1    1    2  501    0  0.90713329622E+01 -0.21545261839E+02  0.46113353029E+01  0.23827542943E+02  0.00000000000E+00 0. -1.
          1    1    1    2  502    0  0.38543521429E+02  0.20251462804E+02 -0.98737813268E+02  0.10791144777E+03  0.00000000000E+00 0.  1.
         22    1    1    2    0    0 -0.87744196468E+02  0.81857199229E+01  0.70227695422E+02  0.11268531062E+03  0.00000000000E+00 0. -1.
         22    1    1    2    0    0  0.40129342077E+02 -0.68919208887E+01  0.40516970280E+02  0.57441165985E+02  0.00000000000E+00 0. -1.
</event>
<event>
 6    1  0.2809573E-005  0.1149927E+03  0.7818608E-02  0.1253188E+00
          2   -1    0    0  502    0  0.00000000000E+00  0.00000000000E+00  0.43677845537E+03  0.43677845537E+03  0.00000000000E+00 0.  1.
          1   -1    0    0  501    0 -0.00000000000E+00 -0.00000000000E+00 -0.50618870034E+02  0.50618870034E+02  0.00000000000E+00 0. -1.
          2    1    1    2  501    0  0.95466255473E+02  0.21810802745E+02  0.21968685306E+03  0.24052407459E+03  0.00000000000E+00 0.  1.
          1    1    1    2  502    0 -0.34684535786E+02  0.10668375748E+02  0.99388956021E+01  0.37624631687E+02  0.00000000000E+00 0. -1.
         22    1    1    2    0    0 -0.82859943510E+02 -0.40253861899E+02  0.60045828563E+02  0.10996201692E+03  0.00000000000E+00 0. -1.
         22    1    1    2    0    0  0.22078223824E+02  0.77746834056E+01  0.96488008113E+02  0.99286602212E+02  0.00000000000E+00 0. -1.
</event>
<event>
 6    1  0.2809573E-005  0.2136770E+03  0.7818608E-02  0.1192282E+00
          2   -1    0    0  502    0  0.00000000000E+00  0.00000000000E+00  0.80573869117E+03  0.80573869117E+03  0.00000000000E+00 0. -1.
          1   -1    0    0  501    0 -0.00000000000E+00 -0.00000000000E+00 -0.41998147731E+03  0.41998147731E+03  0.00000000000E+00 0. -1.
          2    1    1    2  501    0  0.18822543277E+03 -0.14085470163E+02  0.53331884346E+03  0.56573509950E+03  0.00000000000E+00 0. -1.
          1    1    1    2  502    0 -0.13187608619E+03 -0.21225341626E+02 -0.37243082050E+03  0.39565961797E+03  0.00000000000E+00 0. -1.
         22    1    1    2    0    0 -0.54166170747E+02 -0.30296175277E+02  0.57746674373E+02  0.84773289962E+02  0.00000000000E+00 0. -1.
         22    1    1    2    0    0 -0.21831758340E+01  0.65606987066E+02  0.16712251652E+03  0.17955216104E+03  0.00000000000E+00 0. -1.
</event>
<event>
 6    1  0.2809573E-005  0.1851679E+03  0.7818608E-02  0.1163162E+00
          2   -1    0    0  502    0  0.00000000000E+00  0.00000000000E+00  0.12633932363E+04  0.12633932363E+04  0.00000000000E+00 0. -1.
          1   -1    0    0  501    0 -0.00000000000E+00 -0.00000000000E+00 -0.11018858395E+03  0.11018858395E+03  0.00000000000E+00 0. -1.
          2    1    1    2  501    0  0.16034111532E+03  0.53302085376E+02  0.10103765461E+04  0.10244077072E+04  0.00000000000E+00 0. -1.
          1    1    1    2  502    0  0.20360826571E+02  0.39116849778E+02 -0.30355713810E+02  0.53536534778E+02  0.00000000000E+00 0. -1.
         22    1    1    2    0    0 -0.19211450958E+03 -0.94362611409E+02  0.12887660091E+03  0.24984288160E+03  0.00000000000E+00 0. -1.
         22    1    1    2    0    0  0.11412567691E+02  0.19436762558E+01  0.44307219168E+02  0.45794696735E+02  0.00000000000E+00 0. -1.
</event>
<event>
 6    1  0.2809573E-005  0.1147109E+03  0.7818608E-02  0.1378184E+00
          2   -1    0    0  502    0  0.00000000000E+00  0.00000000000E+00  0.80738047436E+02  0.80738047436E+02  0.00000000000E+00 0.  1.
          1   -1    0    0  501    0 -0.00000000000E+00 -0.00000000000E+00 -0.33373194065E+03  0.33373194065E+03  0.00000000000E+00 0. -1.
          2    1    1    2  501    0 -0.20905783608E+02 -0.28788427769E+02  0.77396200873E+01  0.36410535299E+02  0.00000000000E+00 0.  1.
          1    1    1    2  502    0 -0.77642410933E+01 -0.27308353678E+02 -0.23482934689E+03  0.23653932397E+03  0.00000000000E+00 0. -1.
         22    1    1    2    0    0  0.18257938870E+02  0.61617054660E+02 -0.70498896037E+02  0.95394486734E+02  0.00000000000E+00 0. -1.
         22    1    1    2    0    0  0.10412085832E+02 -0.55202732125E+01  0.44594729626E+02  0.46125642089E+02  0.00000000000E+00 0.  1.
</event>
<event>
 6    1  0.2809573E-005  0.1470661E+03  0.7818608E-02  0.1246035E+00
          2   -1    0    0  502    0  0.00000000000E+00  0.00000000000E+00  0.67508806090E+03  0.67508806090E+03  0.00000000000E+00 0. -1.
          1   -1    0    0  501    0 -0.00000000000E+00 -0.00000000000E+00 -0.22826846090E+03  0.22826846090E+03  0.00000000000E+00 0. -1.
          2    1    1    2  501    0 -0.45281998370E+02  0.47267866481E+02  0.18735701525E+03  0.19846249455E+03  0.00000000000E+00 0. -1.
          1    1    1    2  502    0  0.12140073763E+02  0.25103027000E+02 -0.20983761487E+03  0.21168223348E+03  0.00000000000E+00 0. -1.
         22    1    1    2    0    0 -0.23048830832E+02 -0.86276226560E+02  0.22334206089E+03  0.24053380643E+03  0.00000000000E+00 0.  1.
         22    1    1    2    0    0  0.56190755439E+02  0.13905333079E+02  0.24595813872E+03  0.25267798734E+03  0.00000000000E+00 0. -1.
</event>
<event>
 6    1  0.2809573E-005  0.7844120E+02  0.7818608E-02  0.1337931E+00
          2   -1    0    0  502    0  0.00000000000E+00  0.00000000000E+00  0.25400967595E+03  0.25400967595E+03  0.00000000000E+00 0.  1.
          1   -1    0    0  501    0 -0.00000000000E+00 -0.00000000000E+00 -0.38253317600E+03  0.38253317600E+03  0.00000000000E+00 0. -1.
          2    1    1    2  501    0  0.31491852435E+02 -0.14531529573E+02  0.14648837564E+01  0.34713801376E+02  0.00000000000E+00 0.  1.
          1    1    1    2  502    0 -0.21420411307E+02 -0.98590876657E+01 -0.34727266145E+03  0.34807231579E+03  0.00000000000E+00 0. -1.
         22    1    1    2    0    0 -0.53076339975E+02  0.46660728785E+02  0.17760314179E+03  0.19114705713E+03  0.00000000000E+00 0.  1.
         22    1    1    2    0    0  0.43004898846E+02 -0.22270111546E+02  0.39681135851E+02  0.62609677651E+02  0.00000000000E+00 0.  1.
</event>
<event>
 6    1  0.2809573E-005  0.1507131E+03  0.7818608E-02  0.1260339E+00
          2   -1    0    0  502    0  0.00000000000E+00  0.00000000000E+00  0.56329394882E+02  0.56329394882E+02  0.00000000000E+00 0.  1.
          1   -1    0    0  501    0 -0.00000000000E+00 -0.00000000000E+00 -0.30097252208E+03  0.30097252208E+03  0.00000000000E+00 0.  1.
          2    1    1    2  501    0  0.28222527553E+02  0.58590301234E+02 -0.46499195197E+02  0.79946917477E+02  0.00000000000E+00 0.  1.
          1    1    1    2  502    0  0.55963806236E+01 -0.24990653272E+02 -0.11206298582E+03  0.11495201181E+03  0.00000000000E+00 0.  1.
         22    1    1    2    0    0 -0.74754344802E+02 -0.40955871329E+02 -0.25596615603E+02  0.88998776359E+02  0.00000000000E+00 0.  1.
         22    1    1    2    0    0  0.40935436626E+02  0.73562233673E+01 -0.60484330575E+02  0.73404211317E+02  0.00000000000E+00 0.  1.
</event>
<event>
 6    1  0.2809573E-005  0.1265980E+03  0.7818608E-02  0.1361425E+00
          2   -1    0    0  502    0  0.00000000000E+00  0.00000000000E+00  0.11770252567E+03  0.11770252567E+03  0.00000000000E+00 0.  1.
          1   -1    0    0  501    0 -0.00000000000E+00 -0.00000000000E+00 -0.27777490350E+03  0.27777490350E+03  0.00000000000E+00 0.  1.
          2    1    1    2  501    0 -0.50406249484E+02  0.40938720284E+02 -0.70501258209E+01  0.65318244615E+02  0.00000000000E+00 0.  1.
          1    1    1    2  502    0  0.98162759131E+02 -0.29707578893E+02 -0.16662815457E+03  0.19566146637E+03  0.00000000000E+00 0.  1.
         22    1    1    2    0    0 -0.24521173258E+01  0.11308959210E+02  0.62839925679E+02  0.63896492057E+02  0.00000000000E+00 0.  1.
         22    1    1    2    0    0 -0.45304392321E+02 -0.22540100601E+02 -0.49234023117E+02  0.70601226130E+02  0.00000000000E+00 0. -1.
</event>
<event>
 6    1  0.2809573E-005  0.3423801E+02  0.7818608E-02  0.1570229E+00
          2   -1    0    0  502    0  0.00000000000E+00  0.00000000000E+00  0.88472615060E+02  0.88472615060E+02  0.00000000000E+00 0. -1.
          1   -1    0    0  501    0 -0.00000000000E+00 -0.00000000000E+00 -0.31522580725E+03  0.31522580725E+03  0.00000000000E+00 0. -1.
          2    1    1    2  501    0 -0.69507608269E+01 -0.27381471075E+02 -0.20890358202E+03  0.21080503935E+03  0.00000000000E+00 0. -1.
          1    1    1    2  502    0  0.14279500366E+02  0.17329795012E+02  0.47231552741E+02  0.52297662474E+02  0.00000000000E+00 0. -1.
         22    1    1    2    0    0  0.82658874507E+01  0.26812316028E+02  0.31007574167E+02  0.41817398794E+02  0.00000000000E+00 0. -1.
         22    1    1    2    0    0 -0.15594626990E+02 -0.16760639965E+02 -0.96088737082E+02  0.98778321695E+02  0.00000000000E+00 0.  1.
</event>
<event>
 6    1  0.2809573E-005  0.9989417E+02  0.7818608E-02  0.1362180E+00
          2   -1    0    0  502    0  0.00000000000E+00  0.00000000000E+00  0.33813075780E+02  0.33813075780E+02  0.00000000000E+00 0. -1.
          1   -1    0    0  501    0 -0.00000000000E+00 -0.00000000000E+00 -0.14457800851E+04  0.14457800851E+04  0.00000000000E+00 0.  1.
          2    1    1    2  501    0  0.25400627753E+02 -0.12342853817E+02 -0.15193710659E+03  0.15453938750E+03  0.00000000000E+00 0. -1.
          1    1    1    2  502    0  0.24001604030E+02  0.37436027219E+02 -0.11390920920E+04  0.11399597920E+04  0.00000000000E+00 0.  1.
         22    1    1    2    0    0 -0.55148013186E+02 -0.47629990477E+02 -0.13812958839E+03  0.15617202867E+03  0.00000000000E+00 0. -1.
         22    1    1    2    0    0  0.57457814026E+01  0.22536817075E+02  0.17191777727E+02  0.28921952721E+02  0.00000000000E+00 0. -1.
</event>
<event>
 6    1  0.2809573E-005  0.2489938E+03  0.7818608E-02  0.1182744E+00
          2   -1    0    0  502    0  0.00000000000E+00  0.00000000000E+00  0.13255131590E+03  0.13255131590E+03  0.00000000000E+00 0. -1.
          1   -1    0    0  501    0 -0.00000000000E+00 -0.00000000000E+00 -0.69264078569E+03  0.69264078569E+03  0.00000000000E+00 0. -1.
          2    1    1    2  501    0 -0.15518463788E+03  0.11611786288E+03 -0.11430964726E+03  0.22501627801E+03  0.00000000000E+00 0. -1.
          1    1    1    2  502    0  0.60700939213E+02 -0.80407215731E+02 -0.42494384946E+03  0.43672325282E+03  0.00000000000E+00 0. -1.
         22    1    1    2    0    0  0.74941483113E+02  0.86426463381E+01 -0.63711339255E+02  0.98742371738E+02  0.00000000000E+00 0. -1.
         22    1    1    2    0    0  0.19542215552E+02 -0.44353293491E+02  0.42875366183E+02  0.64710199023E+02  0.00000000000E+00 0. -1.
</event>
<event>
 6    1  0.2809573E-005  0.1180128E+03  0.7818608E-02  0.1248818E+00
          2   -1    0    0  502    0  0.00000000000E+00  0.00000000000E+00  0.24527536783E+03  0.24527536783E+03  0.00000000000E+00 0.  1.
          1   -1    0    0  501    0 -0.00000000000E+00 -0.00000000000E+00 -0.31931425598E+03  0.31931425598E+03  0.00000000000E+00 0. -1.
          2    1    1    2  501    0 -0.17314799039E+02 -0.11868326593E+03 -0.93274349132E+01  0.12030179100E+03  0.00000000000E+00 0.  1.
          1    1    1    2  502    0  0.70822518232E+01  0.31771920160E+02 -0.22180235322E+03  0.22417827079E+03  0.00000000000E+00 0. -1.
         22    1    1    2    0    0  0.11348702629E+02 -0.20274908557E+02 -0.68602899137E+01  0.24226608225E+02  0.00000000000E+00 0.  1.
         22    1    1    2    0    0 -0.11161554129E+01  0.10718625432E+03  0.16395118989E+03  0.19588295379E+03  0.00000000000E+00 0.  1.
</event>
<event>
 6    1  0.2809573E-005  0.2077729E+03  0.7818608E-02  0.1280925E+00
          2   -1    0    0  502    0  0.00000000000E+00  0.00000000000E+00  0.10558368192E+03  0.10558368192E+03  0.00000000000E+00 0. -1.
          1   -1    0    0  501    0 -0.00000000000E+00 -0.00000000000E+00 -0.17067189603E+04  0.17067189603E+04  0.00000000000E+00 0. -1.
          2    1    1    2  501    0  0.39419693888E+01 -0.11120195755E+03 -0.70087734376E+02  0.13150553218E+03  0.00000000000E+00 0. -1.
          1    1    1    2  502    0 -0.72398657149E+02  0.58887484155E+02 -0.15256395725E+04  0.15284912190E+04  0.00000000000E+00 0. -1.
         22    1    1    2    0    0 -0.81402889829E+00 -0.10986176132E+02  0.44624204824E+02  0.45963881094E+02  0.00000000000E+00 0. -1.
         22    1    1    2    0    0  0.69270716658E+02  0.63300649524E+02 -0.50032176361E+02  0.10634200999E+03  0.00000000000E+00 0.  1.
</event>
<event>
 6    1  0.2809573E-005  0.1368392E+03  0.7818608E-02  0.1345131E+00
          2   -1    0    0  502    0  0.00000000000E+00  0.00000000000E+00  0.90097302855E+02  0.90097302855E+02  0.00000000000E+00 0. -1.
          1   -1    0    0  501    0 -0.00000000000E+00 -0.00000000000E+00 -0.60679294214E+03  0.60679294214E+03  0.00000000000E+00 0. -1.
          2    1    1    2  501    0 -0.10278831978E+03 -0.76918382454E+00 -0.39043853178E+03  0.40374283575E+03  0.00000000000E+00 0. -1.
          1    1    1    2  502    0  0.13317791240E+03 -0.12293843760E+02 -0.91077046935E+02  0.16181014624E+03  0.00000000000E+00 0. -1.
         22    1    1    2    0    0 -0.83403699863E+01 -0.87436829450E+01  0.44354335938E+02  0.45970869901E+02  0.00000000000E+00 0. -1.
         22    1    1    2    0    0 -0.22049222639E+02  0.21806710530E+02 -0.79534396513E+02  0.85366393105E+02  0.00000000000E+00 0. -1.
</event>
<event>
 6    1  0.2809573E-005  0.1216723E+03  0.7818608E-02  0.1272128E+00
          2   -1    0    0  502    0  0.00000000000E+00  0.00000000000E+00  0.34243248156E+02  0.34243248156E+02  0.00000000000E+00 0.  1.
          1   -1    0    0  501    0 -0.00000000000E+00 -0.00000000000E+00 -0.16068070701E+04  0.16068070701E+04  0.00000000000E+00 0. -1.
          2    1    1    2  501    0  0.59812317712E+02 -0.14111764759E+02 -0.10614181456E+03  0.12264884856E+03  0.00000000000E+00 0.  1.
          1    1    1    2  502    0 -0.10439528955E+03  0.45293896593E+02 -0.12804561211E+04  0.12855029333E+04  0.00000000000E+00 0. -1.
         22    1    1    2    0    0  0.60451275953E+02  0.31763160659E+02 -0.13144733602E+03  0.14812716593E+03  0.00000000000E+00 0.  1.
         22    1    1    2    0    0 -0.15868304115E+02 -0.62945292492E+02 -0.54518550268E+02  0.84771370437E+02  0.00000000000E+00 0.  1.
</event>
<event>
 6    1  0.2809573E-005  0.1863245E+03  0.7818608E-02  0.1259774E+00
          2   -1    0    0  502    0  0.00000000000E+00  0.00000000000E+00  0.16892896061E+03  0.16892896061E+03  0.00000000000E+00 0. -1.
          1   -1    0    0  501    0 -0.00000000000E+00 -0.00000000000E+00 -0.43318170868E+03  0.43318170868E+03  0.00000000000E+00 0.  1.
          2    1    1    2  501    0 -0.87649042531E+02 -0.83065360752E+02 -0.56478707099E+02  0.13331186432E+03  0.00000000000E+00 0. -1.
          1    1    1    2  502    0  0.43360092385E+02  0.61987260011E+02 -0.29982764976E+03  0.30922344280E+03  0.00000000000E+00 0.  1.
         22    1    1    2    0    0  0.39271632569E+02  0.43514563586E+02 -0.59448452690E+01  0.58916207905E+02  0.00000000000E+00 0. -1.
         22    1    1    2    0    0  0.50173175770E+01 -0.22436462845E+02  0.97998454057E+02  0.10065915427E+03  0.00000000000E+00 0. -1.
</event>
<event>
 6    1  0.2809573E-005  0.1374822E+03  0.7818608E-02  0.1234039E+00
          2   -1    0    0  502    0  0.00000000000E+00  0.00000000000E+00  0.61735966014E+03  0.61735966014E+03  0.00000000000E+00 0.  1.
          1   -1    0    0  501    0 -0.00000000000E+00 -0.00000000000E+00 -0.20644194447E+04  0.20644194447E+04  0.00000000000E+00 0. -1.
          2    1    1    2  501    0  0.77527965234E+02 -0.30915487942E+02  0.48162060758E+02  0.96363566167E+02  0.00000000000E+00 0.  1.
          1    1    1    2  502    0 -0.31304447417E+02 -0.30566122032E+02 -0.20303997185E+04  0.20308710626E+04  0.00000000000E+00 0. -1.
         22    1    1    2    0    0 -0.86509868420E+02  0.34017893408E+02  0.40510983291E+03  0.41563824551E+03  0.00000000000E+00 0.  1.
         22    1    1    2    0    0  0.40286350603E+02  0.27463716567E+02  0.13006804027E+03  0.13890623050E+03  0.00000000000E+00 0.  1.
</event>
<event>
 6    1  0.2809573E-005  0.7438995E+02  0.7818608E-02  0.1391877E+00
          2   -1    0    0  502    0  0.00000000000E+00  0.00000000000E+00  0.22472650629E+03  0.22472650629E+03  0.00000000000E+00 0. -1.
          1   -1    0    0  501    0 -0.00000000000E+00 -0.00000000000E+00 -0.17042853397E+03  0.17042853397E+03  0.00000000000E+00 0. -1.
          2    1    1    2  501    0  0.10723576751E+02 -0.76707758440E+02 -0.31955510218E+02  0.83786812426E+02  0.00000000000E+00 0. -1.
          1    1    1    2  502    0 -0.14518938710E+01  0.63608132546E+02 -0.81988277010E+02  0.10377947817E+03  0.00000000000E+00 0. -1.
         22    1    1    2    0    0 -0.62477420595E+01 -0.21388091063E+02 -0.11129664576E+02  0.24906909759E+02  0.00000000000E+00 0. -1.
         22    1    1    2    0    0 -0.30239408209E+01  0.34487716957E+02  0.17937142412E+03  0.18268183990E+03  0.00000000000E+00 0. -1.
</event>
<event>
 6    1  0.2809573E-005  0.7321174E+02  0.7818608E-02  0.1410733E+00
          2   -1    0    0  502    0  0.00000000000E+00  0.00000000000E+00  0.82622024531E+02  0.82622024531E+02  0.00000000000E+00 0. -1.
          1   -1    0    0  501    0 -0.00000000000E+00 -0.00000000000E+00 -0.16634711268E+03  0.16634711268E+03  0.00000000000E+00 0. -1.
          2    1    1    2  501    0 -0.16693455815E+02  0.16146035189E+02 -0.36427773655E+02  0.43201257075E+02  0.00000000000E+00 0. -1.
          1    1    1    2  502    0 -0.54813255750E+02 -0.94239787388E+01 -0.33727006522E+02  0.65044718080E+02  0.00000000000E+00 0. -1.
         22    1    1    2    0    0  0.44551737180E+02 -0.63172033507E+01 -0.67098596302E+02  0.80789764015E+02  0.00000000000E+00 0. -1.
         22    1    1    2    0    0  0.26954974385E+02 -0.40485309970E+00  0.53528288325E+02  0.59933398045E+02  0.00000000000E+00 0. -1.
</event>
<event>
 6    1  0.4798235E-005  0.4674688E+03  0.7818608E-02  0.1130062E+00
          2   -1    0    0  502    0  0.00000000000E+00  0.00000000000E+00  0.71816743080E+03  0.71816743080E+03  0.00000000000E+00 0.  1.
          1   -1    0    0  501    0 -0.00000000000E+00 -0.00000000000E+00 -0.27839997623E+03  0.27839997623E+03  0.00000000000E+00 0.  1.
          2    1    1    2  501    0 -0.46728962114E+02  0.90045207198E+02 -0.43110869857E+02  0.11022831914E+03  0.00000000000E+00 0.  1.
          1    1    1    2  502    0  0.25966739123E+02 -0.30896011346E+01 -0.19252671207E+03  0.19429449821E+03  0.00000000000E+00 0.  1.
         22    1    1    2    0    0 -0.11289218007E+02  0.22506784357E+02  0.46492274752E+02  0.52872803944E+02  0.00000000000E+00 0.  1.
         22    1    1    2    0    0  0.32051440998E+02 -0.10946239042E+03  0.62891276174E+03  0.63917178573E+03  0.00000000000E+00 0.  1.
</event>
<event>
 6    1  0.2809573E-005  0.7519019E+02  0.7818608E-02  0.1347523E+00
          2   -1    0    0  502    0  0.00000000000E+00  0.00000000000E+00  0.20920248913E+02  0.20920248913E+02  0.00000000000E+00 0. -1.
          1   -1    0    0  501    0 -0.00000000000E+00 -0.00000000000E+00 -0.28853818558E+04  0.28853818558E+04  0.00000000000E+00 0.  1.
          2    1    1    2  501    0 -0.27428319553E+02 -0.31305880073E+02 -0.41462046889E+02  0.58749231254E+02  0.00000000000E+00 0. -1.
          1    1    1    2  502    0  0.24166110462E+01 -0.33091210920E+02 -0.24300494388E+04  0.24302759397E+04  0.00000000000E+00 0.  1.
         22    1    1    2    0    0  0.55777218255E+02  0.66411056422E+02 -0.36660218045E+03  0.37672096464E+03  0.00000000000E+00 0. -1.
         22    1    1    2    0    0 -0.30765509747E+02 -0.20139654294E+01 -0.26347940763E+02  0.40555969095E+02  0.00000000000E+00 0. -1.
</event>
<event>
 6    1  0.2809573E-005  0.7852745E+02  0.7818608E-02  0.1335109E+00
          2   -1    0    0  502    0  0.00000000000E+00  0.00000000000E+00  0.18610799958E+03  0.18610799958E+03  0.00000000000E+00 0. -1.
          1   -1    0    0  501    0 -0.00000000000E+00 -0.00000000000E+00 -0.11125227756E+03  0.11125227756E+03  0.00000000000E+00 0. -1.
          2    1    1    2  501    0 -0.36274278153E+02  0.36526880031E+02  0.70572268121E+02  0.87352625880E+02  0.00000000000E+00 0. -1.
          1    1    1    2  502    0  0.26721434654E+01 -0.37913231250E+02 -0.57386366623E+02  0.68831304860E+02  0.00000000000E+00 0. -1.
         22    1    1    2    0    0  0.57977584515E+02 -0.17926513214E+02 -0.11415024750E+02  0.61750003824E+02  0.00000000000E+00 0. -1.
         22    1    1    2    0    0 -0.24375449827E+02  0.19312864433E+02  0.73084845269E+02  0.79426342575E+02  0.00000000000E+00 0. -1.
</event>
<event>
 6    1  0.2809573E-005  0.1621186E+03  0.7818608E-02  0.1186580E+00
          2   -1    0    0  502    0  0.00000000000E+00  0.00000000000E+00  0.12146391888E+03  0.12146391888E+03  0.00000000000E+00 0. -1.
          1   -1    0    0  501    0 -0.00000000000E+00 -0.00000000000E+00 -0.55812289680E+03  0.55812289680E+03  0.00000000000E+00 0. -1.
          2    1    1    2  501    0  0.11918262113E+03 -0.63144024900E+02 -0.20036503490E+03  0.24153221787E+03  0.00000000000E+00 0. -1.
          1    1    1    2  502    0  0.22483579404E+02  0.36504573289E+01 -0.24089158244E+03  0.24196609612E+03  0.00000000000E+00 0. -1.
         22    1    1    2    0    0  0.11843745186E+02 -0.21965095753E+01 -0.25249816274E+02  0.27975921365E+02  0.00000000000E+00 0. -1.
         22    1    1    2    0    0 -0.15350994572E+03  0.61690077146E+02  0.29847455693E+02  0.16811258033E+03  0.00000000000E+00 0. -1.
</event>
<event>
 6    1  0.2809573E-005  0.2169359E+03  0.7818608E-02  0.1197791E+00
          2   -1    0    0  502    0  0.00000000000E+00  0.00000000000E+00  0.28952473786E+03  0.28952473786E+03  0.00000000000E+00 0. -1.
          1   -1    0    0  501    0 -0.00000000000E+00 -0.00000000000E+00 -0.65989171675E+03  0.65989171675E+03  0.00000000000E+00 0.  1.
          2    1    1    2  501    0 -0.12150092420E+03 -0.15479718913E+02 -0.32345258524E+03  0.34586655111E+03  0.00000000000E+00 0. -1.
          1    1    1    2  502    0  0.12460916881E+03  0.79813088422E+02 -0.28812326896E+03  0.32390213360E+03  0.00000000000E+00 0.  1.
         22    1    1    2    0    0 -0.33601517621E+02 -0.21514993275E+02  0.81358185886E+01  0.40720369180E+02  0.00000000000E+00 0.  1.
         22    1    1    2    0    0  0.30493273011E+02 -0.42818376234E+02  0.23307305673E+03  0.23892740072E+03  0.00000000000E+00 0. -1.
</event>
<event>
 6    1  0.2809573E-005  0.8747539E+02  0.7818608E-02  0.1367783E+00
          2   -1    0    0  502    0  0.00000000000E+00  0.00000000000E+00  0.25892472323E+03  0.25892472323E+03  0.00000000000E+00 0. -1.
          1   -1    0    0  501    0 -0.00000000000E+00 -0.00000000000E+00 -0.54309786721E+02  0.54309786721E+02  0.00000000000E+00 0. -1.
          2    1    1    2  501    0 -0.30531365407E+02  0.27705781601E+02  0.29464449355E+02  0.50674731213E+02  0.00000000000E+00 0. -1.
          1    1    1    2  502    0  0.42870146910E+02 -0.52240433534E+02  0.53730285357E+02  0.86335716575E+02  0.00000000000E+00 0. -1.
         22    1    1    2    0    0 -0.33625003865E+02  0.47815652649E+02  0.86091306513E+01  0.59085485982E+02  0.00000000000E+00 0. -1.
         22    1    1    2    0    0  0.21286222362E+02 -0.23281000716E+02  0.11281107115E+03  0.11713857619E+03  0.00000000000E+00 0. -1.
</event>
<event>
 6    1  0.2809573E-005  0.8914627E+02  0.7818608E-02  0.1309097E+00
          2   -1    0    0  502    0  0.00000000000E+00  0.00000000000E+00  0.23087359532E+03  0.23087359532E+03  0.00000000000E+00 0.  1.
          1   -1    0    0  501    0 -0.00000000000E+00 -0.00000000000E+00 -0.49107889185E+03  0.49107889185E+03  0.00000000000E+00 0.  1.
          2    1    1    2  501    0 -0.30558661581E+02 -0.26605939435E+02  0.28002894146E+02  0.49253120626E+02  0.00000000000E+00 0.  1.
          1    1    1    2  502    0 -0.14498881589E+02  0.35690981633E+02 -0.45622807528E+03  0.45785163580E+03  0.00000000000E+00 0.  1.
         22    1    1    2    0    0 -0.43689248456E+02  0.23035603431E+01  0.45346551151E+02  0.63010844481E+02  0.00000000000E+00 0.  1.
         22    1    1    2    0    0  0.88746791626E+02 -0.11388602540E+02  0.12267333345E+03  0.15183688627E+03  0.00000000000E+00 0.  1.
</event>
<event>
 6    1  0.2809573E-005  0.5059004E+02  0.7818608E-02  0.1473473E+00
          2   -1    0    0  502    0  0.00000000000E+00  0.00000000000E+00  0.13343253719E+03  0.13343253719E+03  0.00000000000E+00 0. -1.
          1   -1    0    0  501    0 -0.00000000000E+00 -0.00000000000E+00 -0.36893898452E+03  0.36893898452E+03  0.00000000000E+00 0. -1.
          2    1    1    2  501    0  0.42913623174E+02  0.15607471358E+02 -0.33867965362E+02  0.56852539907E+02  0.00000000000E+00 0. -1.
          1    1    1    2  502    0 -0.45791075315E+02 -0.92504327961E+00 -0.28929633066E+03  0.29289937729E+03  0.00000000000E+00 0. -1.
         22    1    1    2    0    0 -0.29237660891E+02 -0.13165310414E+02  0.10927151945E+03  0.11387901991E+03  0.00000000000E+00 0. -1.
         22    1    1    2    0    0  0.32115113031E+02 -0.15171176652E+01 -0.21613670753E+02  0.38740584591E+02  0.00000000000E+00 0. -1.
</event>
<event>
 6    1  0.2809573E-005  0.7740068E+02  0.7818608E-02  0.1345872E+00
          2   -1    0    0  502    0  0.00000000000E+00  0.00000000000E+00  0.18454263903E+03  0.18454263903E+03  0.00000000000E+00 0.  1.
          1   -1    0    0  501    0 -0.00000000000E+00 -0.00000000000E+00 -0.57715849382E+03  0.57715849382E+03  0.00000000000E+00 0. -1.
          2    1    1    2  501    0  0.67496031712E+01  0.21025789383E+02  0.16269971847E+02  0.27429052956E+02  0.00000000000E+00 0.  1.
          1    1    1    2  502    0  0.15972996553E+02 -0.64388042430E+02 -0.53963190053E+03  0.54369434860E+03  0.00000000000E+00 0. -1.
         22    1    1    2    0    0 -0.61392632874E+02  0.24028277350E+02  0.15834643019E+02  0.67802281696E+02  0.00000000000E+00 0.  1.
         22    1    1    2    0    0  0.38670033150E+02  0.19333975697E+02  0.11491143088E+03  0.12277544961E+03  0.00000000000E+00 0.  1.
</event>
<event>
 6    1  0.2809573E-005  0.6672543E+02  0.7818608E-02  0.1377852E+00
          2   -1    0    0  502    0  0.00000000000E+00  0.00000000000E+00  0.23655210767E+03  0.23655210767E+03  0.00000000000E+00 0. -1.
          1   -1    0    0  501    0 -0.00000000000E+00 -0.00000000000E+00 -0.53249284359E+02  0.53249284359E+02  0.00000000000E+00 0. -1.
          2    1    1    2  501    0  0.32500740278E+01 -0.34738125878E+02 -0.43523302911E+01  0.35160249568E+02  0.00000000000E+00 0. -1.
          1    1    1    2  502    0  0.27652297825E+02  0.21704660807E+02  0.20246664294E+02  0.40566849653E+02  0.00000000000E+00 0. -1.
         22    1    1    2    0    0 -0.94466757994E+01  0.57209874062E+02  0.15187113280E+03  0.16256398848E+03  0.00000000000E+00 0. -1.
         22    1    1    2    0    0 -0.21455696053E+02 -0.44176408990E+02  0.15537356511E+02  0.51510304326E+02  0.00000000000E+00 0. -1.
</event>
<event>
 6    1  0.2809573E-005  0.4549754E+02  0.7818608E-02  0.1473942E+00
          2   -1    0    0  502    0  0.00000000000E+00  0.00000000000E+00  0.95584084837E+02  0.95584084837E+02  0.00000000000E+00 0.  1.
          1   -1    0    0  501    0 -0.00000000000E+00 -0.00000000000E+00 -0.22033164570E+03  0.22033164570E+03  0.00000000000E+00 0. -1.
          2    1    1    2  501    0 -0.22707478270E+01 -0.20222077812E+02 -0.21088968612E+02  0.29305858183E+02  0.00000000000E+00 0.  1.
          1    1    1    2  502    0  0.25550815616E+02  0.95307137845E+01 -0.14970070559E+03  0.15216431887E+03  0.00000000000E+00 0. -1.
         22    1    1    2    0    0 -0.18666880266E+02 -0.32237715609E+02 -0.29444301528E+02  0.47483572097E+02  0.00000000000E+00 0.  1.
         22    1    1    2    0    0 -0.46131875232E+01  0.42929079637E+02  0.75486414865E+02  0.86961981387E+02  0.00000000000E+00 0.  1.
</event>
<event>
 6    1  0.2809573E-005  0.1085334E+03  0.7818608E-02  0.1278807E+00
          2   -1    0    0  502    0  0.00000000000E+00  0.00000000000E+00  0.29009455297E+03  0.29009455297E+03  0.00000000000E+00 0.  1.
          1   -1    0    0  501    0 -0.00000000000E+00 -0.00000000000E+00 -0.15440846999E+03  0.15440846999E+03  0.00000000000E+00 0.  1.
          2    1    1    2  501    0  0.57011334100E+02 -0.27740496833E+01 -0.68580589597E+02  0.89226032283E+02  0.00000000000E+00 0.  1.
          1    1    1    2  502    0 -0.49894628361E+01  0.28558189240E+02 -0.54736782827E+02  0.61940134859E+02  0.00000000000E+00 0.  1.
         22    1    1    2    0    0  0.27906610514E+02 -0.18127375274E+02  0.15074607843E+02  0.36532512182E+02  0.00000000000E+00 0. -1.
         22    1    1    2    0    0 -0.79928481778E+02 -0.76567642830E+01  0.24392884756E+03  0.25680434364E+03  0.00000000000E+00 0.  1.
</event>
<event>
 6    1  0.2809573E-005  0.1367952E+03  0.7818608E-02  0.1250638E+00
          2   -1    0    0  502    0  0.00000000000E+00  0.00000000000E+00  0.21348775345E+03  0.21348775345E+03  0.00000000000E+00 0.  1.
          1   -1    0    0  501    0 -0.00000000000E+00 -0.00000000000E+00 -0.88264579225E+02  0.88264579225E+02  0.00000000000E+00 0.  1.
          2    1    1    2  501    0 -0.47060581618E+01 -0.95143279415E+02  0.56372137088E+02  0.11068969438E+03  0.00000000000E+00 0.  1.
          1    1    1    2  502    0  0.23243246535E+02  0.18718648999E+02 -0.26906765533E+01  0.29964580260E+02  0.00000000000E+00 0.  1.
         22    1    1    2    0    0  0.59497037318E+00  0.11244028294E+02 -0.33870798483E+02  0.35693320830E+02  0.00000000000E+00 0.  1.
         22    1    1    2    0    0 -0.19132158747E+02  0.65180602123E+02  0.10541251217E+03  0.12540473721E+03  0.00000000000E+00 0.  1.
</event>
<event>
 6    1  0.2809573E-005  0.1724487E+03  0.7818608E-02  0.1244783E+00
          2   -1    0    0  502    0  0.00000000000E+00  0.00000000000E+00  0.22392180827E+02  0.22392180827E+02  0.00000000000E+00 0. -1.
          1   -1    0    0  501    0 -0.00000000000E+00 -0.00000000000E+00 -0.86301514946E+03  0.86301514946E+03  0.00000000000E+00 0. -1.
          2    1    1    2  501    0 -0.23444895676E+01 -0.52159432220E+02 -0.42188753110E+03  0.42510609488E+03  0.00000000000E+00 0. -1.
          1    1    1    2  502    0 -0.49980233149E+02  0.11794034223E+02 -0.10491196511E+03  0.11680600743E+03  0.00000000000E+00 0. -1.
         22    1    1    2    0    0 -0.96959725062E+01 -0.37859272992E+02 -0.73053408019E+02  0.82850086648E+02  0.00000000000E+00 0. -1.
         22    1    1    2    0    0  0.62020695223E+02  0.78224670990E+02 -0.24077006440E+03  0.26064514133E+03  0.00000000000E+00 0.  1.
</event>
<event>
 6    1  0.2809573E-005  0.7400861E+02  0.7818608E-02  0.1447830E+00
          2   -1    0    0  502    0  0.00000000000E+00  0.00000000000E+00  0.27209209574E+02  0.27209209574E+02  0.00000000000E+00 0. -1.
          1   -1    0    0  501    0 -0.00000000000E+00 -0.00000000000E+00 -0.48822450374E+03  0.48822450374E+03  0.00000000000E+00 0. -1.
          2    1    1    2  501    0  0.24161067137E+02 -0.16907014050E+02 -0.13752169237E+03  0.14064785872E+03  0.00000000000E+00 0. -1.
          1    1    1    2  502    0  0.30117294682E+02  0.31322136316E+02 -0.13199657775E+03  0.13896483081E+03  0.00000000000E+00 0. -1.
         22    1    1    2    0    0 -0.13729110194E+02 -0.56870702855E+01  0.17379220634E+02  0.22866319009E+02  0.00000000000E+00 0. -1.
         22    1    1    2    0    0 -0.40549251624E+02 -0.87280519798E+01 -0.20887624467E+03  0.21295470478E+03  0.00000000000E+00 0. -1.
</event>
<event>
 6    1  0.2809573E-005  0.1890123E+03  0.7818608E-02  0.1213231E+00
          2   -1    0    0  502    0  0.00000000000E+00  0.00000000000E+00  0.36359961133E+03  0.36359961133E+03  0.00000000000E+00 0.  1.
          1   -1    0    0  501    0 -0.00000000000E+00 -0.00000000000E+00 -0.18244097962E+04  0.18244097962E+04  0.00000000000E+00 0.  1.
          2    1    1    2  501    0 -0.37298585616E+01  0.31073126602E+02 -0.58769479877E+02  0.66583051948E+02  0.00000000000E+00 0.  1.
          1    1    1    2  502    0 -0.15028449691E+02 -0.30654549172E+02 -0.17495835199E+04  0.17499165834E+04  0.00000000000E+00 0.  1.
         22    1    1    2    0    0 -0.34839460779E+02 -0.43152025238E+02  0.21805050548E+03  0.22499312934E+03  0.00000000000E+00 0.  1.
         22    1    1    2    0    0  0.53597769032E+02  0.42733447808E+02  0.12949230948E+03  0.14651664281E+03  0.00000000000E+00 0. -1.
</event>
<event>
 6    1  0.2809573E-005  0.2258841E+03  0.7818608E-02  0.1228639E+00
          2   -1    0    0  502    0  0.00000000000E+00  0.00000000000E+00  0.23937714976E+03  0.23937714976E+03  0.00000000000E+00 0.  1.
          1   -1    0    0  501    0 -0.00000000000E+00 -0.00000000000E+00 -0.27719293078E+03  0.27719293078E+03  0.00000000000E+00 0.  1.
          2    1    1    2  501    0  0.79876409195E+02 -0.19958938120E+01 -0.62230866247E+01  0.80143316285E+02  0.00000000000E+00 0.  1.
          1    1    1    2  502    0 -0.18199721758E+03 -0.10149774496E+03 -0.99710730649E+02  0.23101300666E+03  0.00000000000E+00 0.  1.
         22    1    1    2    0    0  0.12281128590E+03  0.90978999447E+02  0.23459619830E+02  0.15462905305E+03  0.00000000000E+00 0.  1.
         22    1    1    2    0    0 -0.20690477525E+02  0.12514639329E+02  0.44658416424E+02  0.50784704540E+02  0.00000000000E+00 0.  1.
</event>
<event>
 6    1  0.2809573E-005  0.8928755E+02  0.7818608E-02  0.1318745E+00
          2   -1    0    0  502    0  0.00000000000E+00  0.00000000000E+00  0.60277841129E+03  0.60277841129E+03  0.00000000000E+00 0.  1.
          1   -1    0    0  501    0 -0.00000000000E+00 -0.00000000000E+00 -0.32118632076E+02  0.32118632076E+02  0.00000000000E+00 0. -1.
          2    1    1    2  501    0 -0.12580620377E+02 -0.27271428058E+02 -0.12874935350E+01  0.30060945378E+02  0.00000000000E+00 0.  1.
          1    1    1    2  502    0  0.39792018199E+02 -0.32507896392E+02  0.15786130905E+03  0.16601313483E+03  0.00000000000E+00 0. -1.
         22    1    1    2    0    0  0.28138416512E+02  0.82889617282E+01  0.15589050200E+02  0.33218908117E+02  0.00000000000E+00 0. -1.
         22    1    1    2    0    0 -0.55349814334E+02  0.51490362722E+02  0.39849691350E+03  0.40560405504E+03  0.00000000000E+00 0.  1.
</event>
<event>
 6    1  0.2809573E-005  0.1921004E+03  0.7818608E-02  0.1265616E+00
          2   -1    0    0  502    0  0.00000000000E+00  0.00000000000E+00  0.22072923674E+03  0.22072923674E+03  0.00000000000E+00 0. -1.
          1   -1    0    0  501    0 -0.00000000000E+00 -0.00000000000E+00 -0.26553312113E+03  0.26553312113E+03  0.00000000000E+00 0.  1.
          2    1    1    2  501    0  0.60237581123E+01 -0.71226118490E+02  0.63025477329E+02  0.95297725101E+02  0.00000000000E+00 0. -1.
          1    1    1    2  502    0 -0.21370364638E+02 -0.27223953609E+02 -0.20085722641E+03  0.20381722581E+03  0.00000000000E+00 0.  1.
         22    1    1    2    0    0  0.61743434669E+01 -0.17664470235E+02  0.64595295772E+02  0.67251083722E+02  0.00000000000E+00 0.  1.
         22    1    1    2    0    0  0.91722630584E+01  0.11611454233E+03  0.28432568925E+02  0.11989632324E+03  0.00000000000E+00 0. -1.
</event>
<event>
 6    1  0.2809573E-005  0.8828754E+02  0.7818608E-02  0.1365829E+00
          2   -1    0    0  502    0  0.00000000000E+00  0.00000000000E+00  0.42280065711E+02  0.42280065711E+02  0.00000000000E+00 0.  1.
          1   -1    0    0  501    0 -0.00000000000E+00 -0.00000000000E+00 -0.58910851271E+03  0.58910851271E+03  0.00000000000E+00 0.  1.
          2    1    1    2  501    0  0.18235036817E+02  0.30820718554E+02 -0.29909314253E+02  0.46658336222E+02  0.00000000000E+00 0.  1.
          1    1    1    2  502    0 -0.34158257647E+02 -0.69952727179E+02 -0.41079328079E+03  0.41810440101E+03  0.00000000000E+00 0.  1.
         22    1    1    2    0    0 -0.31315290229E+02  0.49030066102E+01  0.12783544614E+02  0.34177564115E+02  0.00000000000E+00 0.  1.
         22    1    1    2    0    0  0.47238511060E+02  0.34229002015E+02 -0.11890939657E+03  0.13244827707E+03  0.00000000000E+00 0. -1.
</event>
<event>
 6    1  0.2809573E-005  0.1408903E+03  0.7818608E-02  0.1318643E+00
          2   -1    0    0  502    0  0.00000000000E+00  0.00000000000E+00  0.11562395476E+03  0.11562395476E+03  0.00000000000E+00 0.  1.
          1   -1    0    0  501    0 -0.00000000000E+00 -0.00000000000E+00 -0.55353191995E+03  0.55353191995E+03  0.00000000000E+00 0.  1.
          2    1    1    2  501    0  0.85083391048E+02 -0.30979618856E+02 -0.26380569556E+02  0.94312537167E+02  0.00000000000E+00 0.  1.
          1    1    1    2  502    0 -0.12041373902E+03  0.37387995599E+02 -0.42571110888E+03  0.44399017892E+03  0.00000000000E+00 0.  1.
         22    1    1    2    0    0  0.70186947328E+01 -0.16161715419E+02  0.67468185466E+02  0.69731048831E+02  0.00000000000E+00 0.  1.
         22    1    1    2    0    0  0.28311653237E+02  0.97533386758E+01 -0.53284472230E+02  0.61122109790E+02  0.00000000000E+00 0. -1.
</event>
<event>
 6    1  0.2809573E-005  0.1442755E+03  0.7818608E-02  0.1303475E+00
          2   -1    0    0  502    0  0.00000000000E+00  0.00000000000E+00  0.35765157551E+02  0.35765157551E+02  0.00000000000E+00 0. -1.
          1   -1    0    0  501    0 -0.00000000000E+00 -0.00000000000E+00 -0.99512063612E+03  0.99512063612E+03  0.00000000000E+00 0. -1.
          2    1    1    2  501    0  0.97141945355E+01  0.43919258785E+02 -0.59635156134E+03  0.59804552634E+03  0.00000000000E+00 0. -1.
          1    1    1    2  502    0  0.32918487110E+02 -0.54249346061E+02 -0.24140668237E+03  0.24960730085E+03  0.00000000000E+00 0. -1.
         22    1    1    2    0    0  0.15860052384E+02 -0.14661553117E+02  0.19095500778E+02  0.28829508345E+02  0.00000000000E+00 0. -1.
         22    1    1    2    0    0 -0.58492734029E+02  0.24991640393E+02 -0.14069273563E+03  0.15440345813E+03  0.00000000000E+00 0. -1.
</event>
<event>
 6    1  0.2809573E-005  0.3256915E+03  0.7818608E-02  0.1073413E+00
          2   -1    0    0  502    0  0.00000000000E+00  0.00000000000E+00  0.78430826603E+03  0.78430826603E+03  0.00000000000E+00 0. -1.
          1   -1    0    0  501    0 -0.00000000000E+00 -0.00000000000E+00 -0.45310731978E+03  0.45310731978E+03  0.00000000000E+00 0.  1.
          2    1    1    2  501    0 -0.31348616735E+03  0.54261072195E+02  0.38530862990E+03  0.49968047926E+03  0.00000000000E+00 0. -1.
          1    1    1    2  502    0  0.32003998602E+02  0.80059477836E+02 -0.30535446864E+03  0.31729344059E+03  0.00000000000E+00 0.  1.
         22    1    1    2    0    0 -0.11531969754E+02 -0.46667876808E+01  0.25850103909E+02  0.28687856417E+02  0.00000000000E+00 0. -1.
         22    1    1    2    0    0  0.29301413850E+03 -0.12965376235E+03  0.22539668108E+03  0.39175380955E+03  0.00000000000E+00 0.  1.
</event>
<event>
 6    1  0.2809573E-005  0.2345019E+03  0.7818608E-02  0.1231527E+00
          2   -1    0    0  502    0  0.00000000000E+00  0.00000000000E+00  0.24418389957E+03  0.24418389957E+03  0.00000000000E+00 0.  1.
          1   -1    0    0  501    0 -0.00000000000E+00 -0.00000000000E+00 -0.68030520414E+03  0.68030520414E+03  0.00000000000E+00 0.  1.
          2    1    1    2  501    0  0.56675264111E+02 -0.40927786471E+02 -0.14986996568E+02  0.71496708551E+02  0.00000000000E+00 0.  1.
          1    1    1    2  502    0  0.98401191484E+02  0.58487617715E+02 -0.58380458282E+03  0.59492132827E+03  0.00000000000E+00 0.  1.
         22    1    1    2    0    0 -0.14689284885E+03  0.10840465907E+01  0.69147963746E+02  0.16235801518E+03  0.00000000000E+00 0.  1.
         22    1    1    2    0    0 -0.81836067397E+01 -0.18643877834E+02  0.93522311076E+02  0.95713051717E+02  0.00000000000E+00 0.  1.
</event>
<event>
 6    1  0.2809573E-005  0.1307483E+03  0.7818608E-02  0.1227927E+00
          2   -1    0    0  502    0  0.00000000000E+00  0.00000000000E+00  0.64015407565E+03  0.64015407565E+03  0.00000000000E+00 0.  1.
          1   -1    0    0  501    0 -0.00000000000E+00 -0.00000000000E+00 -0.96494908692E+02  0.96494908692E+02  0.00000000000E+00 0. -1.
          2    1    1    2  501    0 -0.53717927472E+01  0.98974998913E+02  0.21917118759E+03  0.24054296090E+03  0.00000000000E+00 0.  1.
          1    1    1    2  502    0  0.22834304439E+02  0.19498593359E+01 -0.68476400527E+02  0.72209589666E+02  0.00000000000E+00 0. -1.
         22    1    1    2    0    0  0.13361694364E+02  0.25120573318E+02  0.87626611746E+02  0.92130348779E+02  0.00000000000E+00 0.  1.
         22    1    1    2    0    0 -0.30824206056E+02 -0.12604543157E+03  0.30533776815E+03  0.33176608500E+03  0.00000000000E+00 0.  1.
</event>
<event>
 6    1  0.2809573E-005  0.2709739E+03  0.7818608E-02  0.1154301E+00
          2   -1    0    0  502    0  0.00000000000E+00  0.00000000000E+00  0.11825404420E+03  0.11825404420E+03  0.00000000000E+00 0. -1.
          1   -1    0    0  501    0 -0.00000000000E+00 -0.00000000000E+00 -0.17901290720E+04  0.17901290720E+04  0.00000000000E+00 0.  1.
          2    1    1    2  501    0 -0.12400762244E+03 -0.12880277974E+03 -0.13563016758E+02  0.17930979314E+03  0.00000000000E+00 0. -1.
          1    1    1    2  502    0  0.13307671256E+03  0.14995078684E+03 -0.15482972388E+04  0.15612235552E+04  0.00000000000E+00 0.  1.
         22    1    1    2    0    0 -0.19340621729E+02  0.50322046247E+02 -0.55532165869E+02  0.77396314082E+02  0.00000000000E+00 0.  1.
         22    1    1    2    0    0  0.10271531612E+02 -0.71470053350E+02 -0.54482606387E+02  0.90453453700E+02  0.00000000000E+00 0. -1.
</event>
<event>
 6    1  0.2809573E-005  0.1824147E+03  0.7818608E-02  0.1219393E+00
          2   -1    0    0  502    0  0.00000000000E+00  0.00000000000E+00  0.94944088844E+03  0.94944088844E+03  0.00000000000E+00 0. -1.
          1   -1    0    0  501    0 -0.00000000000E+00 -0.00000000000E+00 -0.49178632805E+03  0.49178632805E+03  0.00000000000E+00 0. -1.
          2    1    1    2  501    0 -0.77811948576E+02  0.95211736659E+01  0.14331218364E+03  0.16335156586E+03  0.00000000000E+00 0. -1.
          1    1    1    2  502    0  0.29461912449E+02  0.13192660424E+02 -0.47520335762E+03  0.47629852159E+03  0.00000000000E+00 0. -1.
         22    1    1    2    0    0  0.40607496773E+02 -0.75071486559E+02  0.50066676385E+03  0.50788965860E+03  0.00000000000E+00 0. -1.
         22    1    1    2    0    0  0.77425393540E+01  0.52357652469E+02  0.28887897052E+03  0.29368747044E+03  0.00000000000E+00 0. -1.
</event>
<event>
 6    1  0.2809573E-005  0.8263472E+02  0.7818608E-02  0.1424547E+00
          2   -1    0    0  502    0  0.00000000000E+00  0.00000000000E+00  0.46314173440E+02  0.46314173440E+02  0.00000000000E+00 0. -1.
          1   -1    0    0  501    0 -0.00000000000E+00 -0.00000000000E+00 -0.50099534956E+03  0.50099534956E+03  0.00000000000E+00 0. -1.
          2    1    1    2  501    0 -0.36480928477E+02 -0.38491393042E+02 -0.27087187427E+03  0.27601452453E+03  0.00000000000E+00 0. -1.
          1    1    1    2  502    0  0.53394848351E+02  0.32309092204E+02 -0.92724425216E+02  0.11177077570E+03  0.00000000000E+00 0. -1.
         22    1    1    2    0    0 -0.19490484728E+02  0.21109270275E+02 -0.12187175345E+03  0.12521263745E+03  0.00000000000E+00 0. -1.
         22    1    1    2    0    0  0.25765648543E+01 -0.14926969438E+02  0.30786876819E+02  0.34311585322E+02  0.00000000000E+00 0. -1.
</event>
<event>
 6    1  0.2809573E-005  0.1427444E+03  0.7818608E-02  0.1210350E+00
          2   -1    0    0  502    0  0.00000000000E+00  0.00000000000E+00  0.19585015277E+03  0.19585015277E+03  0.00000000000E+00 0.  1.
          1   -1    0    0  501    0 -0.00000000000E+00 -0.00000000000E+00 -0.20026297165E+03  0.20026297165E+03  0.00000000000E+00 0. -1.
          2    1    1    2  501    0 -0.11929809622E+03  0.28036533982E+02 -0.12687293582E+02  0.12320328899E+03  0.00000000000E+00 0.  1.
          1    1    1    2  502    0  0.71301706132E+01 -0.24934875946E+02 -0.79299635843E+02  0.83432725092E+02  0.00000000000E+00 0. -1.
         22    1    1    2    0    0  0.13826078902E+03  0.12145942869E+01  0.86322024333E+02  0.16300003959E+03  0.00000000000E+00 0. -1.
         22    1    1    2    0    0 -0.26092863416E+02 -0.43162523227E+01  0.12520862177E+01  0.26477070745E+02  0.00000000000E+00 0.  1.
</event>
<event>
 6    1  0.2809573E-005  0.9102138E+02  0.7818608E-02  0.1334812E+00
          2   -1    0    0  502    0  0.00000000000E+00  0.00000000000E+00  0.26546836625E+03  0.26546836625E+03  0.00000000000E+00 0.  1.
          1   -1    0    0  501    0 -0.00000000000E+00 -0.00000000000E+00 -0.78994989607E+03  0.78994989607E+03  0.00000000000E+00 0.  1.
          2    1    1    2  501    0  0.31744044902E+02  0.14322629352E+02  0.20651785816E+02  0.40488496584E+02  0.00000000000E+00 0.  1.
          1    1    1    2  502    0 -0.29707194651E+02 -0.24593274779E+01 -0.76218529513E+03  0.76276797902E+03  0.00000000000E+00 0.  1.
         22    1    1    2    0    0 -0.47210588843E+01  0.48663697311E+02  0.16562890764E+03  0.17269446684E+03  0.00000000000E+00 0.  1.
         22    1    1    2    0    0  0.26842086336E+01 -0.60526999185E+02  0.51423071864E+02  0.79467319864E+02  0.00000000000E+00 0.  1.
</event>
<event>
 6    1  0.2809573E-005  0.1306743E+03  0.7818608E-02  0.1227772E+00
          2   -1    0    0  502    0  0.00000000000E+00  0.00000000000E+00  0.21730142225E+02  0.21730142225E+02  0.00000000000E+00 0. -1.
          1   -1    0    0  501    0 -0.00000000000E+00 -0.00000000000E+00 -0.11479549633E+04  0.11479549633E+04  0.00000000000E+00 0.  1.
          2    1    1    2  501    0  0.28239380034E+02 -0.92427878943E+02 -0.39422976136E+03  0.40590328914E+03  0.00000000000E+00 0. -1.
          1    1    1    2  502    0 -0.35508083428E+02 -0.61443069141E+01 -0.31253980074E+03  0.31461039961E+03  0.00000000000E+00 0.  1.
         22    1    1    2    0    0  0.69299707205E+01  0.12950756103E+03 -0.34214369138E+03  0.36589962888E+03  0.00000000000E+00 0. -1.
         22    1    1    2    0    0  0.33873267330E+00 -0.30935375174E+02 -0.77311567611E+02  0.83271787920E+02  0.00000000000E+00 0. -1.
</event>
<event>
 6    1  0.2809573E-005  0.1212235E+03  0.7818608E-02  0.1329621E+00
          2   -1    0    0  502    0  0.00000000000E+00  0.00000000000E+00  0.75784750512E+02  0.75784750512E+02  0.00000000000E+00 0. -1.
          1   -1    0    0  501    0 -0.00000000000E+00 -0.00000000000E+00 -0.32181082060E+03  0.32181082060E+03  0.00000000000E+00 0. -1.
          2    1    1    2  501    0  0.38108528500E+02  0.17072955820E+02 -0.15932387216E+03  0.16470531869E+03  0.00000000000E+00 0. -1.
          1    1    1    2  502    0 -0.48961054267E+02 -0.61610711393E+02 -0.50891136828E+02  0.93717513844E+02  0.00000000000E+00 0. -1.
         22    1    1    2    0    0  0.12378800720E+02  0.67250270767E+02 -0.70156633147E+02  0.97968294872E+02  0.00000000000E+00 0. -1.
         22    1    1    2    0    0 -0.15262749531E+01 -0.22712515193E+02  0.34345572049E+02  0.41204443705E+02  0.00000000000E+00 0. -1.
</event>
<event>
 6    1  0.2809573E-005  0.8159122E+02  0.7818608E-02  0.1325876E+00
          2   -1    0    0  502    0  0.00000000000E+00  0.00000000000E+00  0.16557616494E+02  0.16557616494E+02  0.00000000000E+00 0.  1.
          1   -1    0    0  501    0 -0.00000000000E+00 -0.00000000000E+00 -0.13489188085E+04  0.13489188085E+04  0.00000000000E+00 0. -1.
          2    1    1    2  501    0  0.26870257110E+02 -0.36354691858E+02 -0.10097423744E+03  0.11063214254E+03  0.00000000000E+00 0.  1.
          1    1    1    2  502    0  0.45385476682E+02 -0.28949154525E+02 -0.67836955232E+03  0.68050212679E+03  0.00000000000E+00 0. -1.
         22    1    1    2    0    0  0.69109457326E+01 -0.24035189376E+02 -0.36735181326E+02  0.44440128784E+02  0.00000000000E+00 0. -1.
         22    1    1    2    0    0 -0.79166679525E+02  0.89339035759E+02 -0.51628222094E+03  0.52990202691E+03  0.00000000000E+00 0.  1.
</event>
<event>
 6    1  0.2809573E-005  0.1818776E+03  0.7818608E-02  0.1168987E+00
          2   -1    0    0  502    0  0.00000000000E+00  0.00000000000E+00  0.67572682652E+02  0.67572682652E+02  0.00000000000E+00 0.  1.
          1   -1    0    0  501    0 -0.00000000000E+00 -0.00000000000E+00 -0.14153431832E+04  0.14153431832E+04  0.00000000000E+00 0. -1.
          2    1    1    2  501    0  0.12301957394E+03  0.13561284792E+03 -0.21146075344E+03  0.27971469454E+03  0.00000000000E+00 0.  1.
          1    1    1    2  502    0 -0.10047169755E+02 -0.64353186278E+02 -0.91469316888E+03  0.91700919919E+03  0.00000000000E+00 0. -1.
         22    1    1    2    0    0 -0.13444271400E+03 -0.73564685772E+02 -0.16303169147E+03  0.22375419272E+03  0.00000000000E+00 0. -1.
         22    1    1    2    0    0  0.21470309807E+02  0.23050241256E+01 -0.58584886779E+02  0.62437779416E+02  0.00000000000E+00 0. -1.
</event>
<event>
 6    1  0.2809573E-005  0.1653987E+03  0.7818608E-02  0.1270608E+00
          2   -1    0    0  502    0  0.00000000000E+00  0.00000000000E+00  0.94897181362E+02  0.94897181362E+02  0.00000000000E+00 0.  1.
          1   -1    0    0  501    0 -0.00000000000E+00 -0.00000000000E+00 -0.29432772778E+04  0.29432772778E+04  0.00000000000E+00 0. -1.
          2    1    1    2  501    0 -0.13886865678E+02 -0.20152278512E+02  0.25374409636E+02  0.35253652746E+02  0.00000000000E+00 0.  1.
          1    1    1    2  502    0  0.79270279351E+02  0.12686390545E+03 -0.28122940630E+04  0.28162698956E+04  0.00000000000E+00 0. -1.
         22    1    1    2    0    0  0.26517599683E+02  0.22295727189E+01 -0.31090622319E+02  0.40924086839E+02  0.00000000000E+00 0.  1.
         22    1    1    2    0    0 -0.91901013356E+02 -0.10894119965E+03 -0.30369820773E+02  0.14572682406E+03  0.00000000000E+00 0. -1.
</event>
<event>
 6    1  0.2809573E-005  0.7606947E+02  0.7818608E-02  0.1343990E+00
          2   -1    0    0  502    0  0.00000000000E+00  0.00000000000E+00  0.11817703593E+03  0.11817703593E+03  0.00000000000E+00 0.  1.
          1   -1    0    0  501    0 -0.00000000000E+00 -0.00000000000E+00 -0.10919179356E+04  0.10919179356E+04  0.00000000000E+00 0.  1.
          2    1    1    2  501    0 -0.19847974518E+02  0.33238782809E+02 -0.74990908532E-01  0.38713878632E+02  0.00000000000E+00 0.  1.
          1    1    1    2  502    0  0.29262114798E+02  0.67882957239E+01 -0.10276929232E+04  0.10281318479E+04  0.00000000000E+00 0.  1.
         22    1    1    2    0    0 -0.53253436527E+01 -0.73324902303E+02  0.73913386185E+02  0.10425012825E+03  0.00000000000E+00 0.  1.
         22    1    1    2    0    0 -0.40887966272E+01  0.33297823769E+02 -0.19886371780E+02  0.38999116762E+02  0.00000000000E+00 0.  1.
</event>
<event>
 6    1  0.2809573E-005  0.9053532E+02  0.7818608E-02  0.1339725E+00
          2   -1    0    0  502    0  0.00000000000E+00  0.00000000000E+00  0.13158050507E+03  0.13158050507E+03  0.00000000000E+00 0. -1.
          1   -1    0    0  501    0 -0.00000000000E+00 -0.00000000000E+00 -0.10589803546E+03  0.10589803546E+03  0.00000000000E+00 0. -1.
          2    1    1    2  501    0  0.18376831681E+02  0.14324525983E+02 -0.14347977044E+02  0.27363560304E+02  0.00000000000E+00 0. -1.
          1    1    1    2  502    0 -0.24424915476E+02 -0.51173133724E+02 -0.30607565206E+02  0.64436706612E+02  0.00000000000E+00 0. -1.
         22    1    1    2    0    0 -0.42854364149E+01  0.81471703970E+02  0.44052675874E+02  0.92718076796E+02  0.00000000000E+00 0. -1.
         22    1    1    2    0    0  0.10333520210E+02 -0.44623096229E+02  0.26585335985E+02  0.52960196813E+02  0.00000000000E+00 0. -1.
</event>
<event>
 6    1  0.4208872E-005  0.3383228E+02  0.7818608E-02  0.1607213E+00
          2   -1    0    0  502    0  0.00000000000E+00  0.00000000000E+00  0.11517620971E+03  0.11517620971E+03  0.00000000000E+00 0. -1.
          1   -1    0    0  501    0 -0.00000000000E+00 -0.00000000000E+00 -0.83751350953E+03  0.83751350953E+03  0.00000000000E+00 0. -1.
          2    1    1    2  501    0  0.25929532554E+02 -0.28038041289E+02 -0.87723673570E+02  0.95676095878E+02  0.00000000000E+00 0. -1.
          1    1    1    2  502    0 -0.26327714573E+02  0.16136138454E+02 -0.70766584226E+03  0.70833923216E+03  0.00000000000E+00 0. -1.
         22    1    1    2    0    0 -0.93864725023E+01  0.16229912130E+02  0.10929187255E+03  0.11088836422E+03  0.00000000000E+00 0. -1.
         22    1    1    2    0    0  0.97846545211E+01 -0.43280092954E+01 -0.36239656544E+02  0.37786026980E+02  0.00000000000E+00 0.  1.
</event>
<event>
 6    1  0.2809573E-005  0.1087859E+03  0.7818608E-02  0.1300298E+00
          2   -1    0    0  502    0  0.00000000000E+00  0.00000000000E+00  0.56431568352E+03  0.56431568352E+03  0.00000000000E+00 0. -1.
          1   -1    0    0  501    0 -0.00000000000E+00 -0.00000000000E+00 -0.12335742455E+04  0.12335742455E+04  0.00000000000E+00 0. -1.
          2    1    1    2  501    0  0.59920162589E+01 -0.41879429076E+02  0.12666798620E+03  0.13354613273E+03  0.00000000000E+00 0. -1.
          1    1    1    2  502    0 -0.27741602872E+02 -0.32563585822E+01 -0.12191132837E+04  0.12194332285E+04  0.00000000000E+00 0. -1.
         22    1    1    2    0    0 -0.47971368501E+02  0.10155596728E+02  0.25287747421E+03  0.25758766528E+03  0.00000000000E+00 0. -1.
         22    1    1    2    0    0  0.69720955114E+02  0.34980190931E+02  0.17030926125E+03  0.18732290252E+03  0.00000000000E+00 0. -1.
</event>
<event>
 6    1  0.2809573E-005  0.9361495E+02  0.7818608E-02  0.1304661E+00
          2   -1    0    0  502    0  0.00000000000E+00  0.00000000000E+00  0.33220117929E+03  0.33220117929E+03  0.00000000000E+00 0.  1.
          1   -1    0    0  501    0 -0.00000000000E+00 -0.00000000000E+00 -0.11417808021E+03  0.11417808021E+03  0.00000000000E+00 0.  1.
          2    1    1    2  501    0 -0.34943996692E+02 -0.69553800727E+02 -0.13417054328E+02  0.78986273790E+02  0.00000000000E+00 0.  1.
          1    1    1    2  502    0  0.27804129110E+02  0.25448302055E+02 -0.47386300544E+02  0.60548717182E+02  0.00000000000E+00 0.  1.
         22    1    1    2    0    0 -0.27808263311E+02 -0.21346460950E+02  0.26813051413E+02  0.44135140529E+02  0.00000000000E+00 0. -1.
         22    1    1    2    0    0  0.34948130893E+02  0.65451959622E+02  0.25201340254E+03  0.26270912800E+03  0.00000000000E+00 0.  1.
</event>
<event>
 6    1  0.2809573E-005  0.1368506E+03  0.7818608E-02  0.1307541E+00
          2   -1    0    0  502    0  0.00000000000E+00  0.00000000000E+00  0.50739982772E+02  0.50739982772E+02  0.00000000000E+00 0. -1.
          1   -1    0    0  501    0 -0.00000000000E+00 -0.00000000000E+00 -0.76921029498E+03  0.76921029498E+03  0.00000000000E+00 0.  1.
          2    1    1    2  501    0 -0.23703029523E+02  0.54908201038E+02 -0.55468841340E+02  0.81569213000E+02  0.00000000000E+00 0. -1.
          1    1    1    2  502    0 -0.42955785491E+02  0.41567149677E+01 -0.54261175841E+03  0.54432526871E+03  0.00000000000E+00 0.  1.
         22    1    1    2    0    0  0.50133232231E+02 -0.42362667647E+02 -0.14552933163E+03  0.15964561675E+03  0.00000000000E+00 0. -1.
         22    1    1    2    0    0  0.16525582783E+02 -0.16702248359E+02  0.25139619175E+02  0.34410179291E+02  0.00000000000E+00 0. -1.
</event>
<event>
 6    1  0.2809573E-005  0.1428817E+03  0.7818608E-02  0.1254567E+00
          2   -1    0    0  502    0  0.00000000000E+00  0.00000000000E+00  0.73352967921E+03  0.73352967921E+03  0.00000000000E+00 0. -1.
          1   -1    0    0  501    0 -0.00000000000E+00 -0.00000000000E+00 -0.50207694990E+03  0.50207694990E+03  0.00000000000E+00 0. -1.
          2    1    1    2  501    0 -0.14562060498E+02 -0.12363080551E+03  0.29877452087E+03  0.32367088840E+03  0.00000000000E+00 0. -1.
          1    1    1    2  502    0  0.34647281304E+02  0.12207851773E+03 -0.47222090320E+03  0.48897462103E+03  0.00000000000E+00 0. -1.
         22    1    1    2    0    0 -0.81527656327E+01 -0.53677640632E+02  0.28859526281E+03  0.29365793435E+03  0.00000000000E+00 0.  1.
         22    1    1    2    0    0 -0.11932455173E+02  0.55229928413E+02  0.11630384884E+03  0.12930318532E+03  0.00000000000E+00 0. -1.
</event>
<event>
 6    1  0.2809573E-005  0.6068818E+02  0.7818608E-02  0.1479153E+00
          2   -1    0    0  502    0  0.00000000000E+00  0.00000000000E+00  0.49394929271E+02  0.49394929271E+02  0.00000000000E+00 0. -1.
          1   -1    0    0  501    0 -0.00000000000E+00 -0.00000000000E+00 -0.25188256866E+04  0.25188256866E+04  0.00000000000E+00 0.  1.
          2    1    1    2  501    0  0.34502656961E+02  0.22152260515E+02 -0.36970736400E+03  0.37197404611E+03  0.00000000000E+00 0. -1.
          1    1    1    2  502    0 -0.37231042892E+02 -0.46089387842E+02 -0.20666333679E+04  0.20674824932E+04  0.00000000000E+00 0.  1.
         22    1    1    2    0    0  0.12687640878E+02  0.99934514878E+01 -0.78544135731E+02  0.80187446408E+02  0.00000000000E+00 0.  1.
         22    1    1    2    0    0 -0.99592549471E+01  0.13943675839E+02  0.45454110313E+02  0.48576630177E+02  0.00000000000E+00 0. -1.
</event>
<event>
 6    1  0.2809573E-005  0.7304839E+02  0.7818608E-02  0.1351597E+00
          2   -1    0    0  502    0  0.00000000000E+00  0.00000000000E+00  0.99706710593E+02  0.99706710593E+02  0.00000000000E+00 0. -1.
          1   -1    0    0  501    0 -0.00000000000E+00 -0.00000000000E+00 -0.10615680662E+04  0.10615680662E+04  0.00000000000E+00 0. -1.
          2    1    1    2  501    0  0.18602499745E+02  0.12148521781E+02  0.18874280706E+02  0.29152667981E+02  0.00000000000E+00 0. -1.
          1    1    1    2  502    0 -0.28889616334E+02 -0.42546358471E+02 -0.99776456029E+03  0.99908904524E+03  0.00000000000E+00 0. -1.
         22    1    1    2    0    0 -0.52499781397E+02  0.18223116236E+02 -0.20081823944E+02  0.59089666313E+02  0.00000000000E+00 0.  1.
         22    1    1    2    0    0  0.62786897986E+02  0.12174720454E+02  0.37110747964E+02  0.73943397213E+02  0.00000000000E+00 0. -1.
</event>
<event>
 6    1  0.2809573E-005  0.4674248E+02  0.7818608E-02  0.1505278E+00
          2   -1    0    0  502    0  0.00000000000E+00  0.00000000000E+00  0.35821826727E+03  0.35821826727E+03  0.00000000000E+00 0. -1.
          1   -1    0    0  501    0 -0.00000000000E+00 -0.00000000000E+00 -0.28664589171E+03  0.28664589171E+03  0.00000000000E+00 0. -1.
          2    1    1    2  501    0  0.19121800097E+02 -0.16309474200E+02 -0.16477350285E+03  0.16667918115E+03  0.00000000000E+00 0. -1.
          1    1    1    2  502    0 -0.15972318627E+02  0.16882595572E+02  0.32694587697E+03  0.32777087037E+03  0.00000000000E+00 0. -1.
         22    1    1    2    0    0 -0.16994618465E+02 -0.22537378006E+02 -0.11278474481E+03  0.11626327505E+03  0.00000000000E+00 0. -1.
         22    1    1    2    0    0  0.13845136994E+02  0.21964256633E+02  0.22184746240E+02  0.34150832400E+02  0.00000000000E+00 0.  1.
</event>
<event>
 6    1  0.2809573E-005  0.1438334E+03  0.7818608E-02  0.1210338E+00
          2   -1    0    0  502    0  0.00000000000E+00  0.00000000000E+00  0.91109705061E+03  0.91109705061E+03  0.00000000000E+00 0.  1.
          1   -1    0    0  501    0 -0.00000000000E+00 -0.00000000000E+00 -0.89940573334E+02  0.89940573334E+02  0.00000000000E+00 0.  1.
          2    1    1    2  501    0  0.27638082927E+02  0.46906171669E+02  0.29488412805E+02  0.61916226131E+02  0.00000000000E+00 0.  1.
          1    1    1    2  502    0  0.54078373029E+02  0.90564452896E+02 -0.15762511263E+02  0.10665292926E+03  0.00000000000E+00 0.  1.
         22    1    1    2    0    0 -0.99841350242E+01  0.18906445443E+02  0.34233227136E+02  0.40361497391E+02  0.00000000000E+00 0. -1.
         22    1    1    2    0    0 -0.71732320932E+02 -0.15637707001E+03  0.77319734860E+03  0.79210697116E+03  0.00000000000E+00 0.  1.
</event>
<event>
 6    1  0.2809573E-005  0.1573369E+03  0.7818608E-02  0.1247162E+00
          2   -1    0    0  502    0  0.00000000000E+00  0.00000000000E+00  0.15910014247E+03  0.15910014247E+03  0.00000000000E+00 0.  1.
          1   -1    0    0  501    0 -0.00000000000E+00 -0.00000000000E+00 -0.47803996710E+03  0.47803996710E+03  0.00000000000E+00 0. -1.
          2    1    1    2  501    0  0.59060191053E+02  0.90198744278E+02 -0.15225010861E+03  0.18655834264E+03  0.00000000000E+00 0.  1.
          1    1    1    2  502    0 -0.89978877163E+02 -0.10118639388E+03 -0.25996751142E+03  0.29311770952E+03  0.00000000000E+00 0. -1.
         22    1    1    2    0    0  0.38838581959E+02 -0.29965924726E+02  0.10348316325E+03  0.11452142668E+03  0.00000000000E+00 0.  1.
         22    1    1    2    0    0 -0.79198958487E+01  0.40953574331E+02 -0.10205367850E+02  0.42942630726E+02  0.00000000000E+00 0. -1.
</event>
<event>
 6    1  0.2809573E-005  0.8681477E+02  0.7818608E-02  0.1373482E+00
          2   -1    0    0  502    0  0.00000000000E+00  0.00000000000E+00  0.55087863852E+02  0.55087863852E+02  0.00000000000E+00 0. -1.
          1   -1    0    0  501    0 -0.00000000000E+00 -0.00000000000E+00 -0.10883298431E+04  0.10883298431E+04  0.00000000000E+00 0. -1.
          2    1    1    2  501    0 -0.21196843513E+02 -0.23653657014E+02 -0.91278120949E+01  0.33047218017E+02  0.00000000000E+00 0. -1.
          1    1    1    2  502    0  0.29550667317E+02 -0.25669814683E+02 -0.96365543768E+03  0.96445009404E+03  0.00000000000E+00 0. -1.
         22    1    1    2    0    0 -0.37520285178E+02  0.45886786213E+02 -0.87707372852E+02  0.10585817022E+03  0.00000000000E+00 0. -1.
         22    1    1    2    0    0  0.29166461374E+02  0.34366854838E+01  0.27248643408E+02  0.40062224648E+02  0.00000000000E+00 0. -1.
</event>
<event>
 6    1  0.2809573E-005  0.6701632E+02  0.7818608E-02  0.1413007E+00
          2   -1    0    0  502    0  0.00000000000E+00  0.00000000000E+00  0.41785018818E+03  0.41785018818E+03  0.00000000000E+00 0.  1.
          1   -1    0    0  501    0 -0.00000000000E+00 -0.00000000000E+00 -0.64994052530E+02  0.64994052530E+02  0.00000000000E+00 0. -1.
          2    1    1    2  501    0 -0.14692019389E+02  0.24284293472E+02  0.10189043951E+03  0.10576976887E+03  0.00000000000E+00 0.  1.
          1    1    1    2  502    0  0.25149173051E+02 -0.52958911081E+02 -0.30333640863E+02  0.66009521556E+02  0.00000000000E+00 0. -1.
         22    1    1    2    0    0 -0.21731292189E+02 -0.26050917022E+02  0.11929667556E+02  0.35961316798E+02  0.00000000000E+00 0.  1.
         22    1    1    2    0    0  0.11274138527E+02  0.54725534630E+02  0.26936966945E+03  0.27510363349E+03  0.00000000000E+00 0.  1.
</event>
<event>
 6    1  0.2809573E-005  0.1342433E+03  0.7818608E-02  0.1352058E+00
          2   -1    0    0  502    0  0.00000000000E+00  0.00000000000E+00  0.33915119556E+02  0.33915119556E+02  0.00000000000E+00 0.  1.
          1   -1    0    0  501    0 -0.00000000000E+00 -0.00000000000E+00 -0.10190751540E+04  0.10190751540E+04  0.00000000000E+00 0. -1.
          2    1    1    2  501    0  0.29515989154E+01  0.36118185542E+02 -0.27124722826E+02  0.45265724908E+02  0.00000000000E+00 0.  1.
          1    1    1    2  502    0 -0.41776866536E+02  0.34012959298E+02 -0.74937346703E+03  0.75130738122E+03  0.00000000000E+00 0. -1.
         22    1    1    2    0    0  0.32952795663E+02 -0.79865618540E+02 -0.22239591779E+03  0.23858823948E+03  0.00000000000E+00 0.  1.
         22    1    1    2    0    0  0.58724719573E+01  0.97344737000E+01  0.13734073207E+02  0.17828927953E+02  0.00000000000E+00 0.  1.
</event>
<event>
 6    1  0.2809573E-005  0.1258333E+03  0.7818608E-02  0.1284810E+00
          2   -1    0    0  502    0  0.00000000000E+00  0.00000000000E+00  0.50341815385E+03  0.50341815385E+03  0.00000000000E+00 0. -1.
          1   -1    0    0  501    0 -0.00000000000E+00 -0.00000000000E+00 -0.44840342771E+02  0.44840342771E+02  0.00000000000E+00 0. -1.
          2    1    1    2  501    0 -0.48579592201E+02  0.10875681394E+02  0.57987750559E+02  0.76425365155E+02  0.00000000000E+00 0. -1.
          1    1    1    2  502    0  0.54772696136E+02  0.14353645449E+02  0.54992635480E+01  0.56888639281E+02  0.00000000000E+00 0. -1.
         22    1    1    2    0    0  0.11945737980E+02  0.44498414432E+02  0.85965325883E+02  0.97533823861E+02  0.00000000000E+00 0. -1.
         22    1    1    2    0    0 -0.18138841915E+02 -0.69727741275E+02  0.30912547109E+03  0.31741066832E+03  0.00000000000E+00 0. -1.
</event>
<event>
 6    1  0.2809573E-005  0.1349059E+03  0.7818608E-02  0.1278369E+00
          2   -1    0    0  502    0  0.00000000000E+00  0.00000000000E+00  0.23466735845E+03  0.23466735845E+03  0.00000000000E+00 0. -1.
          1   -1    0    0  501    0 -0.00000000000E+00 -0.00000000000E+00 -0.20064277338E+03  0.20064277338E+03  0.00000000000E+00 0. -1.
          2    1    1    2  501    0 -0.27790955886E+01 -0.48477855470E+02  0.30360626000E+02  0.57267734846E+02  0.00000000000E+00 0. -1.
          1    1    1    2  502    0 -0.59782637112E+02  0.10406420487E+03 -0.13207230360E+03  0.17845564103E+03  0.00000000000E+00 0. -1.
         22    1    1    2    0    0  0.59831771615E+02 -0.13422063566E+02  0.42358244688E+01  0.61464907825E+02  0.00000000000E+00 0. -1.
         22    1    1    2    0    0  0.27299610854E+01 -0.42164285836E+02  0.13150043820E+03  0.13812184814E+03  0.00000000000E+00 0. -1.
</event>
<event>
 6    1  0.2809573E-005  0.3713824E+03  0.7818608E-02  0.1121099E+00
          2   -1    0    0  502    0  0.00000000000E+00  0.00000000000E+00  0.45534548389E+03  0.45534548389E+03  0.00000000000E+00 0. -1.
          1   -1    0    0  501    0 -0.00000000000E+00 -0.00000000000E+00 -0.52836450311E+03  0.52836450311E+03  0.00000000000E+00 0. -1.
          2    1    1    2  501    0  0.22304701468E+03 -0.74170354901E+02 -0.60525533292E+02  0.24272320137E+03  0.00000000000E+00 0. -1.
          1    1    1    2  502    0 -0.22077491870E+03  0.10998809257E+03 -0.32072425135E+03  0.40460226228E+03  0.00000000000E+00 0. -1.
         22    1    1    2    0    0  0.56486386990E+02 -0.27194424741E+02  0.22863866832E+03  0.23707781276E+03  0.00000000000E+00 0. -1.
         22    1    1    2    0    0 -0.58758482976E+02 -0.86233129275E+01  0.79592097112E+02  0.99306710600E+02  0.00000000000E+00 0.  1.
</event>
<event>
 6    1  0.2809573E-005  0.5044880E+02  0.7818608E-02  0.1493842E+00
          2   -1    0    0  502    0  0.00000000000E+00  0.00000000000E+00  0.90472501806E+02  0.90472501806E+02  0.00000000000E+00 0. -1.
          1   -1    0    0  501    0 -0.00000000000E+00 -0.00000000000E+00 -0.90843857415E+03  0.90843857415E+03  0.00000000000E+00 0. -1.
          2    1    1    2  501    0 -0.46085466491E+01 -0.28136999600E+02 -0.64968924635E+02  0.70949916258E+02  0.00000000000E+00 0. -1.
          1    1    1    2  502    0  0.41346328293E+02  0.17360844944E+02 -0.79178445608E+03  0.79305330382E+03  0.00000000000E+00 0. -1.
         22    1    1    2    0    0 -0.18031159656E+02  0.16267009140E+02  0.83057539109E+02  0.86534924209E+02  0.00000000000E+00 0. -1.
         22    1    1    2    0    0 -0.18706621989E+02 -0.54908544847E+01 -0.44270230732E+02  0.48372931669E+02  0.00000000000E+00 0. -1.
</event>
<event>
 6    1  0.2809573E-005  0.1504238E+03  0.7818608E-02  0.1257696E+00
          2   -1    0    0  502    0  0.00000000000E+00  0.00000000000E+00  0.37924505584E+03  0.37924505584E+03  0.00000000000E+00 0. -1.
          1   -1    0    0  501    0 -0.00000000000E+00 -0.00000000000E+00 -0.13434078482E+03  0.13434078482E+03  0.00000000000E+00 0. -1.
          2    1    1    2  501    0 -0.13188889653E+02 -0.53110925938E+02 -0.66503100655E+02  0.86124210655E+02  0.00000000000E+00 0. -1.
          1    1    1    2  502    0 -0.90226111879E+02  0.59897622285E+02  0.52378143761E+02  0.12029940301E+03  0.00000000000E+00 0. -1.
         22    1    1    2    0    0  0.60170685729E+02  0.74204135899E+01  0.20003951520E+02  0.63841460160E+02  0.00000000000E+00 0. -1.
         22    1    1    2    0    0  0.43244315803E+02 -0.14207109937E+02  0.23902527639E+03  0.24332076684E+03  0.00000000000E+00 0. -1.
</event>
<event>
 6    1  0.2809573E-005  0.8404439E+02  0.7818608E-02  0.1355733E+00
          2   -1    0    0  502    0  0.00000000000E+00  0.00000000000E+00  0.64423689178E+02  0.64423689178E+02  0.00000000000E+00 0. -1.
          1   -1    0    0  501    0 -0.00000000000E+00 -0.00000000000E+00 -0.30109140603E+03  0.30109140603E+03  0.00000000000E+00 0. -1.
          2    1    1    2  501    0 -0.17972379214E+02  0.36400960899E+02 -0.18631003377E+03  0.19068158027E+03  0.00000000000E+00 0. -1.
          1    1    1    2  502    0  0.14338703303E+02 -0.28413990406E+02  0.13906997708E+02  0.34732662560E+02  0.00000000000E+00 0. -1.
         22    1    1    2    0    0 -0.37056279949E+02 -0.22843231224E+02 -0.82359513262E+02  0.93156162014E+02  0.00000000000E+00 0. -1.
         22    1    1    2    0    0  0.40689955861E+02  0.14856260731E+02  0.18094832479E+02  0.46944690363E+02  0.00000000000E+00 0. -1.
</event>
<event>
 6    1  0.2809573E-005  0.1149237E+03  0.7818608E-02  0.1374973E+00
          2   -1    0    0  502    0  0.00000000000E+00  0.00000000000E+00  0.58924744758E+02  0.58924744758E+02  0.00000000000E+00 0. -1.
          1   -1    0    0  501    0 -0.00000000000E+00 -0.00000000000E+00 -0.11640534495E+04  0.11640534495E+04  0.00000000000E+00 0. -1.
          2    1    1    2  501    0  0.25599398410E+02  0.68571323640E+02 -0.84898890439E+02  0.11209450130E+03  0.00000000000E+00 0. -1.
          1    1    1    2  502    0  0.20594111565E+02 -0.53751294139E+02 -0.95829561399E+03  0.96002281371E+03  0.00000000000E+00 0. -1.
         22    1    1    2    0    0 -0.64044265941E+01 -0.10563304406E+02  0.39729252537E+02  0.41605451411E+02  0.00000000000E+00 0. -1.
         22    1    1    2    0    0 -0.39789083381E+02 -0.42567250956E+01 -0.10166345283E+03  0.10925542781E+03  0.00000000000E+00 0. -1.
</event>
<event>
 6    1  0.2809573E-005  0.1443721E+03  0.7818608E-02  0.1236138E+00
          2   -1    0    0  502    0  0.00000000000E+00  0.00000000000E+00  0.45514944178E+03  0.45514944178E+03  0.00000000000E+00 0.  1.
          1   -1    0    0  501    0 -0.00000000000E+00 -0.00000000000E+00 -0.72497726156E+03  0.72497726156E+03  0.00000000000E+00 0.  1.
          2    1    1    2  501    0 -0.37253765532E+02  0.19298213407E+02 -0.13799622476E+02  0.44166657871E+02  0.00000000000E+00 0.  1.
          1    1    1    2  502    0  0.14019530725E+03 -0.47157411805E+02 -0.67203639812E+03  0.68812169422E+03  0.00000000000E+00 0.  1.
         22    1    1    2    0    0 -0.23786953645E+02  0.33807552870E+02  0.23843480910E+02  0.47720869404E+02  0.00000000000E+00 0.  1.
         22    1    1    2    0    0 -0.79154588069E+02 -0.59483544714E+01  0.39216471990E+03  0.40011748184E+03  0.00000000000E+00 0.  1.
</event>
<event>
 6    1  0.2809573E-005  0.9194941E+02  0.7818608E-02  0.1351282E+00
          2   -1    0    0  502    0  0.00000000000E+00  0.00000000000E+00  0.77135085347E+03  0.77135085347E+03  0.00000000000E+00 0. -1.
          1   -1    0    0  501    0 -0.00000000000E+00 -0.00000000000E+00 -0.62980046872E+02  0.62980046872E+02  0.00000000000E+00 0. -1.
          2    1    1    2  501    0 -0.47776535322E+02 -0.29440050921E+02 -0.25359519403E+02  0.61582620519E+02  0.00000000000E+00 0. -1.
          1    1    1    2  502    0  0.39759249894E+02  0.38919613710E+02  0.54333207052E+03  0.54617329955E+03  0.00000000000E+00 0. -1.
         22    1    1    2    0    0 -0.23894854461E+02 -0.25812594141E+02  0.24735362107E+01  0.35261487028E+02  0.00000000000E+00 0. -1.
         22    1    1    2    0    0  0.31912139890E+02  0.16333031352E+02  0.18792471927E+03  0.19131349325E+03  0.00000000000E+00 0. -1.
</event>
<event>
 6    1  0.2809573E-005  0.8160135E+02  0.7818608E-02  0.1379814E+00
          2   -1    0    0  502    0  0.00000000000E+00  0.00000000000E+00  0.12794525105E+03  0.12794525105E+03  0.00000000000E+00 0. -1.
          1   -1    0    0  501    0 -0.00000000000E+00 -0.00000000000E+00 -0.12082025260E+03  0.12082025260E+03  0.00000000000E+00 0. -1.
          2    1    1    2  501    0 -0.20398169358E+02 -0.61666934181E+01 -0.10909885672E+02  0.23940322184E+02  0.00000000000E+00 0. -1.
          1    1    1    2  502    0  0.62435106888E+02  0.30583175951E+02 -0.39268121856E+02  0.79846469035E+02  0.00000000000E+00 0. -1.
         22    1    1    2    0    0  0.31397778250E+02  0.55120478122E+01  0.57424503715E+02  0.65679348177E+02  0.00000000000E+00 0.  1.
         22    1    1    2    0    0 -0.73434715779E+02 -0.29928530345E+02 -0.12149773732E+00  0.79299364259E+02  0.00000000000E+00 0. -1.
</event>
<event>
 6    1  0.2809573E-005  0.9911686E+02  0.7818608E-02  0.1318220E+00
          2   -1    0    0  502    0  0.00000000000E+00  0.00000000000E+00  0.15825355212E+03  0.15825355212E+03  0.00000000000E+00 0. -1.
          1   -1    0    0  501    0 -0.00000000000E+00 -0.00000000000E+00 -0.98936178544E+02  0.98936178544E+02  0.00000000000E+00 0. -1.
          2    1    1    2  501    0  0.18541346345E+02 -0.29524632608E+02  0.14936711271E+02  0.37928759517E+02  0.00000000000E+00 0. -1.
          1    1    1    2  502    0 -0.46250500154E+02  0.69294920454E+02  0.25340063968E+02  0.87080500728E+02  0.00000000000E+00 0. -1.
         22    1    1    2    0    0  0.31743239167E+02  0.39905706728E+02  0.88663157382E+01  0.51756257757E+02  0.00000000000E+00 0. -1.
         22    1    1    2    0    0 -0.40340853580E+01 -0.79675994574E+02  0.10174282601E+02  0.80424212663E+02  0.00000000000E+00 0. -1.
</event>
<event>
 6    1  0.2809573E-005  0.2235244E+03  0.7818608E-02  0.1210554E+00
          2   -1    0    0  502    0  0.00000000000E+00  0.00000000000E+00  0.21041863796E+03  0.21041863796E+03  0.00000000000E+00 0.  1.
          1   -1    0    0  501    0 -0.00000000000E+00 -0.00000000000E+00 -0.31541818000E+04  0.31541818000E+04  0.00000000000E+00 0.  1.
          2    1    1    2  501    0 -0.27127168435E+02 -0.17523043323E+03 -0.32682628068E+03  0.37182926961E+03  0.00000000000E+00 0.  1.
          1    1    1    2  502    0  0.62060486789E+02  0.21718431234E+03 -0.27748525933E+04  0.27840307907E+04  0.00000000000E+00 0.  1.
         22    1    1    2    0    0 -0.25996605465E+02 -0.25608006486E+02  0.17779219544E+03  0.18149836983E+03  0.00000000000E+00 0.  1.
         22    1    1    2    0    0 -0.89367128890E+01 -0.16345872626E+02 -0.19876483538E+02  0.27242007764E+02  0.00000000000E+00 0.  1.
</event>
<event>
 6    1  0.2809573E-005  0.1192734E+03  0.7818608E-02  0.1303344E+00
          2   -1    0    0  502    0  0.00000000000E+00  0.00000000000E+00  0.36572623504E+03  0.36572623504E+03  0.00000000000E+00 0. -1.
          1   -1    0    0  501    0 -0.00000000000E+00 -0.00000000000E+00 -0.14589149466E+04  0.14589149466E+04  0.00000000000E+00 0. -1.
          2    1    1    2  501    0 -0.68285960926E+02  0.93163313747E+01  0.55730777460E+02  0.88632308140E+02  0.00000000000E+00 0. -1.
          1    1    1    2  502    0  0.92697317241E+02 -0.38049230480E+02 -0.14268223878E+04  0.14303365559E+04  0.00000000000E+00 0. -1.
         22    1    1    2    0    0 -0.45456894767E+02  0.60755537444E+02  0.11119822743E+03  0.13462024512E+03  0.00000000000E+00 0. -1.
         22    1    1    2    0    0  0.21045538451E+02 -0.32022638339E+02  0.16670467139E+03  0.17105207253E+03  0.00000000000E+00 0.  1.
</event>
<event>
 6    1  0.2809573E-005  0.1863651E+03  0.7818608E-02  0.1210076E+00
          2   -1    0    0  502    0  0.00000000000E+00  0.00000000000E+00  0.53829162363E+03  0.53829162363E+03  0.00000000000E+00 0. -1.
          1   -1    0    0  501    0 -0.00000000000E+00 -0.00000000000E+00 -0.54655371780E+03  0.54655371780E+03  0.00000000000E+00 0. -1.
          2    1    1    2  501    0  0.54297198288E+01  0.25802919806E+02 -0.21046989332E+02  0.33737935442E+02  0.00000000000E+00 0. -1.
          1    1    1    2  502    0 -0.27733199472E+01 -0.21563595630E+02 -0.51158150472E+03  0.51204327545E+03  0.00000000000E+00 0. -1.
         22    1    1    2    0    0 -0.52793800045E+02  0.32817301434E+02  0.28617533259E+03  0.29284890572E+03  0.00000000000E+00 0. -1.
         22    1    1    2    0    0  0.50137400164E+02 -0.37056625611E+02  0.23819106729E+03  0.24621522482E+03  0.00000000000E+00 0.  1.
</event>
<event>
 6    1  0.2809573E-005  0.5412628E+02  0.7818608E-02  0.1430928E+00
          2   -1    0    0  502    0  0.00000000000E+00  0.00000000000E+00  0.10536891501E+03  0.10536891501E+03  0.00000000000E+00 0.  1.
          1   -1    0    0  501    0 -0.00000000000E+00 -0.00000000000E+00 -0.24565336753E+03  0.24565336753E+03  0.00000000000E+00 0. -1.
          2    1    1    2  501    0 -0.32386141486E+02  0.62097968425E+01 -0.26707228584E+02  0.42434653242E+02  0.00000000000E+00 0.  1.
          1    1    1    2  502    0  0.42678398179E+02 -0.55804448424E+01 -0.16727809326E+03  0.17272680024E+03  0.00000000000E+00 0. -1.
         22    1    1    2    0    0 -0.54926716724E+02  0.47163267053E+01 -0.11839039856E+02  0.56385732348E+02  0.00000000000E+00 0.  1.
         22    1    1    2    0    0  0.44634460031E+02 -0.53456787054E+01  0.65539909176E+02  0.79475096715E+02  0.00000000000E+00 0.  1.
</event>
<event>
 6    1  0.2809573E-005  0.2468177E+03  0.7818608E-02  0.1165996E+00
          2   -1    0    0  502    0  0.00000000000E+00  0.00000000000E+00  0.26462279364E+03  0.26462279364E+03  0.00000000000E+00 0.  1.
          1   -1    0    0  501    0 -0.00000000000E+00 -0.00000000000E+00 -0.58210259353E+03  0.58210259353E+03  0.00000000000E+00 0. -1.
          2    1    1    2  501    0  0.10925869724E+03 -0.65901384657E+02  0.35261878262E+02  0.13237770009E+03  0.00000000000E+00 0.  1.
          1    1    1    2  502    0  0.51479106940E+02  0.10013594487E+03 -0.46507471552E+03  0.47850997579E+03  0.00000000000E+00 0. -1.
         22    1    1    2    0    0 -0.56948921221E+02  0.45317967055E+02  0.19127646844E+02  0.75251343112E+02  0.00000000000E+00 0. -1.
         22    1    1    2    0    0 -0.10378888296E+03 -0.79552527270E+02  0.93205390523E+02  0.16058636818E+03  0.00000000000E+00 0.  1.
</event>
<event>
 6    1  0.2809573E-005  0.1739108E+03  0.7818608E-02  0.1177729E+00
          2   -1    0    0  502    0  0.00000000000E+00  0.00000000000E+00  0.23991735055E+03  0.23991735055E+03  0.00000000000E+00 0. -1.
          1   -1    0    0  501    0 -0.00000000000E+00 -0.00000000000E+00 -0.20359583953E+04  0.20359583953E+04  0.00000000000E+00 0. -1.
          2    1    1    2  501    0 -0.88599402370E+02 -0.11934542226E+03  0.69524915402E+02  0.16409417350E+03  0.00000000000E+00 0. -1.
          1    1    1    2  502    0 -0.22238143027E+02  0.16067944937E+02 -0.19094161116E+04  0.19096132072E+04  0.00000000000E+00 0. -1.
         22    1    1    2    0    0  0.11989792260E+03  0.10874090126E+03  0.50410358316E+01  0.16194291430E+03  0.00000000000E+00 0.  1.
         22    1    1    2    0    0 -0.90603772023E+01 -0.54634239388E+01  0.38809115652E+02  0.40225450823E+02  0.00000000000E+00 0. -1.
</event>
<event>
 6    1  0.2809573E-005  0.1195873E+03  0.7818608E-02  0.1361464E+00
          2   -1    0    0  502    0  0.00000000000E+00  0.00000000000E+00  0.95833391604E+02  0.95833391604E+02  0.00000000000E+00 0.  1.
          1   -1    0    0  501    0 -0.00000000000E+00 -0.00000000000E+00 -0.16970004291E+04  0.16970004291E+04  0.00000000000E+00 0. -1.
          2    1    1    2  501    0  0.41513208701E+02  0.84865617865E+00 -0.13538417080E+03  0.14160840518E+03  0.00000000000E+00 0.  1.
          1    1    1    2  502    0  0.26993793276E+02 -0.10296927584E+02 -0.15062307474E+04  0.15065078015E+04  0.00000000000E+00 0. -1.
         22    1    1    2    0    0 -0.54789064291E+02  0.92332383669E+01 -0.36550896672E+02  0.66506107270E+02  0.00000000000E+00 0.  1.
         22    1    1    2    0    0 -0.13717937686E+02  0.21503303807E+00  0.76998777430E+02  0.78211506694E+02  0.00000000000E+00 0.  1.
</event>
<event>
 6    1  0.2809573E-005  0.1531651E+03  0.7818608E-02  0.1231447E+00
          2   -1    0    0  502    0  0.00000000000E+00  0.00000000000E+00  0.46034001731E+03  0.46034001731E+03  0.00000000000E+00 0.  1.
          1   -1    0    0  501    0 -0.00000000000E+00 -0.00000000000E+00 -0.17465686940E+03  0.17465686940E+03  0.00000000000E+00 0. -1.
          2    1    1    2  501    0 -0.61492026027E+02  0.56003404149E+02  0.19273998708E+01  0.83194743893E+02  0.00000000000E+00 0.  1.
          1    1    1    2  502    0  0.56021238760E+02 -0.35252909683E+02 -0.11474688878E+03  0.13246884659E+03  0.00000000000E+00 0. -1.
         22    1    1    2    0    0  0.23958960156E+02  0.48117171859E+02  0.11409192702E+03  0.12612002938E+03  0.00000000000E+00 0.  1.
         22    1    1    2    0    0 -0.18488172889E+02 -0.68867666324E+02  0.28441070980E+03  0.29321326684E+03  0.00000000000E+00 0.  1.
</event>
<event>
 6    1  0.2809573E-005  0.8907641E+02  0.7818608E-02  0.1434241E+00
          2   -1    0    0  502    0  0.00000000000E+00  0.00000000000E+00  0.59433564486E+02  0.59433564486E+02  0.00000000000E+00 0. -1.
          1   -1    0    0  501    0 -0.00000000000E+00 -0.00000000000E+00 -0.29739723293E+03  0.29739723293E+03  0.00000000000E+00 0. -1.
          2    1    1    2  501    0 -0.38464307493E+02  0.61140074727E+01 -0.85051563418E+02  0.93544922246E+02  0.00000000000E+00 0. -1.
          1    1    1    2  502    0  0.70609343973E+02 -0.36722088130E+02 -0.59120180827E+02  0.99143264996E+02  0.00000000000E+00 0. -1.
         22    1    1    2    0    0 -0.31153681558E+02  0.41000084327E+02 -0.12288266055E+03  0.13323553224E+03  0.00000000000E+00 0.  1.
         22    1    1    2    0    0 -0.99135492261E+00 -0.10392003670E+02  0.29090736348E+02  0.30907077929E+02  0.00000000000E+00 0. -1.
</event>
<event>
 6    1  0.2809573E-005  0.9157816E+02  0.7818608E-02  0.1327544E+00
          2   -1    0    0  502    0  0.00000000000E+00  0.00000000000E+00  0.34520696792E+03  0.34520696792E+03  0.00000000000E+00 0. -1.
          1   -1    0    0  501    0 -0.00000000000E+00 -0.00000000000E+00 -0.40664977485E+03  0.40664977485E+03  0.00000000000E+00 0. -1.
          2    1    1    2  501    0 -0.33610879267E+02 -0.48300480916E+02  0.11058800911E+03  0.12526905213E+03  0.00000000000E+00 0. -1.
          1    1    1    2  502    0  0.13373710509E+02  0.33516564335E+02 -0.37939060819E+03  0.38110293859E+03  0.00000000000E+00 0. -1.
         22    1    1    2    0    0  0.11208667760E+02  0.49324178512E+02  0.20336517430E+03  0.20956121525E+03  0.00000000000E+00 0. -1.
         22    1    1    2    0    0  0.90285009985E+01 -0.34540261931E+02  0.39946178563E+01  0.35923536802E+02  0.00000000000E+00 0. -1.
</event>
<event>
 6    1  0.2809573E-005  0.3685573E+03  0.7818608E-02  0.1157757E+00
          2   -1    0    0  502    0  0.00000000000E+00  0.00000000000E+00  0.55074307343E+03  0.55074307343E+03  0.00000000000E+00 0. -1.
          1   -1    0    0  501    0 -0.00000000000E+00 -0.00000000000E+00 -0.32076065186E+03  0.32076065186E+03  0.00000000000E+00 0. -1.
          2    1    1    2  501    0  0.81255664661E+02  0.13365029084E+03  0.10254587729E+03  0.18703085368E+03  0.00000000000E+00 0. -1.
          1    1    1    2  502    0  0.63888860937E+02  0.28099478358E+02 -0.23452226706E+03  0.24468768049E+03  0.00000000000E+00 0. -1.
         22    1    1    2    0    0 -0.26369781057E+02  0.22251027271E+01  0.12652374342E+03  0.12926164970E+03  0.00000000000E+00 0.  1.
         22    1    1    2    0    0 -0.11877474454E+03 -0.16397487192E+03  0.23543506793E+03  0.31052354141E+03  0.00000000000E+00 0. -1.
</event>
<event>
 6    1  0.2809573E-005  0.8571029E+02  0.7818608E-02  0.1344511E+00
          2   -1    0    0  502    0  0.00000000000E+00  0.00000000000E+00  0.25552669753E+03  0.25552669753E+03  0.00000000000E+00 0. -1.
          1   -1    0    0  501    0 -0.00000000000E+00 -0.00000000000E+00 -0.51247764303E+03  0.51247764303E+03  0.00000000000E+00 0. -1.
          2    1    1    2  501    0  0.63786060503E+02  0.21262633681E+02  0.29249897239E+02  0.73323376859E+02  0.00000000000E+00 0. -1.
          1    1    1    2  502    0 -0.82198474736E+02 -0.12085811440E+01 -0.46794605496E+03  0.47511215546E+03  0.00000000000E+00 0. -1.
         22    1    1    2    0    0 -0.13033276353E+02 -0.47961149917E+02  0.16821258979E+03  0.17540129291E+03  0.00000000000E+00 0. -1.
         22    1    1    2    0    0  0.31445690587E+02  0.27907097380E+02  0.13532622428E+02  0.44167515330E+02  0.00000000000E+00 0. -1.
</event>
<event>
 6    1  0.2809573E-005  0.1432402E+03  0.7818608E-02  0.1270185E+00
          2   -1    0    0  502    0  0.00000000000E+00  0.00000000000E+00  0.35197752650E+03  0.35197752650E+03  0.00000000000E+00 0.  1.
          1   -1    0    0  501    0 -0.00000000000E+00 -0.00000000000E+00 -0.14830222262E+03  0.14830222262E+03  0.00000000000E+00 0. -1.
          2    1    1    2  501    0 -0.66478088544E+02  0.12257546763E+02  0.69889023442E+02  0.97231987056E+02  0.00000000000E+00 0.  1.
          1    1    1    2  502    0  0.44792936150E+02  0.38582254124E+00 -0.11451697370E+03  0.12296622810E+03  0.00000000000E+00 0. -1.
         22    1    1    2    0    0 -0.38564961079E+01  0.41125669263E+02  0.23484315110E+02  0.47515326904E+02  0.00000000000E+00 0.  1.
         22    1    1    2    0    0  0.25541648501E+02 -0.53769038568E+02  0.22481893903E+03  0.23256620706E+03  0.00000000000E+00 0.  1.
</event>
<event>
 6    1  0.2809573E-005  0.9050758E+02  0.7818608E-02  0.1349029E+00
          2   -1    0    0  502    0  0.00000000000E+00  0.00000000000E+00  0.31383568244E+03  0.31383568244E+03  0.00000000000E+00 0.  1.
          1   -1    0    0  501    0 -0.00000000000E+00 -0.00000000000E+00 -0.62034448662E+02  0.62034448662E+02  0.00000000000E+00 0. -1.
          2    1    1    2  501    0 -0.32338409572E+02  0.13124426543E+02  0.36977358656E+02  0.50846320997E+02  0.00000000000E+00 0.  1.
          1    1    1    2  502    0  0.18984484217E+02  0.10303124914E+02 -0.37371261658E+02  0.43164525040E+02  0.00000000000E+00 0. -1.
         22    1    1    2    0    0  0.25278985752E+01  0.37947963472E+02  0.19015506404E+03  0.19392108339E+03  0.00000000000E+00 0.  1.
         22    1    1    2    0    0  0.10826026781E+02 -0.61375514929E+02  0.62040072747E+02  0.87938201682E+02  0.00000000000E+00 0.  1.
</event>
<event>
 6    1  0.2809573E-005  0.1036043E+03  0.7818608E-02  0.1284372E+00
          2   -1    0    0  502    0  0.00000000000E+00  0.00000000000E+00  0.26946570359E+03  0.26946570359E+03  0.00000000000E+00 0.  1.
          1   -1    0    0  501    0 -0.00000000000E+00 -0.00000000000E+00 -0.85896954502E+02  0.85896954502E+02  0.00000000000E+00 0.  1.
          2    1    1    2  501    0 -0.57646676647E+02 -0.12577972905E+02  0.56948190282E+02  0.82002689634E+02  0.00000000000E+00 0.  1.
          1    1    1    2  502    0  0.29744140170E+02 -0.11654758892E+02 -0.45843825589E+02  0.55876682291E+02  0.00000000000E+00 0.  1.
         22    1    1    2    0    0  0.67224702155E+02  0.24228377206E+01  0.41559770843E+02  0.79071140595E+02  0.00000000000E+00 0. -1.
         22    1    1    2    0    0 -0.39322165678E+02  0.21809894076E+02  0.13090461355E+03  0.13841214557E+03  0.00000000000E+00 0.  1.
</event>
<event>
 6    1  0.2809573E-005  0.1116377E+03  0.7818608E-02  0.1299311E+00
          2   -1    0    0  502    0  0.00000000000E+00  0.00000000000E+00  0.15958786968E+03  0.15958786968E+03  0.00000000000E+00 0.  1.
          1   -1    0    0  501    0 -0.00000000000E+00 -0.00000000000E+00 -0.87953431450E+03  0.87953431450E+03  0.00000000000E+00 0.  1.
          2    1    1    2  501    0 -0.85668924455E+02  0.22563527550E+02  0.41655171689E+02  0.97894998449E+02  0.00000000000E+00 0.  1.
          1    1    1    2  502    0  0.82128268103E+02 -0.33459856938E+02 -0.80138959198E+03  0.80628152191E+03  0.00000000000E+00 0.  1.
         22    1    1    2    0    0 -0.35948106661E+02 -0.20310409749E+02  0.66264508235E+02  0.78075374917E+02  0.00000000000E+00 0.  1.
         22    1    1    2    0    0  0.39488763014E+02  0.31206739137E+02 -0.26476532766E+02  0.56870288897E+02  0.00000000000E+00 0.  1.
</event>
<event>
 6    1  0.2809573E-005  0.2012222E+03  0.7818608E-02  0.1262512E+00
          2   -1    0    0  502    0  0.00000000000E+00  0.00000000000E+00  0.19089394534E+02  0.19089394534E+02  0.00000000000E+00 0. -1.
          1   -1    0    0  501    0 -0.00000000000E+00 -0.00000000000E+00 -0.18139636003E+04  0.18139636003E+04  0.00000000000E+00 0. -1.
          2    1    1    2  501    0  0.15406589250E+02  0.75235965364E+02 -0.13984513774E+04  0.14005584845E+04  0.00000000000E+00 0. -1.
          1    1    1    2  502    0 -0.33463511992E+02 -0.15102827457E+02 -0.10160250830E+03  0.10803227168E+03  0.00000000000E+00 0. -1.
         22    1    1    2    0    0 -0.13513074783E+02  0.10799729592E+02  0.22220125310E+01  0.17440604606E+02  0.00000000000E+00 0. -1.
         22    1    1    2    0    0  0.31569997525E+02 -0.70932867499E+02 -0.29704233265E+03  0.30702163413E+03  0.00000000000E+00 0. -1.
</event>
<event>
 6    1  0.2809573E-005  0.1267131E+03  0.7818608E-02  0.1313935E+00
          2   -1    0    0  502    0  0.00000000000E+00  0.00000000000E+00  0.79783930056E+03  0.79783930056E+03  0.00000000000E+00 0. -1.
          1   -1    0    0  501    0 -0.00000000000E+00 -0.00000000000E+00 -0.17765566029E+03  0.17765566029E+03  0.00000000000E+00 0.  1.
          2    1    1    2  501    0  0.50642775362E+01  0.25184573295E+02  0.57525881041E+02  0.63001084344E+02  0.00000000000E+00 0. -1.
          1    1    1    2  502    0 -0.49776975241E+02 -0.10301799649E+03 -0.14721694535E+03  0.18644914552E+03  0.00000000000E+00 0.  1.
         22    1    1    2    0    0  0.58305279649E+02  0.10041713865E+03  0.65445201539E+03  0.66467326396E+03  0.00000000000E+00 0. -1.
         22    1    1    2    0    0 -0.13592581944E+02 -0.22583715453E+02  0.55422689190E+02  0.61371467024E+02  0.00000000000E+00 0. -1.
</event>
<event>
 6    1  0.2809573E-005  0.9209472E+02  0.7818608E-02  0.1411135E+00
          2   -1    0    0  502    0  0.00000000000E+00  0.00000000000E+00  0.60990297034E+02  0.60990297034E+02  0.00000000000E+00 0. -1.
          1   -1    0    0  501    0 -0.00000000000E+00 -0.00000000000E+00 -0.23269658237E+03  0.23269658237E+03  0.00000000000E+00 0. -1.
          2    1    1    2  501    0 -0.14614951245E+02  0.35573151600E+02 -0.10310350189E+03  0.11004261909E+03  0.00000000000E+00 0. -1.
          1    1    1    2  502    0 -0.27970965849E+02 -0.22040446530E+02 -0.29397598294E+01  0.35732315928E+02  0.00000000000E+00 0. -1.
         22    1    1    2    0    0  0.44769377341E+02 -0.26813122026E+02 -0.99027020098E+02  0.11193565728E+03  0.00000000000E+00 0. -1.
         22    1    1    2    0    0 -0.21834602469E+01  0.13280416955E+02  0.33363996479E+02  0.35976287110E+02  0.00000000000E+00 0. -1.
</event>
<event>
 6    1  0.2809573E-005  0.1622191E+03  0.7818608E-02  0.1227529E+00
          2   -1    0    0  502    0  0.00000000000E+00  0.00000000000E+00  0.65329585674E+03  0.65329585674E+03  0.00000000000E+00 0. -1.
          1   -1    0    0  501    0 -0.00000000000E+00 -0.00000000000E+00 -0.67812531382E+02  0.67812531382E+02  0.00000000000E+00 0. -1.
          2    1    1    2  501    0  0.45702925160E+02  0.97061637160E+02  0.19806525444E+02  0.10909636670E+03  0.00000000000E+00 0. -1.
          1    1    1    2  502    0 -0.14556890205E+02 -0.87250234213E+02  0.12514190066E+03  0.15324817037E+03  0.00000000000E+00 0. -1.
         22    1    1    2    0    0 -0.47297559941E+01  0.51548905012E+02  0.11034815765E+03  0.12188673470E+03  0.00000000000E+00 0.  1.
         22    1    1    2    0    0 -0.26416278961E+02 -0.61360307958E+02  0.33018674161E+03  0.33687711635E+03  0.00000000000E+00 0. -1.
</event>
<event>
 6    1  0.2809573E-005  0.4497661E+02  0.7818608E-02  0.1520113E+00
          2   -1    0    0  502    0  0.00000000000E+00  0.00000000000E+00  0.37950918802E+02  0.37950918802E+02  0.00000000000E+00 0.  1.
          1   -1    0    0  501    0 -0.00000000000E+00 -0.00000000000E+00 -0.60259118432E+03  0.60259118432E+03  0.00000000000E+00 0.  1.
          2    1    1    2  501    0  0.14638882296E+02  0.15688925572E+02 -0.10101349979E+03  0.10326745082E+03  0.00000000000E+00 0.  1.
          1    1    1    2  502    0 -0.27279453481E+02 -0.28472194988E+02 -0.38480404300E+03  0.38681906103E+03  0.00000000000E+00 0.  1.
         22    1    1    2    0    0  0.20020558745E+02 -0.10018825414E+02 -0.10936479172E+03  0.11163268922E+03  0.00000000000E+00 0. -1.
         22    1    1    2    0    0 -0.73799875603E+01  0.22802094831E+02  0.30542068987E+02  0.38822902043E+02  0.00000000000E+00 0.  1.
</event>
<event>
 6    1  0.2809573E-005  0.7814636E+02  0.7818608E-02  0.1378209E+00
          2   -1    0    0  502    0  0.00000000000E+00  0.00000000000E+00  0.61207939846E+02  0.61207939846E+02  0.00000000000E+00 0. -1.
          1   -1    0    0  501    0 -0.00000000000E+00 -0.00000000000E+00 -0.60654204863E+03  0.60654204863E+03  0.00000000000E+00 0.  1.
          2    1    1    2  501    0 -0.17438796714E+02 -0.11633374826E+02 -0.16160024705E+02  0.26468725680E+02  0.00000000000E+00 0. -1.
          1    1    1    2  502    0  0.70936791208E+01  0.65797805600E+02 -0.49906771745E+03  0.50343644893E+03  0.00000000000E+00 0.  1.
         22    1    1    2    0    0  0.18506518171E+02  0.32339002842E+02  0.14735981201E+02  0.40068085324E+02  0.00000000000E+00 0. -1.
         22    1    1    2    0    0 -0.81614005779E+01 -0.86503433616E+02 -0.44842347831E+02  0.97776728549E+02  0.00000000000E+00 0. -1.
</event>
<event>
 6    1  0.2809573E-005  0.6184706E+02  0.7818608E-02  0.1427043E+00
          2   -1    0    0  502    0  0.00000000000E+00  0.00000000000E+00  0.12589251641E+03  0.12589251641E+03  0.00000000000E+00 0. -1.
          1   -1    0    0  501    0 -0.00000000000E+00 -0.00000000000E+00 -0.24682960148E+03  0.24682960148E+03  0.00000000000E+00 0. -1.
          2    1    1    2  501    0 -0.34641363974E+02 -0.38251373343E+02 -0.33572628167E+02  0.61565518130E+02  0.00000000000E+00 0. -1.
          1    1    1    2  502    0  0.52056737509E+02  0.21336986594E+02 -0.15470611352E+03  0.16461820215E+03  0.00000000000E+00 0. -1.
         22    1    1    2    0    0 -0.17257391671E+02 -0.17866571657E+02 -0.32445996820E+02  0.40862876302E+02  0.00000000000E+00 0. -1.
         22    1    1    2    0    0 -0.15798186472E+00  0.34780958405E+02  0.99787653442E+02  0.10567552132E+03  0.00000000000E+00 0. -1.
</event>
<event>
 6    1  0.2809573E-005  0.8202069E+02  0.7818608E-02  0.1343153E+00
          2   -1    0    0  502    0  0.00000000000E+00  0.00000000000E+00  0.31257129810E+03  0.31257129810E+03  0.00000000000E+00 0.  1.
          1   -1    0    0  501    0 -0.00000000000E+00 -0.00000000000E+00 -0.10003366394E+03  0.10003366394E+03  0.00000000000E+00 0. -1.
          2    1    1    2  501    0  0.20874250958E+02 -0.18759565344E+02  0.44030392642E+02  0.52214280816E+02  0.00000000000E+00 0.  1.
          1    1    1    2  502    0 -0.79369073576E+02 -0.27255110335E+01 -0.54460343919E+02  0.96295416871E+02  0.00000000000E+00 0. -1.
         22    1    1    2    0    0  0.63031668295E+02 -0.36393437478E+02  0.17228704799E+03  0.18703021254E+03  0.00000000000E+00 0.  1.
         22    1    1    2    0    0 -0.45368456773E+01  0.57878513856E+02  0.50680537451E+02  0.77065051814E+02  0.00000000000E+00 0.  1.
</event>
<event>
 6    1  0.2809573E-005  0.7241128E+02  0.7818608E-02  0.1435143E+00
          2   -1    0    0  502    0  0.00000000000E+00  0.00000000000E+00  0.73932557089E+02  0.73932557089E+02  0.00000000000E+00 0.  1.
          1   -1    0    0  501    0 -0.00000000000E+00 -0.00000000000E+00 -0.87572707190E+03  0.87572707190E+03  0.00000000000E+00 0.  1.
          2    1    1    2  501    0  0.88750746492E+01 -0.25699106232E+02 -0.76716826678E+02  0.81392152611E+02  0.00000000000E+00 0.  1.
          1    1    1    2  502    0  0.24987506838E+02 -0.56289833162E+01 -0.73370117306E+03  0.73414812694E+03  0.00000000000E+00 0.  1.
         22    1    1    2    0    0 -0.42114142168E+02  0.14024332103E+02 -0.53261528819E+02  0.69333060755E+02  0.00000000000E+00 0.  1.
         22    1    1    2    0    0  0.82515606804E+01  0.17303757445E+02  0.61885013741E+02  0.64786288681E+02  0.00000000000E+00 0.  1.
</event>
<event>
 6    1  0.2809573E-005  0.7953917E+02  0.7818608E-02  0.1397660E+00
          2   -1    0    0  502    0  0.00000000000E+00  0.00000000000E+00  0.51202137680E+02  0.51202137680E+02  0.00000000000E+00 0. -1.
          1   -1    0    0  501    0 -0.00000000000E+00 -0.00000000000E+00 -0.23529895579E+03  0.23529895579E+03  0.00000000000E+00 0. -1.
          2    1    1    2  501    0 -0.83097221907E+00 -0.21073620521E+02 -0.14451298773E+02  0.25566150138E+02  0.00000000000E+00 0. -1.
          1    1    1    2  502    0  0.51847312737E+02  0.17597041263E+02 -0.90750266769E+02  0.10598778523E+03  0.00000000000E+00 0. -1.
         22    1    1    2    0    0 -0.10218404479E+02 -0.23718020171E+02  0.27544190438E+02  0.37757683957E+02  0.00000000000E+00 0. -1.
         22    1    1    2    0    0 -0.40797936038E+02  0.27194599429E+02 -0.10643944301E+03  0.11718947415E+03  0.00000000000E+00 0. -1.
</event>
<event>
 6    1  0.2809573E-005  0.6398673E+02  0.7818608E-02  0.1465174E+00
          2   -1    0    0  502    0  0.00000000000E+00  0.00000000000E+00  0.85835783846E+02  0.85835783846E+02  0.00000000000E+00 0.  1.
          1   -1    0    0  501    0 -0.00000000000E+00 -0.00000000000E+00 -0.78928849237E+03  0.78928849237E+03  0.00000000000E+00 0. -1.
          2    1    1    2  501    0  0.13254352278E+02  0.28395445815E+02 -0.64651492017E+02  0.71845630468E+02  0.00000000000E+00 0.  1.
          1    1    1    2  502    0  0.15901701184E+01 -0.34456581923E+02 -0.66837640364E+03  0.66926586767E+03  0.00000000000E+00 0. -1.
         22    1    1    2    0    0  0.14843621597E+02  0.99139409551E+01  0.76388088942E+02  0.78445901484E+02  0.00000000000E+00 0.  1.
         22    1    1    2    0    0 -0.29688143994E+02 -0.38528048478E+01 -0.46812901804E+02  0.55566876593E+02  0.00000000000E+00 0.  1.
</event>
<event>
 6    1  0.2809573E-005  0.1846700E+03  0.7818608E-02  0.1187776E+00
          2   -1    0    0  502    0  0.00000000000E+00  0.00000000000E+00  0.60201959995E+03  0.60201959995E+03  0.00000000000E+00 0. -1.
          1   -1    0    0  501    0 -0.00000000000E+00 -0.00000000000E+00 -0.13176907434E+03  0.13176907434E+03  0.00000000000E+00 0. -1.
          2    1    1    2  501    0 -0.70150504426E+02 -0.12356436320E+03  0.65516430229E+01  0.14223982969E+03  0.00000000000E+00 0. -1.
          1    1    1    2  502    0  0.17934259511E+03  0.73784524225E+02  0.24362504202E+03  0.31138574716E+03  0.00000000000E+00 0. -1.
         22    1    1    2    0    0 -0.73199972737E+02  0.76951521811E+02  0.20789187351E+03  0.23344978858E+03  0.00000000000E+00 0. -1.
         22    1    1    2    0    0 -0.35992117949E+02 -0.27171682834E+02  0.12181967065E+02  0.46713308854E+02  0.00000000000E+00 0.  1.
</event>
<event>
 6    1  0.2809573E-005  0.1593897E+03  0.7818608E-02  0.1280804E+00
          2   -1    0    0  502    0  0.00000000000E+00  0.00000000000E+00  0.17283755057E+03  0.17283755057E+03  0.00000000000E+00 0.  1.
          1   -1    0    0  501    0 -0.00000000000E+00 -0.00000000000E+00 -0.29417095402E+03  0.29417095402E+03  0.00000000000E+00 0.  1.
          2    1    1    2  501    0 -0.68770583565E+02  0.77283006846E+02 -0.19665468318E+02  0.10530330933E+03  0.00000000000E+00 0.  1.
          1    1    1    2  502    0  0.43331353854E+02 -0.56267976083E+01 -0.18776997307E+03  0.19278700647E+03  0.00000000000E+00 0.  1.
         22    1    1    2    0    0 -0.52846802554E+01 -0.23880327519E+02  0.10595901390E+03  0.10874516318E+03  0.00000000000E+00 0.  1.
         22    1    1    2    0    0  0.30723909966E+02 -0.47775881719E+02 -0.19856975963E+02  0.60173025618E+02  0.00000000000E+00 0. -1.
</event>
<event>
 6    1  0.2809573E-005  0.1046731E+03  0.7818608E-02  0.1273412E+00
          2   -1    0    0  502    0  0.00000000000E+00  0.00000000000E+00  0.12088762799E+03  0.12088762799E+03  0.00000000000E+00 0. -1.
          1   -1    0    0  501    0 -0.00000000000E+00 -0.00000000000E+00 -0.20774860323E+03  0.20774860323E+03  0.00000000000E+00 0. -1.
          2    1    1    2  501    0 -0.98641709499E+02 -0.16397859525E+02 -0.55458581761E+02  0.11434478974E+03  0.00000000000E+00 0. -1.
          1    1    1    2  502    0  0.26676577244E+02  0.17387090577E+02 -0.56143089177E+02  0.64544536210E+02  0.00000000000E+00 0. -1.
         22    1    1    2    0    0  0.93366725767E+02  0.12545785936E+02  0.55941295372E+02  0.10956354664E+03  0.00000000000E+00 0. -1.
         22    1    1    2    0    0 -0.21401593512E+02 -0.13535016988E+02 -0.31200599675E+02  0.40183358618E+02  0.00000000000E+00 0.  1.
</event>
<event>
 6    1  0.2809573E-005  0.2140056E+03  0.7818608E-02  0.1206318E+00
          2   -1    0    0  502    0  0.00000000000E+00  0.00000000000E+00  0.69856100348E+03  0.69856100348E+03  0.00000000000E+00 0. -1.
          1   -1    0    0  501    0 -0.00000000000E+00 -0.00000000000E+00 -0.96881894904E+02  0.96881894904E+02  0.00000000000E+00 0. -1.
          2    1    1    2  501    0  0.29351962656E+02 -0.20290665818E+02  0.51628315837E+01  0.36054176749E+02  0.00000000000E+00 0. -1.
          1    1    1    2  502    0 -0.12015364127E+02 -0.96952543034E+02 -0.36406565790E+02  0.10425738635E+03  0.00000000000E+00 0. -1.
         22    1    1    2    0    0  0.28130068360E+02  0.11488894657E+03  0.52190698468E+03  0.53514266458E+03  0.00000000000E+00 0. -1.
         22    1    1    2    0    0 -0.45466666889E+02  0.23542622830E+01  0.11101585810E+03  0.11998867071E+03  0.00000000000E+00 0. -1.
</event>
<event>
 6    1  0.2809573E-005  0.6120218E+02  0.7818608E-02  0.1456130E+00
          2   -1    0    0  502    0  0.00000000000E+00  0.00000000000E+00  0.43106526537E+02  0.43106526537E+02  0.00000000000E+00 0.  1.
          1   -1    0    0  501    0 -0.00000000000E+00 -0.00000000000E+00 -0.64844538704E+03  0.64844538704E+03  0.00000000000E+00 0. -1.
          2    1    1    2  501    0  0.22675352267E+02 -0.23320312151E+02 -0.92352535216E+02  0.97913223418E+02  0.00000000000E+00 0.  1.
          1    1    1    2  502    0  0.25007849897E+02  0.21021632122E+02 -0.43981914335E+03  0.44103081574E+03  0.00000000000E+00 0. -1.
         22    1    1    2    0    0 -0.24796197595E+02 -0.18508498849E+01 -0.10794317159E+03  0.11077005621E+03  0.00000000000E+00 0.  1.
         22    1    1    2    0    0 -0.22887004570E+02  0.41495299135E+01  0.34775989649E+02  0.41837818212E+02  0.00000000000E+00 0.  1.
</event>
<event>
 6    1  0.2809573E-005  0.2275293E+03  0.7818608E-02  0.1206680E+00
          2   -1    0    0  502    0  0.00000000000E+00  0.00000000000E+00  0.68076390924E+03  0.68076390924E+03  0.00000000000E+00 0. -1.
          1   -1    0    0  501    0 -0.00000000000E+00 -0.00000000000E+00 -0.21966777503E+04  0.21966777503E+04  0.00000000000E+00 0.  1.
          2    1    1    2  501    0 -0.92085849421E+02 -0.20087752753E+00  0.13578201545E+03  0.16406279205E+03  0.00000000000E+00 0. -1.
          1    1    1    2  502    0 -0.20181100782E+02 -0.47894274395E+02 -0.21672763190E+04  0.21678993937E+04  0.00000000000E+00 0.  1.
         22    1    1    2    0    0  0.35494041047E+01 -0.37421222453E+02  0.14908270393E+03  0.15374849193E+03  0.00000000000E+00 0. -1.
         22    1    1    2    0    0  0.10871754610E+03  0.85516374376E+02  0.36649775855E+03  0.39173098185E+03  0.00000000000E+00 0. -1.
</event>
<event>
 6    1  0.2809573E-005  0.7344674E+02  0.7818608E-02  0.1353162E+00
          2   -1    0    0  502    0  0.00000000000E+00  0.00000000000E+00  0.13375559949E+03  0.13375559949E+03  0.00000000000E+00 0.  1.
          1   -1    0    0  501    0 -0.00000000000E+00 -0.00000000000E+00 -0.18952811053E+03  0.18952811053E+03  0.00000000000E+00 0.  1.
          2    1    1    2  501    0 -0.13276233352E+02 -0.16953970816E+02  0.11779920656E+02  0.24545101937E+02  0.00000000000E+00 0.  1.
          1    1    1    2  502    0  0.22828734039E+02  0.42359273743E+02 -0.14130450761E+03  0.14927298162E+03  0.00000000000E+00 0.  1.
         22    1    1    2    0    0  0.10920818004E+01 -0.76730572111E+02  0.52094112031E+02  0.92750039609E+02  0.00000000000E+00 0.  1.
         22    1    1    2    0    0 -0.10644582487E+02  0.51325269184E+02  0.21657963875E+02  0.56715586856E+02  0.00000000000E+00 0.  1.
</event>
<event>
 6    1  0.2809573E-005  0.2737190E+03  0.7818608E-02  0.1176309E+00
          2   -1    0    0  502    0  0.00000000000E+00  0.00000000000E+00  0.74925591692E+03  0.74925591692E+03  0.00000000000E+00 0. -1.
          1   -1    0    0  501    0 -0.00000000000E+00 -0.00000000000E+00 -0.23283431238E+03  0.23283431238E+03  0.00000000000E+00 0. -1.
          2    1    1    2  501    0 -0.13627110839E+02  0.20799319025E+03  0.34761665693E+03  0.40531988048E+03  0.00000000000E+00 0. -1.
          1    1    1    2  502    0 -0.39076608736E+02 -0.25381410508E+03 -0.97627253033E+02  0.27473562169E+03  0.00000000000E+00 0. -1.
         22    1    1    2    0    0  0.46190273897E+02  0.87482297504E+02  0.16822094029E+03  0.19515373051E+03  0.00000000000E+00 0.  1.
         22    1    1    2    0    0  0.65134456769E+01 -0.41661382671E+02  0.98211260348E+02  0.10688099663E+03  0.00000000000E+00 0. -1.
</event>
<event>
 6    1  0.2809573E-005  0.1096390E+03  0.7818608E-02  0.1344745E+00
          2   -1    0    0  502    0  0.00000000000E+00  0.00000000000E+00  0.33454753685E+02  0.33454753685E+02  0.00000000000E+00 0.  1.
          1   -1    0    0  501    0 -0.00000000000E+00 -0.00000000000E+00 -0.13375081457E+04  0.13375081457E+04  0.00000000000E+00 0. -1.
          2    1    1    2  501    0 -0.34628116271E+02  0.10422017821E+02 -0.76839104726E+02  0.84923335468E+02  0.00000000000E+00 0.  1.
          1    1    1    2  502    0  0.92452789279E+01  0.29922649825E+02 -0.11090691132E+04  0.11095112159E+04  0.00000000000E+00 0. -1.
         22    1    1    2    0    0  0.40376606325E+02 -0.15081282864E+01  0.10139734882E+02  0.41657640508E+02  0.00000000000E+00 0.  1.
         22    1    1    2    0    0 -0.14993768982E+02 -0.38836539359E+02 -0.12828490893E+03  0.13487070756E+03  0.00000000000E+00 0.  1.
</event>
<event>
 6    1  0.2809573E-005  0.1977266E+03  0.7818608E-02  0.1230257E+00
          2   -1    0    0  502    0  0.00000000000E+00  0.00000000000E+00  0.17309287639E+03  0.17309287639E+03  0.00000000000E+00 0. -1.
          1   -1    0    0  501    0 -0.00000000000E+00 -0.00000000000E+00 -0.91099157631E+03  0.91099157631E+03  0.00000000000E+00 0. -1.
          2    1    1    2  501    0  0.66853444551E+02  0.14433519566E+03  0.19178182434E+02  0.16021808398E+03  0.00000000000E+00 0. -1.
          1    1    1    2  502    0 -0.31776576326E+02 -0.16596219389E+03 -0.77476471868E+03  0.79297766041E+03  0.00000000000E+00 0. -1.
         22    1    1    2    0    0 -0.26983093852E+02 -0.22080895852E+02  0.60079995178E+02  0.69464085224E+02  0.00000000000E+00 0. -1.
         22    1    1    2    0    0 -0.80937743739E+01  0.43707894087E+02 -0.42392158852E+02  0.61424623086E+02  0.00000000000E+00 0.  1.
</event>
<event>
 6    1  0.2809573E-005  0.1811608E+03  0.7818608E-02  0.1303543E+00
          2   -1    0    0  502    0  0.00000000000E+00  0.00000000000E+00  0.97058457655E+02  0.97058457655E+02  0.00000000000E+00 0. -1.
          1   -1    0    0  501    0 -0.00000000000E+00 -0.00000000000E+00 -0.48632152029E+03  0.48632152029E+03  0.00000000000E+00 0.  1.
          2    1    1    2  501    0 -0.11132989462E+03 -0.15737485059E+02 -0.95157828145E+02  0.14729910431E+03  0.00000000000E+00 0. -1.
          1    1    1    2  502    0  0.12316886442E+03  0.75691139383E+02 -0.24884705355E+03  0.28779258817E+03  0.00000000000E+00 0.  1.
         22    1    1    2    0    0  0.22984340233E+01  0.10650838523E+02  0.37230910125E+02  0.38792574405E+02  0.00000000000E+00 0. -1.
         22    1    1    2    0    0 -0.14137403827E+02 -0.70604492847E+02 -0.82489091060E+02  0.10949571106E+03  0.00000000000E+00 0.  1.
</event>
<event>
 6    1  0.2809573E-005  0.1063854E+03  0.7818608E-02  0.1330300E+00
          2   -1    0    0  502    0  0.00000000000E+00  0.00000000000E+00  0.62233617738E+02  0.62233617738E+02  0.00000000000E+00 0.  1.
          1   -1    0    0  501    0 -0.00000000000E+00 -0.00000000000E+00 -0.26568326456E+04  0.26568326456E+04  0.00000000000E+00 0.  1.
          2    1    1    2  501    0  0.48914524763E+02  0.65753160681E+01 -0.16723078845E+03  0.17436169912E+03  0.00000000000E+00 0.  1.
          1    1    1    2  502    0 -0.35971960119E+02 -0.37769273801E+02 -0.24153509827E+04  0.24159140857E+04  0.00000000000E+00 0.  1.
         22    1    1    2    0    0  0.68224568273E+01  0.57967429955E+02 -0.51017729178E+02  0.77521465048E+02  0.00000000000E+00 0.  1.
         22    1    1    2    0    0 -0.19765021471E+02 -0.26773472222E+02  0.39000472460E+02  0.51269013455E+02  0.00000000000E+00 0.  1.
</event>
<event>
 6    1  0.2809573E-005  0.1206027E+03  0.7818608E-02  0.1284327E+00
          2   -1    0    0  502    0  0.00000000000E+00  0.00000000000E+00  0.34675719029E+03  0.34675719029E+03  0.00000000000E+00 0. -1.
          1   -1    0    0  501    0 -0.00000000000E+00 -0.00000000000E+00 -0.41045947707E+02  0.41045947707E+02  0.00000000000E+00 0. -1.
          2    1    1    2  501    0  0.18336129713E+02 -0.54158382413E+02  0.10757085536E+03  0.12182295745E+03  0.00000000000E+00 0. -1.
          1    1    1    2  502    0  0.22328240557E+02  0.29387068915E+02  0.19657774221E+02  0.41816004509E+02  0.00000000000E+00 0. -1.
         22    1    1    2    0    0 -0.70584702381E+02 -0.12184963272E+02  0.50519585121E+02  0.87652164953E+02  0.00000000000E+00 0.  1.
         22    1    1    2    0    0  0.29920332112E+02  0.36956276769E+02  0.12796302789E+03  0.13651201109E+03  0.00000000000E+00 0.  1.
</event>
<event>
 6    1  0.2809573E-005  0.4780009E+02  0.7818608E-02  0.1494319E+00
          2   -1    0    0  502    0  0.00000000000E+00  0.00000000000E+00  0.10750815025E+03  0.10750815025E+03  0.00000000000E+00 0.  1.
          1   -1    0    0  501    0 -0.00000000000E+00 -0.00000000000E+00 -0.48938831532E+03  0.48938831532E+03  0.00000000000E+00 0. -1.
          2    1    1    2  501    0 -0.21403354748E+02 -0.91253510722E+01  0.15931909679E+00  0.23268025469E+02  0.00000000000E+00 0.  1.
          1    1    1    2  502    0  0.30381816871E+02  0.23717879763E+02 -0.43321056131E+03  0.43492181257E+03  0.00000000000E+00 0. -1.
         22    1    1    2    0    0 -0.25806961412E+02 -0.37421302219E+02 -0.28829003146E+02  0.53828101763E+02  0.00000000000E+00 0. -1.
         22    1    1    2    0    0  0.16828499288E+02  0.22828773528E+02  0.80000080289E+02  0.84878525761E+02  0.00000000000E+00 0.  1.
</event>
<event>
 6    1  0.2809573E-005  0.1197749E+03  0.7818608E-02  0.1255516E+00
          2   -1    0    0  502    0  0.00000000000E+00  0.00000000000E+00  0.66947496675E+02  0.66947496675E+02  0.00000000000E+00 0.  1.
          1   -1    0    0  501    0 -0.00000000000E+00 -0.00000000000E+00 -0.10596968197E+04  0.10596968197E+04  0.00000000000E+00 0.  1.
          2    1    1    2  501    0  0.14350343454E+03 -0.67878217710E+02 -0.44290449677E+03  0.47049450733E+03  0.00000000000E+00 0.  1.
          1    1    1    2  502    0 -0.10100866835E+03 -0.47173281777E+00 -0.47904584356E+03  0.48957930292E+03  0.00000000000E+00 0.  1.
         22    1    1    2    0    0 -0.57376708171E+02  0.74626820947E+02 -0.18652437466E+00  0.94134392421E+02  0.00000000000E+00 0.  1.
         22    1    1    2    0    0  0.14881941979E+02 -0.62768704187E+01 -0.70612458300E+02  0.72436113690E+02  0.00000000000E+00 0. -1.
</event>
<event>
 6    1  0.2809573E-005  0.1746141E+03  0.7818608E-02  0.1271461E+00
          2   -1    0    0  502    0  0.00000000000E+00  0.00000000000E+00  0.18121452528E+03  0.18121452528E+03  0.00000000000E+00 0. -1.
          1   -1    0    0  501    0 -0.00000000000E+00 -0.00000000000E+00 -0.30317684234E+03  0.30317684234E+03  0.00000000000E+00 0. -1.
          2    1    1    2  501    0  0.40260589121E+02  0.12810084329E+03 -0.34801290987E+02  0.13871507107E+03  0.00000000000E+00 0. -1.
          1    1    1    2  502    0 -0.79248098608E+02 -0.11862867625E+03 -0.14701278761E+03  0.20485551904E+03  0.00000000000E+00 0. -1.
         22    1    1    2    0    0  0.53105791507E+02  0.77207358157E+01 -0.20499842335E+02  0.57446308749E+02  0.00000000000E+00 0.  1.
         22    1    1    2    0    0 -0.14118282020E+02 -0.17192902854E+02  0.80351603876E+02  0.83374468761E+02  0.00000000000E+00 0. -1.
</event>
<event>
 6    1  0.2809573E-005  0.1096841E+03  0.7818608E-02  0.1265668E+00
          2   -1    0    0  502    0  0.00000000000E+00  0.00000000000E+00  0.26819959348E+02  0.26819959348E+02  0.00000000000E+00 0. -1.
          1   -1    0    0  501    0 -0.00000000000E+00 -0.00000000000E+00 -0.66085417482E+03  0.66085417482E+03  0.00000000000E+00 0. -1.
          2    1    1    2  501    0 -0.52551380043E+02  0.50984826424E+02 -0.33265712088E+03  0.34061981760E+03  0.00000000000E+00 0. -1.
          1    1    1    2  502    0 -0.22683982042E+01 -0.32403985317E+02 -0.64430906950E+02  0.72156120081E+02  0.00000000000E+00 0. -1.
         22    1    1    2    0    0 -0.24174471035E+02  0.35327344020E+02 -0.88559761648E+02  0.98362887658E+02  0.00000000000E+00 0. -1.
         22    1    1    2    0    0  0.78994249282E+02 -0.53908185127E+02 -0.14838642599E+03  0.17653530883E+03  0.00000000000E+00 0. -1.
</event>
<event>
 6    1  0.2809573E-005  0.2278088E+03  0.7818608E-02  0.1184127E+00
          2   -1    0    0  502    0  0.00000000000E+00  0.00000000000E+00  0.20200790587E+03  0.20200790587E+03  0.00000000000E+00 0. -1.
          1   -1    0    0  501    0 -0.00000000000E+00 -0.00000000000E+00 -0.14821964743E+04  0.14821964743E+04  0.00000000000E+00 0. -1.
          2    1    1    2  501    0 -0.33855380858E+02 -0.17020362002E+03 -0.12495364201E+04  0.12615295177E+04  0.00000000000E+00 0. -1.
          1    1    1    2  502    0  0.11508643891E+03  0.16764610830E+03 -0.12955082712E+03  0.24110894396E+03  0.00000000000E+00 0. -1.
         22    1    1    2    0    0 -0.21172060886E+02 -0.10012629135E+02 -0.30441796551E+02  0.38408487104E+02  0.00000000000E+00 0.  1.
         22    1    1    2    0    0 -0.60058997165E+02  0.12570140859E+02  0.12934047534E+03  0.14315743132E+03  0.00000000000E+00 0. -1.
</event>
<event>
 6    1  0.2809573E-005  0.1241042E+03  0.7818608E-02  0.1363392E+00
          2   -1    0    0  502    0  0.00000000000E+00  0.00000000000E+00  0.80176512805E+02  0.80176512805E+02  0.00000000000E+00 0. -1.
          1   -1    0    0  501    0 -0.00000000000E+00 -0.00000000000E+00 -0.16552699996E+04  0.16552699996E+04  0.00000000000E+00 0.  1.
          2    1    1    2  501    0  0.33446717201E+02  0.12466113498E+02 -0.54280229776E+02  0.64964838350E+02  0.00000000000E+00 0. -1.
          1    1    1    2  502    0  0.51245271212E+02 -0.20274945723E+02 -0.15156279338E+04  0.15166295477E+04  0.00000000000E+00 0.  1.
         22    1    1    2    0    0 -0.82095932586E+02 -0.37897307878E+01 -0.57437321013E+02  0.10026539808E+03  0.00000000000E+00 0. -1.
         22    1    1    2    0    0 -0.25960558270E+01  0.11598563013E+02  0.52251997813E+02  0.53586728257E+02  0.00000000000E+00 0. -1.
</event>
<event>
 6    1  0.2809573E-005  0.2006671E+03  0.7818608E-02  0.1173376E+00
          2   -1    0    0  502    0  0.00000000000E+00  0.00000000000E+00  0.73174827300E+02  0.73174827300E+02  0.00000000000E+00 0.  1.
          1   -1    0    0  501    0 -0.00000000000E+00 -0.00000000000E+00 -0.14360002526E+04  0.14360002526E+04  0.00000000000E+00 0. -1.
          2    1    1    2  501    0 -0.72775298727E+02  0.24596086205E+01 -0.52447980942E+02  0.89738979737E+02  0.00000000000E+00 0.  1.
          1    1    1    2  502    0  0.16198306532E+03 -0.13525784456E+03 -0.11191279798E+04  0.11388505755E+04  0.00000000000E+00 0. -1.
         22    1    1    2    0    0 -0.33898137050E+02  0.10924390792E+03 -0.18839740824E+03  0.22040167546E+03  0.00000000000E+00 0. -1.
         22    1    1    2    0    0 -0.55309629539E+02  0.23554328015E+02 -0.28520563053E+01  0.60183849271E+02  0.00000000000E+00 0.  1.
</event>
<event>
 6    1  0.2809573E-005  0.1215806E+03  0.7818608E-02  0.1266644E+00
          2   -1    0    0  502    0  0.00000000000E+00  0.00000000000E+00  0.29594980676E+03  0.29594980676E+03  0.00000000000E+00 0. -1.
          1   -1    0    0  501    0 -0.00000000000E+00 -0.00000000000E+00 -0.25251256915E+03  0.25251256915E+03  0.00000000000E+00 0. -1.
          2    1    1    2  501    0 -0.47008604266E+02 -0.56314553299E+02  0.36095801438E+02  0.81756006934E+02  0.00000000000E+00 0. -1.
          1    1    1    2  502    0 -0.24472863299E+02 -0.16726713902E+02 -0.20203471161E+03  0.20419776858E+03  0.00000000000E+00 0. -1.
         22    1    1    2    0    0  0.13190737822E+02  0.24011195729E+02 -0.10862182740E+02  0.29470665050E+02  0.00000000000E+00 0. -1.
         22    1    1    2    0    0  0.58290729743E+02  0.49030071472E+02  0.22023833052E+03  0.23303793535E+03  0.00000000000E+00 0. -1.
</event>
<event>
 6    1  0.2809573E-005  0.2425769E+03  0.7818608E-02  0.1221226E+00
          2   -1    0    0  502    0  0.00000000000E+00  0.00000000000E+00  0.11092989209E+03  0.11092989209E+03  0.00000000000E+00 0. -1.
          1   -1    0    0  501    0 -0.00000000000E+00 -0.00000000000E+00 -0.99385651479E+03  0.99385651479E+03  0.00000000000E+00 0. -1.
          2    1    1    2  501    0  0.33090453901E+02 -0.10654544008E+03 -0.29855741116E+03  0.31872156610E+03  0.00000000000E+00 0. -1.
          1    1    1    2  502    0 -0.12545163804E+03  0.19983443090E+03 -0.78084617593E+02  0.24853394288E+03  0.00000000000E+00 0. -1.
         22    1    1    2    0    0  0.19767070879E+02  0.11329755411E+02 -0.94983812189E+01  0.24684401848E+02  0.00000000000E+00 0.  1.
         22    1    1    2    0    0  0.72594113261E+02 -0.10461874623E+03 -0.49678621274E+03  0.51284649605E+03  0.00000000000E+00 0. -1.
</event>
<event>
 6    1  0.2809573E-005  0.1412563E+03  0.7818608E-02  0.1230663E+00
          2   -1    0    0  502    0  0.00000000000E+00  0.00000000000E+00  0.65244583888E+03  0.65244583888E+03  0.00000000000E+00 0. -1.
          1   -1    0    0  501    0 -0.00000000000E+00 -0.00000000000E+00 -0.11490492183E+04  0.11490492183E+04  0.00000000000E+00 0. -1.
          2    1    1    2  501    0 -0.93993398071E+02 -0.16604087861E+03  0.31520948206E+03  0.36845807066E+03  0.00000000000E+00 0. -1.
          1    1    1    2  502    0  0.87417319534E+02  0.10258302651E+03 -0.11029030537E+04  0.11111076504E+04  0.00000000000E+00 0. -1.
         22    1    1    2    0    0  0.17732244141E+02  0.93156891670E+02  0.26293276315E+03  0.27951078135E+03  0.00000000000E+00 0. -1.
         22    1    1    2    0    0 -0.11156165604E+02 -0.29699039569E+02  0.28157428982E+02  0.42418554775E+02  0.00000000000E+00 0. -1.
</event>
<event>
 6    1  0.2809573E-005  0.9058637E+02  0.7818608E-02  0.1303695E+00
          2   -1    0    0  502    0  0.00000000000E+00  0.00000000000E+00  0.62062500601E+03  0.62062500601E+03  0.00000000000E+00 0.  1.
          1   -1    0    0  501    0 -0.00000000000E+00 -0.00000000000E+00 -0.32505569864E+02  0.32505569864E+02  0.00000000000E+00 0. -1.
          2    1    1    2  501    0 -0.26843393296E+02  0.38338747809E+02  0.16790333603E+03  0.17430420993E+03  0.00000000000E+00 0.  1.
          1    1    1    2  502    0  0.17633579970E+02  0.18832602421E+02 -0.88499230809E+01  0.27275102109E+02  0.00000000000E+00 0. -1.
         22    1    1    2    0    0 -0.30599255747E+01  0.38556111610E+02  0.18694759856E+03  0.19090663030E+03  0.00000000000E+00 0.  1.
         22    1    1    2    0    0  0.12269738901E+02 -0.95727461839E+02  0.24211842463E+03  0.26064463353E+03  0.00000000000E+00 0. -1.
</event>
<event>
 6    1  0.2809573E-005  0.1092019E+03  0.7818608E-02  0.1281363E+00
          2   -1    0    0  502    0  0.00000000000E+00  0.00000000000E+00  0.42828828299E+03  0.42828828299E+03  0.00000000000E+00 0. -1.
          1   -1    0    0  501    0 -0.00000000000E+00 -0.00000000000E+00 -0.47359248527E+02  0.47359248527E+02  0.00000000000E+00 0. -1.
          2    1    1    2  501    0  0.56676532639E+02  0.52447639916E+01  0.12261655447E+03  0.13518341737E+03  0.00000000000E+00 0. -1.
          1    1    1    2  502    0 -0.23242779335E+01  0.19965114505E+02 -0.21852902484E+02  0.29691032519E+02  0.00000000000E+00 0. -1.
         22    1    1    2    0    0 -0.46346403832E+02 -0.64573899489E+02  0.24435878391E+03  0.25696107276E+03  0.00000000000E+00 0. -1.
         22    1    1    2    0    0 -0.80058508739E+01  0.39364020993E+02  0.35806598565E+02  0.53812008862E+02  0.00000000000E+00 0. -1.
</event>
<event>
 6    1  0.2809573E-005  0.9225259E+02  0.7818608E-02  0.1343296E+00
          2   -1    0    0  502    0  0.00000000000E+00  0.00000000000E+00  0.67313685286E+03  0.67313685286E+03  0.00000000000E+00 0.  1.
          1   -1    0    0  501    0 -0.00000000000E+00 -0.00000000000E+00 -0.32084477186E+02  0.32084477186E+02  0.00000000000E+00 0.  1.
          2    1    1    2  501    0 -0.29814743684E+02 -0.20947580395E+02  0.11799257246E+03  0.12349075764E+03  0.00000000000E+00 0.  1.
          1    1    1    2  502    0  0.42894007416E+02  0.68958999039E+02  0.61047177756E+02  0.10159723093E+03  0.00000000000E+00 0.  1.
         22    1    1    2    0    0 -0.39359231046E+02 -0.79091931749E+02  0.27915424671E+03  0.29279989104E+03  0.00000000000E+00 0.  1.
         22    1    1    2    0    0  0.26279967315E+02  0.31080513105E+02  0.18285837875E+03  0.18733345045E+03  0.00000000000E+00 0.  1.
</event>
<event>
 6    1  0.2809573E-005  0.1279448E+03  0.7818608E-02  0.1232285E+00
          2   -1    0    0  502    0  0.00000000000E+00  0.00000000000E+00  0.36905876750E+03  0.36905876750E+03  0.00000000000E+00 0.  1.
          1   -1    0    0  501    0 -0.00000000000E+00 -0.00000000000E+00 -0.18473902519E+03  0.18473902519E+03  0.00000000000E+00 0. -1.
          2    1    1    2  501    0  0.38471871090E+02  0.55181205582E+02  0.43442533498E+02  0.80076863271E+02  0.00000000000E+00 0.  1.
          1    1    1    2  502    0  0.29452968257E+02  0.65053143405E+02 -0.12741543258E+03  0.14606190902E+03  0.00000000000E+00 0. -1.
         22    1    1    2    0    0  0.21196444712E+02  0.14817331336E+02  0.45020188274E+02  0.51919745074E+02  0.00000000000E+00 0. -1.
         22    1    1    2    0    0 -0.89121284059E+02 -0.13505168032E+03  0.22327245313E+03  0.27573927532E+03  0.00000000000E+00 0.  1.
</event>
<event>
 6    1  0.2809573E-005  0.1039261E+03  0.7818608E-02  0.1276111E+00
          2   -1    0    0  502    0  0.00000000000E+00  0.00000000000E+00  0.23450778245E+02  0.23450778245E+02  0.00000000000E+00 0.  1.
          1   -1    0    0  501    0 -0.00000000000E+00 -0.00000000000E+00 -0.13945645291E+04  0.13945645291E+04  0.00000000000E+00 0.  1.
          2    1    1    2  501    0 -0.34614635587E+02  0.46838823963E+02 -0.42880209273E+03  0.43273927850E+03  0.00000000000E+00 0.  1.
          1    1    1    2  502    0 -0.22722063660E+02 -0.82858105534E+01 -0.72395196490E+03  0.72435584786E+03  0.00000000000E+00 0.  1.
         22    1    1    2    0    0  0.69169225589E+02 -0.69911794575E+02 -0.11027815157E+03  0.14776099452E+03  0.00000000000E+00 0.  1.
         22    1    1    2    0    0 -0.11832526342E+02  0.31358781165E+02 -0.10808154165E+03  0.11315918647E+03  0.00000000000E+00 0. -1.
</event>
<event>
 6    1  0.2809573E-005  0.4937852E+03  0.7818608E-02  0.1106527E+00
          2   -1    0    0  502    0  0.00000000000E+00  0.00000000000E+00  0.30623431291E+03  0.30623431291E+03  0.00000000000E+00 0.  1.
          1   -1    0    0  501    0 -0.00000000000E+00 -0.00000000000E+00 -0.63625991532E+03  0.63625991532E+03  0.00000000000E+00 0. -1.
          2    1    1    2  501    0 -0.31491436016E+02 -0.14824666674E+03 -0.19227184826E+03  0.24482084955E+03  0.00000000000E+00 0.  1.
          1    1    1    2  502    0  0.73409203964E+02  0.60252565035E+02 -0.38809327081E+03  0.39954432754E+03  0.00000000000E+00 0. -1.
         22    1    1    2    0    0  0.10062369167E+02  0.37223669409E+02  0.11658557794E+01  0.38577351610E+02  0.00000000000E+00 0.  1.
         22    1    1    2    0    0 -0.51980137115E+02  0.50770432297E+02  0.24917366088E+03  0.25955169952E+03  0.00000000000E+00 0.  1.
</event>
<event>
 6    1  0.2809573E-005  0.1205383E+03  0.7818608E-02  0.1305051E+00
          2   -1    0    0  502    0  0.00000000000E+00  0.00000000000E+00  0.13654150502E+03  0.13654150502E+03  0.00000000000E+00 0. -1.
          1   -1    0    0  501    0 -0.00000000000E+00 -0.00000000000E+00 -0.46536082188E+03  0.46536082188E+03  0.00000000000E+00 0.  1.
          2    1    1    2  501    0 -0.26017966048E+02 -0.13313842212E+02 -0.51389762774E+02  0.59119376431E+02  0.00000000000E+00 0. -1.
          1    1    1    2  502    0  0.23620752439E+02  0.11013094580E+03 -0.35235870041E+03  0.36992353118E+03  0.00000000000E+00 0.  1.
         22    1    1    2    0    0 -0.30708823087E+01 -0.35851383607E+02  0.10033037659E+03  0.10658769391E+03  0.00000000000E+00 0. -1.
         22    1    1    2    0    0  0.54680959179E+01 -0.60965719976E+02 -0.25401230275E+02  0.66271725378E+02  0.00000000000E+00 0. -1.
</event>
<event>
 6    1  0.2809573E-005  0.5022933E+02  0.7818608E-02  0.1526105E+00
          2   -1    0    0  502    0  0.00000000000E+00  0.00000000000E+00  0.86243462741E+02  0.86243462741E+02  0.00000000000E+00 0.  1.
          1   -1    0    0  501    0 -0.00000000000E+00 -0.00000000000E+00 -0.14140295947E+03  0.14140295947E+03  0.00000000000E+00 0.  1.
          2    1    1    2  501    0 -0.34800368456E+02  0.13238965304E+02 -0.50843151411E+02  0.63018742390E+02  0.00000000000E+00 0.  1.
          1    1    1    2  502    0  0.20237008072E+02 -0.46314564241E+01 -0.32679997654E+02  0.38716522713E+02  0.00000000000E+00 0.  1.
         22    1    1    2    0    0  0.11384984777E+02  0.69582574261E+01 -0.47017467715E+02  0.48874098407E+02  0.00000000000E+00 0.  1.
         22    1    1    2    0    0  0.31783756070E+01 -0.15565766306E+02  0.75381120054E+02  0.77037058698E+02  0.00000000000E+00 0.  1.
</event>
<event>
 6    1  0.2809573E-005  0.9072475E+02  0.7818608E-02  0.1303011E+00
          2   -1    0    0  502    0  0.00000000000E+00  0.00000000000E+00  0.49565009261E+03  0.49565009261E+03  0.00000000000E+00 0. -1.
          1   -1    0    0  501    0 -0.00000000000E+00 -0.00000000000E+00 -0.81515367802E+02  0.81515367802E+02  0.00000000000E+00 0.  1.
          2    1    1    2  501    0  0.13346115918E+02  0.59096240261E+02  0.94844663533E+02  0.11254330111E+03  0.00000000000E+00 0. -1.
          1    1    1    2  502    0  0.25592847919E+02 -0.22166952262E+02 -0.56736964993E+02  0.66071558434E+02  0.00000000000E+00 0.  1.
         22    1    1    2    0    0 -0.61875789682E+02 -0.62201282333E+02  0.32865967824E+03  0.34016877719E+03  0.00000000000E+00 0. -1.
         22    1    1    2    0    0  0.22936825845E+02  0.25271994334E+02  0.47367348031E+02  0.58381823687E+02  0.00000000000E+00 0. -1.
</event>
<event>
 6    1  0.2809573E-005  0.1878960E+03  0.7818608E-02  0.1232633E+00
          2   -1    0    0  502    0  0.00000000000E+00  0.00000000000E+00  0.55559667803E+03  0.55559667803E+03  0.00000000000E+00 0. -1.
          1   -1    0    0  501    0 -0.00000000000E+00 -0.00000000000E+00 -0.13472103117E+03  0.13472103117E+03  0.00000000000E+00 0.  1.
          2    1    1    2  501    0 -0.53224798057E+01  0.29683512630E+02 -0.51034530361E+01  0.30585698394E+02  0.00000000000E+00 0. -1.
          1    1    1    2  502    0  0.64702243820E+02 -0.30155952943E+02 -0.95511549435E+02  0.11924016911E+03  0.00000000000E+00 0.  1.
         22    1    1    2    0    0 -0.89502455472E+02  0.24751866509E+02  0.44709934259E+03  0.45664117923E+03  0.00000000000E+00 0. -1.
         22    1    1    2    0    0  0.30122691457E+02 -0.24279426196E+02  0.74391306740E+02  0.83850662463E+02  0.00000000000E+00 0. -1.
</event>
<event>
 6    1  0.2809573E-005  0.1057858E+03  0.7818608E-02  0.1269556E+00
          2   -1    0    0  502    0  0.00000000000E+00  0.00000000000E+00  0.39221482543E+03  0.39221482543E+03  0.00000000000E+00 0. -1.
          1   -1    0    0  501    0 -0.00000000000E+00 -0.00000000000E+00 -0.32040279170E+03  0.32040279170E+03  0.00000000000E+00 0.  1.
          2    1    1    2  501    0  0.73662061483E+02  0.96433203460E+00  0.20715824410E+03  0.21986715839E+03  0.00000000000E+00 0. -1.
          1    1    1    2  502    0  0.88195637748E+01  0.18014124138E+02 -0.28201189939E+03  0.28272425572E+03  0.00000000000E+00 0.  1.
         22    1    1    2    0    0  0.26628039596E+02  0.11000930707E+02  0.63080877218E+02  0.69348900782E+02  0.00000000000E+00 0. -1.
         22    1    1    2    0    0 -0.10910966485E+03 -0.29979386879E+02  0.83584811797E+02  0.14067730224E+03  0.00000000000E+00 0. -1.
</event>
<event>
 6    1  0.2809573E-005  0.1842296E+03  0.7818608E-02  0.1263998E+00
          2   -1    0    0  502    0  0.00000000000E+00  0.00000000000E+00  0.91403551346E+02  0.91403551346E+02  0.00000000000E+00 0. -1.
          1   -1    0    0  501    0 -0.00000000000E+00 -0.00000000000E+00 -0.18551387096E+04  0.18551387096E+04  0.00000000000E+00 0.  1.
          2    1    1    2  501    0 -0.62229609318E+01 -0.59472442425E+02 -0.53254531117E+02  0.80073352217E+02  0.00000000000E+00 0. -1.
          1    1    1    2  502    0  0.82738539413E+02  0.14985574200E+03 -0.16840241329E+04  0.16927018903E+04  0.00000000000E+00 0.  1.
         22    1    1    2    0    0  0.46221194104E+01  0.21401393280E+02  0.18335925095E+02  0.28558532372E+02  0.00000000000E+00 0. -1.
         22    1    1    2    0    0 -0.81137697891E+02 -0.11178469285E+03 -0.44792419278E+02  0.14520848598E+03  0.00000000000E+00 0. -1.
</event>
<event>
 6    1  0.2809573E-005  0.3291041E+03  0.7818608E-02  0.1182987E+00
          2   -1    0    0  502    0  0.00000000000E+00  0.00000000000E+00  0.43141208977E+03  0.43141208977E+03  0.00000000000E+00 0.  1.
          1   -1    0    0  501    0 -0.00000000000E+00 -0.00000000000E+00 -0.59160763208E+03  0.59160763208E+03  0.00000000000E+00 0.  1.
          2    1    1    2  501    0  0.24346107009E+02  0.12108055954E+03  0.49630095795E+02  0.13310289716E+03  0.00000000000E+00 0.  1.
          1    1    1    2  502    0 -0.46738840282E+02  0.50019352823E+02 -0.51378271553E+03  0.51832338711E+03  0.00000000000E+00 0.  1.
         22    1    1    2    0    0  0.34789968968E+02 -0.18789700760E+03  0.25747541529E+03  0.32063876385E+03  0.00000000000E+00 0.  1.
         22    1    1    2    0    0 -0.12397235695E+02  0.16797095238E+02  0.46481662126E+02  0.50954673734E+02  0.00000000000E+00 0. -1.
</event>
<event>
 6    1  0.2809573E-005  0.1155156E+03  0.7818608E-02  0.1294075E+00
          2   -1    0    0  502    0  0.00000000000E+00  0.00000000000E+00  0.11386383029E+03  0.11386383029E+03  0.00000000000E+00 0.  1.
          1   -1    0    0  501    0 -0.00000000000E+00 -0.00000000000E+00 -0.52114157416E+03  0.52114157416E+03  0.00000000000E+00 0.  1.
          2    1    1    2  501    0  0.34214468058E+02  0.11491497623E+02 -0.43696874037E+02  0.56675401566E+02  0.00000000000E+00 0.  1.
          1    1    1    2  502    0 -0.34075275565E+02 -0.61707280879E+02 -0.42347007823E+03  0.42929689036E+03  0.00000000000E+00 0.  1.
         22    1    1    2    0    0 -0.44506365212E+02 -0.22916487376E+02  0.30332613462E+02  0.58532464304E+02  0.00000000000E+00 0.  1.
         22    1    1    2    0    0  0.44367172718E+02  0.73132270633E+02  0.29556594943E+02  0.90500648216E+02  0.00000000000E+00 0.  1.
</event>
<event>
 6    1  0.2809573E-005  0.8509646E+02  0.7818608E-02  0.1366600E+00
          2   -1    0    0  502    0  0.00000000000E+00  0.00000000000E+00  0.52677496963E+02  0.52677496963E+02  0.00000000000E+00 0.  1.
          1   -1    0    0  501    0 -0.00000000000E+00 -0.00000000000E+00 -0.83050067013E+03  0.83050067013E+03  0.00000000000E+00 0. -1.
          2    1    1    2  501    0  0.21678649256E+02  0.19910546363E+02 -0.32649591054E+02  0.43958952286E+02  0.00000000000E+00 0.  1.
          1    1    1    2  502    0  0.16184120013E+02 -0.32927594144E+02 -0.69843572017E+03  0.69939874708E+03  0.00000000000E+00 0. -1.
         22    1    1    2    0    0 -0.32410307042E+02 -0.13070465483E+02 -0.85736454685E+02  0.92585121550E+02  0.00000000000E+00 0. -1.
         22    1    1    2    0    0 -0.54524622277E+01  0.26087513264E+02  0.38998592746E+02  0.47235346181E+02  0.00000000000E+00 0.  1.
</event>
<event>
 6    1  0.2809573E-005  0.2281673E+03  0.7818608E-02  0.1196094E+00
          2   -1    0    0  502    0  0.00000000000E+00  0.00000000000E+00  0.25849169616E+03  0.25849169616E+03  0.00000000000E+00 0. -1.
          1   -1    0    0  501    0 -0.00000000000E+00 -0.00000000000E+00 -0.28664166020E+03  0.28664166020E+03  0.00000000000E+00 0. -1.
          2    1    1    2  501    0 -0.94594674303E+02 -0.86162700318E+02 -0.61296800586E+02  0.14187833201E+03  0.00000000000E+00 0. -1.
          1    1    1    2  502    0  0.54212833718E+02  0.21132167560E+03  0.38477145673E+02  0.22153187729E+03  0.00000000000E+00 0. -1.
         22    1    1    2    0    0  0.32325079584E+01 -0.96557093171E+02 -0.56823733520E+02  0.11208326387E+03  0.00000000000E+00 0. -1.
         22    1    1    2    0    0  0.37149332626E+02 -0.28601882111E+02  0.51493424393E+02  0.69639883189E+02  0.00000000000E+00 0.  1.
</event>
<event>
 6    1  0.2809573E-005  0.1568726E+03  0.7818608E-02  0.1297130E+00
          2   -1    0    0  502    0  0.00000000000E+00  0.00000000000E+00  0.33886227386E+02  0.33886227386E+02  0.00000000000E+00 0. -1.
          1   -1    0    0  501    0 -0.00000000000E+00 -0.00000000000E+00 -0.12382750038E+04  0.12382750038E+04  0.00000000000E+00 0. -1.
          2    1    1    2  501    0 -0.91040481793E+02 -0.18714403237E+02 -0.27578561156E+03  0.29102629050E+03  0.00000000000E+00 0. -1.
          1    1    1    2  502    0  0.14119115076E+03 -0.60224587119E+01 -0.71568671766E+03  0.72950578401E+03  0.00000000000E+00 0. -1.
         22    1    1    2    0    0  0.16686892650E+02 -0.88445899189E+01  0.63740650126E+01  0.19932582922E+02  0.00000000000E+00 0. -1.
         22    1    1    2    0    0 -0.66837561616E+02  0.33581451868E+02 -0.21929051223E+03  0.23169657379E+03  0.00000000000E+00 0. -1.
</event>
<event>
 6    1  0.2809573E-005  0.2224265E+03  0.7818608E-02  0.1180641E+00
          2   -1    0    0  502    0  0.00000000000E+00  0.00000000000E+00  0.10055016216E+03  0.10055016216E+03  0.00000000000E+00 0.  1.
          1   -1    0    0  501    0 -0.00000000000E+00 -0.00000000000E+00 -0.27435195398E+04  0.27435195398E+04  0.00000000000E+00 0. -1.
          2    1    1    2  501    0 -0.27336767824E+02  0.14273654897E+03  0.75056352710E+01  0.14552441667E+03  0.00000000000E+00 0.  1.
          1    1    1    2  502    0  0.78198008075E+02 -0.19646197989E+03 -0.24066052974E+04  0.24158769206E+04  0.00000000000E+00 0. -1.
         22    1    1    2    0    0 -0.70673085656E+02  0.92349361511E+01 -0.21395048784E+03  0.22551004485E+03  0.00000000000E+00 0. -1.
         22    1    1    2    0    0  0.19811845404E+02  0.44490494766E+02 -0.29919227661E+02  0.57158319838E+02  0.00000000000E+00 0. -1.
</event>
<event>
 6    1  0.4540230E-005  0.1053062E+03  0.7818608E-02  0.1302491E+00
          2   -1    0    0  502    0  0.00000000000E+00  0.00000000000E+00  0.23237393897E+03  0.23237393897E+03  0.00000000000E+00 0.  1.
          1   -1    0    0  501    0 -0.00000000000E+00 -0.00000000000E+00 -0.11869392837E+04  0.11869392837E+04  0.00000000000E+00 0. -1.
          2    1    1    2  501    0  0.10933094345E+03  0.28109465009E+02 -0.39782613756E+03  0.41353238440E+03  0.00000000000E+00 0.  1.
          1    1    1    2  502    0 -0.53104462832E+02 -0.14193314439E+02 -0.75778014778E+03  0.75977120670E+03  0.00000000000E+00 0. -1.
         22    1    1    2    0    0 -0.19824423817E+00 -0.17118903202E+02 -0.15022738529E+02  0.22776716631E+02  0.00000000000E+00 0. -1.
         22    1    1    2    0    0 -0.56028236383E+02  0.32027526318E+01  0.21606367911E+03  0.22323291497E+03  0.00000000000E+00 0.  1.
</event>
<event>
 6    1  0.2809573E-005  0.1709665E+03  0.7818608E-02  0.1177390E+00
          2   -1    0    0  502    0  0.00000000000E+00  0.00000000000E+00  0.39126112539E+03  0.39126112539E+03  0.00000000000E+00 0.  1.
          1   -1    0    0  501    0 -0.00000000000E+00 -0.00000000000E+00 -0.28406522606E+03  0.28406522606E+03  0.00000000000E+00 0. -1.
          2    1    1    2  501    0 -0.13537703046E+03  0.10685046128E+03 -0.42953100144E+02  0.17773274956E+03  0.00000000000E+00 0.  1.
          1    1    1    2  502    0  0.26066661788E+02  0.46769867056E+01 -0.14070954281E+03  0.14318002828E+03  0.00000000000E+00 0. -1.
         22    1    1    2    0    0 -0.12648953541E+02  0.16834528262E+01 -0.59966785249E+01  0.14099297587E+02  0.00000000000E+00 0.  1.
         22    1    1    2    0    0  0.12195932222E+03 -0.11321090081E+03  0.29685522081E+03  0.34031427602E+03  0.00000000000E+00 0.  1.
</event>
<event>
 6    1  0.2809573E-005  0.2176108E+03  0.7818608E-02  0.1239159E+00
          2   -1    0    0  502    0  0.00000000000E+00  0.00000000000E+00  0.23442496264E+03  0.23442496264E+03  0.00000000000E+00 0.  1.
          1   -1    0    0  501    0 -0.00000000000E+00 -0.00000000000E+00 -0.15921885008E+04  0.15921885008E+04  0.00000000000E+00 0. -1.
          2    1    1    2  501    0 -0.50896314647E+02 -0.84307908017E+02  0.48713571443E+02  0.10986933258E+03  0.00000000000E+00 0.  1.
          1    1    1    2  502    0  0.11246151143E+03  0.18211501974E+03 -0.15058752270E+04  0.15210107400E+04  0.00000000000E+00 0. -1.
         22    1    1    2    0    0 -0.19008836410E+02 -0.10662233532E+02  0.96265624696E+02  0.98702024212E+02  0.00000000000E+00 0.  1.
         22    1    1    2    0    0 -0.42556360376E+02 -0.87144878196E+02  0.31324926677E+01  0.97031366653E+02  0.00000000000E+00 0.  1.
</event>
<event>
 6    1  0.2809573E-005  0.1264055E+03  0.7818608E-02  0.1242593E+00
          2   -1    0    0  502    0  0.00000000000E+00  0.00000000000E+00  0.90044945444E+02  0.90044945444E+02  0.00000000000E+00 0. -1.
          1   -1    0    0  501    0 -0.00000000000E+00 -0.00000000000E+00 -0.13584555344E+04  0.13584555344E+04  0.00000000000E+00 0.  1.
          2    1    1    2  501    0  0.70558528125E+02  0.60887578670E+02 -0.12247274428E+03  0.15390054002E+03  0.00000000000E+00 0. -1.
          1    1    1    2  502    0 -0.34997722234E+02  0.10802971824E+02 -0.11467273112E+04  0.11473121070E+04  0.00000000000E+00 0.  1.
         22    1    1    2    0    0  0.41875176346E+02 -0.91732544261E+01 -0.17131591218E+02  0.46164601249E+02  0.00000000000E+00 0. -1.
         22    1    1    2    0    0 -0.77435982237E+02 -0.62517296068E+02  0.17921057690E+02  0.10112323156E+03  0.00000000000E+00 0. -1.
</event>
<event>
 6    1  0.2809573E-005  0.3815300E+03  0.7818608E-02  0.1165325E+00
          2   -1    0    0  502    0  0.00000000000E+00  0.00000000000E+00  0.99596624525E+03  0.99596624525E+03  0.00000000000E+00 0.  1.
          1   -1    0    0  501    0 -0.00000000000E+00 -0.00000000000E+00 -0.42483825206E+03  0.42483825206E+03  0.00000000000E+00 0. -1.
          2    1    1    2  501    0  0.22876097614E+02  0.35425678292E+01  0.16020910630E+02  0.28152001817E+02  0.00000000000E+00 0.  1.
          1    1    1    2  502    0 -0.34834629384E+03 -0.12834361998E+03 -0.28940081731E+03  0.47071228822E+03  0.00000000000E+00 0. -1.
         22    1    1    2    0    0  0.31868850814E+03  0.14362773170E+03  0.79026439952E+03  0.86412331972E+03  0.00000000000E+00 0.  1.
         22    1    1    2    0    0  0.67816880808E+01 -0.18826679550E+02  0.54243500347E+02  0.57816887550E+02  0.00000000000E+00 0. -1.
</event>
<event>
 6    1  0.2809573E-005  0.2892269E+03  0.7818608E-02  0.1163387E+00
          2   -1    0    0  502    0  0.00000000000E+00  0.00000000000E+00  0.91484804845E+03  0.91484804845E+03  0.00000000000E+00 0. -1.
          1   -1    0    0  501    0 -0.00000000000E+00 -0.00000000000E+00 -0.15568533099E+03  0.15568533099E+03  0.00000000000E+00 0. -1.
          2    1    1    2  501    0  0.69125580055E+02  0.13313454007E+03  0.18840615155E+03  0.24083195286E+03  0.00000000000E+00 0. -1.
          1    1    1    2  502    0 -0.75232594973E+02 -0.24213819093E+03  0.20446042946E+02  0.25437941647E+03  0.00000000000E+00 0. -1.
         22    1    1    2    0    0 -0.47621090216E+02  0.63099562926E+01  0.11036409946E+03  0.12036535312E+03  0.00000000000E+00 0. -1.
         22    1    1    2    0    0  0.53728105134E+02  0.10269369456E+03  0.43994642351E+03  0.45495665699E+03  0.00000000000E+00 0. -1.
</event>
<event>
 6    1  0.2809573E-005  0.7387090E+02  0.7818608E-02  0.1350726E+00
          2   -1    0    0  502    0  0.00000000000E+00  0.00000000000E+00  0.18651569280E+03  0.18651569280E+03  0.00000000000E+00 0. -1.
          1   -1    0    0  501    0 -0.00000000000E+00 -0.00000000000E+00 -0.14248700986E+04  0.14248700986E+04  0.00000000000E+00 0.  1.
          2    1    1    2  501    0 -0.16174489849E+02 -0.13401248075E+02  0.32152868677E+02  0.38405917981E+02  0.00000000000E+00 0. -1.
          1    1    1    2  502    0  0.17382725742E+02  0.16508508199E+02 -0.13960256301E+04  0.13962314456E+04  0.00000000000E+00 0.  1.
         22    1    1    2    0    0 -0.62569194708E+02 -0.69219059706E+01  0.62437714544E+02  0.88663888400E+02  0.00000000000E+00 0. -1.
         22    1    1    2    0    0  0.61360958815E+02  0.38146458463E+01  0.63080641082E+02  0.88084539330E+02  0.00000000000E+00 0. -1.
</event>
<event>
 6    1  0.2809573E-005  0.1822558E+03  0.7818608E-02  0.1168879E+00
          2   -1    0    0  502    0  0.00000000000E+00  0.00000000000E+00  0.46757764576E+03  0.46757764576E+03  0.00000000000E+00 0.  1.
          1   -1    0    0  501    0 -0.00000000000E+00 -0.00000000000E+00 -0.81051560205E+03  0.81051560205E+03  0.00000000000E+00 0.  1.
          2    1    1    2  501    0 -0.60635407534E+02  0.12845866280E+03  0.29053033856E+03  0.32339783289E+03  0.00000000000E+00 0.  1.
          1    1    1    2  502    0 -0.35347317386E+02  0.22058406204E+02 -0.72116563955E+03  0.72236824806E+03  0.00000000000E+00 0.  1.
         22    1    1    2    0    0 -0.12780796854E+02  0.13202294868E+02  0.46908087709E+01  0.18964520687E+02  0.00000000000E+00 0.  1.
         22    1    1    2    0    0  0.10876352177E+03 -0.16371936387E+03  0.83006535928E+02  0.21336264617E+03  0.00000000000E+00 0.  1.
</event>
<event>
 6    1  0.2809573E-005  0.1653655E+03  0.7818608E-02  0.1242942E+00
          2   -1    0    0  502    0  0.00000000000E+00  0.00000000000E+00  0.26829299537E+03  0.26829299537E+03  0.00000000000E+00 0. -1.
          1   -1    0    0  501    0 -0.00000000000E+00 -0.00000000000E+00 -0.14031771314E+03  0.14031771314E+03  0.00000000000E+00 0.  1.
          2    1    1    2  501    0 -0.82800228021E+02  0.36026803425E+02  0.29037601242E+02  0.94852467607E+02  0.00000000000E+00 0. -1.
          1    1    1    2  502    0  0.73346441222E+02 -0.13351917320E+02 -0.70708851262E+02  0.10275074590E+03  0.00000000000E+00 0.  1.
         22    1    1    2    0    0 -0.45856624291E+02  0.36145331674E+01  0.13038822055E+03  0.13826417793E+03  0.00000000000E+00 0. -1.
         22    1    1    2    0    0  0.55310411090E+02 -0.26289419273E+02  0.39258311704E+02  0.72743317071E+02  0.00000000000E+00 0. -1.
</event>
<event>
 6    1  0.2809573E-005  0.1046679E+03  0.7818608E-02  0.1399855E+00
          2   -1    0    0  502    0  0.00000000000E+00  0.00000000000E+00  0.22030064804E+02  0.22030064804E+02  0.00000000000E+00 0. -1.
          1   -1    0    0  501    0 -0.00000000000E+00 -0.00000000000E+00 -0.66290533222E+03  0.66290533222E+03  0.00000000000E+00 0. -1.
          2    1    1    2  501    0 -0.19458758882E+02  0.10593683858E+02 -0.16317309400E+03  0.16467036175E+03  0.00000000000E+00 0. -1.
          1    1    1    2  502    0 -0.35943730528E+02  0.45150695697E+02 -0.16499590573E+03  0.17479755717E+03  0.00000000000E+00 0. -1.
         22    1    1    2    0    0  0.48477114877E+02 -0.64220013872E+02 -0.32150714078E+03  0.33142281518E+03  0.00000000000E+00 0. -1.
         22    1    1    2    0    0  0.69253745326E+01  0.84756343163E+01  0.88008730884E+01  0.14044662922E+02  0.00000000000E+00 0. -1.
</event>
<event>
 6    1  0.2809573E-005  0.8287765E+02  0.7818608E-02  0.1331671E+00
          2   -1    0    0  502    0  0.00000000000E+00  0.00000000000E+00  0.53287651080E+03  0.53287651080E+03  0.00000000000E+00 0.  1.
          1   -1    0    0  501    0 -0.00000000000E+00 -0.00000000000E+00 -0.83159310594E+03  0.83159310594E+03  0.00000000000E+00 0.  1.
          2    1    1    2  501    0 -0.37332883293E+01  0.38069750642E+02  0.21246762175E+03  0.21588361135E+03  0.00000000000E+00 0.  1.
          1    1    1    2  502    0 -0.20948468354E+02  0.17459118341E+01 -0.81516557201E+03  0.81543656793E+03  0.00000000000E+00 0.  1.
         22    1    1    2    0    0  0.40453788023E+02  0.22526340654E+02  0.23221857294E+03  0.23678980259E+03  0.00000000000E+00 0.  1.
         22    1    1    2    0    0 -0.15772031340E+02 -0.62342003130E+02  0.71762782179E+02  0.96359634873E+02  0.00000000000E+00 0. -1.
</event>
<event>
 6    1  0.2809573E-005  0.6566761E+02  0.7818608E-02  0.1382804E+00
          2   -1    0    0  502    0  0.00000000000E+00  0.00000000000E+00  0.27789157249E+03  0.27789157249E+03  0.00000000000E+00 0. -1.
          1   -1    0    0  501    0 -0.00000000000E+00 -0.00000000000E+00 -0.48273720634E+02  0.48273720634E+02  0.00000000000E+00 0. -1.
          2    1    1    2  501    0 -0.40327695851E+02  0.20507422789E+01 -0.81883667596E+01  0.41201674077E+02  0.00000000000E+00 0. -1.
          1    1    1    2  502    0  0.17971821095E+02  0.19756456972E+02  0.19946531940E+02  0.33334187886E+02  0.00000000000E+00 0. -1.
         22    1    1    2    0    0  0.31144313064E+02 -0.59837417810E+02  0.19513004596E+03  0.20646118193E+03  0.00000000000E+00 0. -1.
         22    1    1    2    0    0 -0.87884383083E+01  0.38030218559E+02  0.22729640710E+02  0.45168249228E+02  0.00000000000E+00 0. -1.
</event>
<event>
 6    1  0.2809573E-005  0.2044551E+03  0.7818608E-02  0.1163367E+00
          2   -1    0    0  502    0  0.00000000000E+00  0.00000000000E+00  0.36466458706E+03  0.36466458706E+03  0.00000000000E+00 0. -1.
          1   -1    0    0  501    0 -0.00000000000E+00 -0.00000000000E+00 -0.45976052920E+03  0.45976052920E+03  0.00000000000E+00 0. -1.
          2    1    1    2  501    0 -0.12448610128E+03 -0.11844653954E+03 -0.21902667080E+03  0.27838652026E+03  0.00000000000E+00 0. -1.
          1    1    1    2  502    0  0.25900401728E+03  0.83094295938E+02 -0.65675201563E+02  0.27982311393E+03  0.00000000000E+00 0. -1.
         22    1    1    2    0    0 -0.80526291995E+01 -0.14816991289E+02 -0.13602999411E+02  0.21666325505E+02  0.00000000000E+00 0. -1.
         22    1    1    2    0    0 -0.12646528681E+03  0.50169234892E+02  0.20320892963E+03  0.24454915657E+03  0.00000000000E+00 0. -1.
</event>
<event>
 6    1  0.2809573E-005  0.1120578E+03  0.7818608E-02  0.1372841E+00
          2   -1    0    0  502    0  0.00000000000E+00  0.00000000000E+00  0.75425886962E+02  0.75425886962E+02  0.00000000000E+00 0.  1.
          1   -1    0    0  501    0 -0.00000000000E+00 -0.00000000000E+00 -0.36059590190E+03  0.36059590190E+03  0.00000000000E+00 0.  1.
          2    1    1    2  501    0  0.88842798612E+02  0.16416521779E+02 -0.17476026563E+03  0.19673254813E+03  0.00000000000E+00 0.  1.
          1    1    1    2  502    0 -0.68484084274E+02  0.11988083746E+02 -0.86499983714E+02  0.11097761546E+03  0.00000000000E+00 0.  1.
         22    1    1    2    0    0 -0.12807428644E+02 -0.51426172527E+01  0.49263055556E+02  0.51159802417E+02  0.00000000000E+00 0.  1.
         22    1    1    2    0    0 -0.75512856942E+01 -0.23261988272E+02 -0.73172821154E+02  0.77151822854E+02  0.00000000000E+00 0.  1.
</event>
<event>
 6    1  0.2809573E-005  0.5688921E+02  0.7818608E-02  0.1423525E+00
          2   -1    0    0  502    0  0.00000000000E+00  0.00000000000E+00  0.14304776042E+03  0.14304776042E+03  0.00000000000E+00 0.  1.
          1   -1    0    0  501    0 -0.00000000000E+00 -0.00000000000E+00 -0.78508787382E+02  0.78508787382E+02  0.00000000000E+00 0.  1.
          2    1    1    2  501    0  0.86235133693E+01  0.31165573313E+02 -0.17607442749E+02  0.36819559787E+02  0.00000000000E+00 0.  1.
          1    1    1    2  502    0 -0.27403342009E+02 -0.22347120513E+02  0.11440655270E+02  0.37164842815E+02  0.00000000000E+00 0.  1.
         22    1    1    2    0    0  0.43942769972E+02  0.27626325164E+02 -0.12432443748E+02  0.53373650169E+02  0.00000000000E+00 0.  1.
         22    1    1    2    0    0 -0.25162941332E+02 -0.36444777963E+02  0.83138204265E+02  0.94198495029E+02  0.00000000000E+00 0.  1.
</event>
<event>
 6    1  0.2809573E-005  0.1016555E+03  0.7818608E-02  0.1277537E+00
          2   -1    0    0  502    0  0.00000000000E+00  0.00000000000E+00  0.34098897283E+02  0.34098897283E+02  0.00000000000E+00 0. -1.
          1   -1    0    0  501    0 -0.00000000000E+00 -0.00000000000E+00 -0.12853776821E+04  0.12853776821E+04  0.00000000000E+00 0. -1.
          2    1    1    2  501    0  0.75619056473E+02 -0.30790046853E+02 -0.41268682011E+02  0.91484276256E+02  0.00000000000E+00 0. -1.
          1    1    1    2  502    0 -0.51482428083E+00 -0.28510406934E+02 -0.52367402599E+03  0.52444980108E+03  0.00000000000E+00 0. -1.
         22    1    1    2    0    0  0.14387043315E+02 -0.10412283235E+02 -0.16741088208E+02  0.24406283861E+02  0.00000000000E+00 0. -1.
         22    1    1    2    0    0 -0.89491275507E+02  0.69712737023E+02 -0.66959498863E+03  0.67913621821E+03  0.00000000000E+00 0.  1.
</event>
<event>
 6    1  0.2809573E-005  0.1018081E+03  0.7818608E-02  0.1281419E+00
          2   -1    0    0  502    0  0.00000000000E+00  0.00000000000E+00  0.11079977164E+03  0.11079977164E+03  0.00000000000E+00 0. -1.
          1   -1    0    0  501    0 -0.00000000000E+00 -0.00000000000E+00 -0.10911122764E+03  0.10911122764E+03  0.00000000000E+00 0.  1.
          2    1    1    2  501    0  0.26505572205E+02  0.38902660961E+02 -0.20100793975E+02  0.51185977632E+02  0.00000000000E+00 0. -1.
          1    1    1    2  502    0  0.39454095013E+01  0.20888719903E+02 -0.99270478136E+01  0.23461695455E+02  0.00000000000E+00 0.  1.
         22    1    1    2    0    0 -0.69459783309E+02 -0.72731191208E+02  0.20173242240E+02  0.10257410674E+03  0.00000000000E+00 0.  1.
         22    1    1    2    0    0  0.39008801603E+02  0.12939810344E+02  0.11543143541E+02  0.42689219448E+02  0.00000000000E+00 0. -1.
</event>
<event>
 6    1  0.2809573E-005  0.1078175E+03  0.7818608E-02  0.1282229E+00
          2   -1    0    0  502    0  0.00000000000E+00  0.00000000000E+00  0.86884631093E+03  0.86884631093E+03  0.00000000000E+00 0. -1.
          1   -1    0    0  501    0 -0.00000000000E+00 -0.00000000000E+00 -0.26422420257E+03  0.26422420257E+03  0.00000000000E+00 0. -1.
          2    1    1    2  501    0  0.25545221178E+02  0.12319639854E+02  0.41415194921E+02  0.50195121491E+02  0.00000000000E+00 0. -1.
          1    1    1    2  502    0  0.72944396784E+01  0.57621948909E+02 -0.25005348949E+03  0.25671043113E+03  0.00000000000E+00 0. -1.
         22    1    1    2    0    0 -0.34369293448E+02  0.29882428369E+02  0.24286516474E+03  0.24709855544E+03  0.00000000000E+00 0.  1.
         22    1    1    2    0    0  0.15296325907E+01 -0.99824017132E+02  0.57039523819E+03  0.57906640545E+03  0.00000000000E+00 0. -1.
</event>
<event>
 6    1  0.2809573E-005  0.5878382E+03  0.7818608E-02  0.1071550E+00
          2   -1    0    0  502    0  0.00000000000E+00  0.00000000000E+00  0.63643898454E+03  0.63643898454E+03  0.00000000000E+00 0. -1.
          1   -1    0    0  501    0 -0.00000000000E+00 -0.00000000000E+00 -0.83372283852E+03  0.83372283852E+03  0.00000000000E+00 0. -1.
          2    1    1    2  501    0 -0.25085031207E+03 -0.44811057981E+03 -0.31164142975E+03  0.60070737596E+03  0.00000000000E+00 0. -1.
          1    1    1    2  502    0  0.23889960582E+03  0.50086826536E+03 -0.14637956501E+03  0.57390680251E+03  0.00000000000E+00 0. -1.
         22    1    1    2    0    0 -0.39254908829E+02 -0.26108572372E+02  0.26044526125E+02  0.53860214997E+02  0.00000000000E+00 0. -1.
         22    1    1    2    0    0  0.51205615078E+02 -0.26649113180E+02  0.23469261466E+03  0.24168742959E+03  0.00000000000E+00 0. -1.
</event>
<event>
 6    1  0.2809573E-005  0.1137889E+03  0.7818608E-02  0.1302639E+00
          2   -1    0    0  502    0  0.00000000000E+00  0.00000000000E+00  0.54100307345E+03  0.54100307345E+03  0.00000000000E+00 0.  1.
          1   -1    0    0  501    0 -0.00000000000E+00 -0.00000000000E+00 -0.16421967621E+03  0.16421967621E+03  0.00000000000E+00 0.  1.
          2    1    1    2  501    0  0.24117806107E+02 -0.22541841297E+02  0.22605777688E+03  0.22845551354E+03  0.00000000000E+00 0.  1.
          1    1    1    2  502    0 -0.11312766361E+02  0.46300316951E+02 -0.14563140678E+03  0.15323251833E+03  0.00000000000E+00 0.  1.
         22    1    1    2    0    0 -0.48507795419E+02 -0.50664589411E+02  0.99963862413E+02  0.12211748698E+03  0.00000000000E+00 0.  1.
         22    1    1    2    0    0  0.35702755673E+02  0.26906113758E+02  0.19639316472E+03  0.20141723081E+03  0.00000000000E+00 0.  1.
</event>
<event>
 6    1  0.2809573E-005  0.3697415E+03  0.7818608E-02  0.1113669E+00
          2   -1    0    0  502    0  0.00000000000E+00  0.00000000000E+00  0.92586687633E+03  0.92586687633E+03  0.00000000000E+00 0.  1.
          1   -1    0    0  501    0 -0.00000000000E+00 -0.00000000000E+00 -0.17077097858E+03  0.17077097858E+03  0.00000000000E+00 0.  1.
          2    1    1    2  501    0 -0.14970597637E+03  0.15047414624E+03  0.11594630610E+03  0.24186337868E+03  0.00000000000E+00 0.  1.
          1    1    1    2  502    0  0.22409742631E+03 -0.19048512576E+03  0.12716812707E+03  0.32043091636E+03  0.00000000000E+00 0.  1.
         22    1    1    2    0    0 -0.68629394731E+02 -0.33957743989E+02  0.21476646552E+03  0.22800823869E+03  0.00000000000E+00 0.  1.
         22    1    1    2    0    0 -0.57620552084E+01  0.73968723504E+02  0.29721499906E+03  0.30633532118E+03  0.00000000000E+00 0. -1.
</event>
<event>
 6    1  0.2809573E-005  0.1428912E+03  0.7818608E-02  0.1220702E+00
          2   -1    0    0  502    0  0.00000000000E+00  0.00000000000E+00  0.72499215648E+03  0.72499215648E+03  0.00000000000E+00 0. -1.
          1   -1    0    0  501    0 -0.00000000000E+00 -0.00000000000E+00 -0.12104529597E+03  0.12104529597E+03  0.00000000000E+00 0. -1.
          2    1    1    2  501    0  0.10468506004E+03  0.82435125763E+01  0.21670865791E+03  0.24081021513E+03  0.00000000000E+00 0. -1.
          1    1    1    2  502    0 -0.27980850247E+02 -0.20538759773E+02 -0.94276466740E+02  0.10046303208E+03  0.00000000000E+00 0. -1.
         22    1    1    2    0    0 -0.94943931654E+02 -0.33459462411E+02  0.28830003601E+03  0.30536993392E+03  0.00000000000E+00 0. -1.
         22    1    1    2    0    0  0.18239721861E+02  0.45754709608E+02  0.19321463333E+03  0.19939427133E+03  0.00000000000E+00 0. -1.
</event>
<event>
 6    1  0.2809573E-005  0.8349945E+02  0.7818608E-02  0.1322435E+00
          2   -1    0    0  502    0  0.00000000000E+00  0.00000000000E+00  0.67318562450E+03  0.67318562450E+03  0.00000000000E+00 0.  1.
          1   -1    0    0  501    0 -0.00000000000E+00 -0.00000000000E+00 -0.36268138279E+02  0.36268138279E+02  0.00000000000E+00 0. -1.
          2    1    1    2  501    0 -0.19836519538E+02 -0.19910787778E+02  0.12624422037E+03  0.12933495334E+03  0.00000000000E+00 0.  1.
          1    1    1    2  502    0 -0.98719040254E+01 -0.20637431406E+02 -0.20871281830E+02  0.30967216041E+02  0.00000000000E+00 0. -1.
         22    1    1    2    0    0 -0.17367322954E+01 -0.45909764837E+02  0.17669315771E+03  0.18256832893E+03  0.00000000000E+00 0.  1.
         22    1    1    2    0    0  0.31445155859E+02  0.86457984021E+02  0.35485138997E+03  0.36658326447E+03  0.00000000000E+00 0.  1.
</event>
<event>
 6    1  0.2809573E-005  0.4875835E+02  0.7818608E-02  0.1487163E+00
          2   -1    0    0  502    0  0.00000000000E+00  0.00000000000E+00  0.10663634712E+03  0.10663634712E+03  0.00000000000E+00 0.  1.
          1   -1    0    0  501    0 -0.00000000000E+00 -0.00000000000E+00 -0.32648644937E+03  0.32648644937E+03  0.00000000000E+00 0.  1.
          2    1    1    2  501    0  0.51694771376E+02  0.12527339631E+02 -0.15642671778E+03  0.16522288480E+03  0.00000000000E+00 0.  1.
          1    1    1    2  502    0 -0.37882742338E+02 -0.26344322759E+01 -0.12090615224E+03  0.12672939695E+03  0.00000000000E+00 0.  1.
         22    1    1    2    0    0 -0.22855003170E+02 -0.18684170736E+02  0.96107397620E+02  0.10053895406E+03  0.00000000000E+00 0.  1.
         22    1    1    2    0    0  0.90429741324E+01  0.87912633815E+01 -0.38624629840E+02  0.40631560680E+02  0.00000000000E+00 0. -1.
</event>
<event>
 6    1  0.2809573E-005  0.1014231E+03  0.7818608E-02  0.1374233E+00
          2   -1    0    0  502    0  0.00000000000E+00  0.00000000000E+00  0.46572859684E+02  0.46572859684E+02  0.00000000000E+00 0.  1.
          1   -1    0    0  501    0 -0.00000000000E+00 -0.00000000000E+00 -0.61810770732E+03  0.61810770732E+03  0.00000000000E+00 0. -1.
          2    1    1    2  501    0  0.11582597908E+02 -0.83222385015E+02 -0.21019422516E+03  0.22636637169E+03  0.00000000000E+00 0.  1.
          1    1    1    2  502    0  0.42571244675E+01  0.77564029152E+02 -0.26852676073E+03  0.27953697958E+03  0.00000000000E+00 0. -1.
         22    1    1    2    0    0  0.16591702425E+01  0.18116172205E+02  0.29463615420E+02  0.34627347211E+02  0.00000000000E+00 0.  1.
         22    1    1    2    0    0 -0.17498892618E+02 -0.12457816341E+02 -0.12227747717E+03  0.12414986852E+03  0.00000000000E+00 0.  1.
</event>
<event>
 6    1  0.2809573E-005  0.5269969E+02  0.7818608E-02  0.1529814E+00
          2   -1    0    0  502    0  0.00000000000E+00  0.00000000000E+00  0.66212098823E+02  0.66212098823E+02  0.00000000000E+00 0. -1.
          1   -1    0    0  501    0 -0.00000000000E+00 -0.00000000000E+00 -0.64380368009E+03  0.64380368009E+03  0.00000000000E+00 0. -1.
          2    1    1    2  501    0  0.37166261773E+02  0.24632379653E+01 -0.15825908767E+03  0.16258332444E+03  0.00000000000E+00 0. -1.
          1    1    1    2  502    0 -0.36671080190E+02 -0.15083327483E+02 -0.41750958625E+03  0.41938828012E+03  0.00000000000E+00 0. -1.
         22    1    1    2    0    0  0.99409031723E+01  0.20533544649E+02 -0.62205835269E+02  0.66257180391E+02  0.00000000000E+00 0. -1.
         22    1    1    2    0    0 -0.10436084755E+02 -0.79134551320E+01  0.60382927929E+02  0.61786993959E+02  0.00000000000E+00 0. -1.
</event>
<event>
 6    1  0.2809573E-005  0.1071024E+03  0.7818608E-02  0.1290657E+00
          2   -1    0    0  502    0  0.00000000000E+00  0.00000000000E+00  0.23161623077E+03  0.23161623077E+03  0.00000000000E+00 0. -1.
          1   -1    0    0  501    0 -0.00000000000E+00 -0.00000000000E+00 -0.20354288167E+04  0.20354288167E+04  0.00000000000E+00 0. -1.
          2    1    1    2  501    0 -0.85160567033E+01  0.60351450909E+02 -0.77552498986E+01  0.61440741773E+02  0.00000000000E+00 0. -1.
          1    1    1    2  502    0  0.86483095343E+02 -0.62600064920E+02 -0.19725893579E+04  0.19754763650E+04  0.00000000000E+00 0. -1.
         22    1    1    2    0    0 -0.15412797852E+02  0.26090490832E+02 -0.10029276605E+02  0.31919499349E+02  0.00000000000E+00 0. -1.
         22    1    1    2    0    0 -0.62554240788E+02 -0.23841876821E+02  0.18656129846E+03  0.19820844133E+03  0.00000000000E+00 0. -1.
</event>
<event>
 6    1  0.2809573E-005  0.6857581E+03  0.7818608E-02  0.1092114E+00
          2   -1    0    0  502    0  0.00000000000E+00  0.00000000000E+00  0.25027757856E+04  0.25027757856E+04  0.00000000000E+00 0. -1.
          1   -1    0    0  501    0 -0.00000000000E+00 -0.00000000000E+00 -0.11361217569E+03  0.11361217569E+03  0.00000000000E+00 0. -1.
          2    1    1    2  501    0  0.41007485541E+03 -0.30441588058E+02  0.11409018310E+04  0.12127427861E+04  0.00000000000E+00 0. -1.
          1    1    1    2  502    0 -0.31077257614E+03 -0.17730085792E+03  0.90260829114E+03  0.97093610270E+03  0.00000000000E+00 0. -1.
         22    1    1    2    0    0 -0.11456691882E+03  0.19341608637E+03  0.25621874839E+03  0.34085687375E+03  0.00000000000E+00 0. -1.
         22    1    1    2    0    0  0.15264639552E+02  0.14326359614E+02  0.89434739366E+02  0.91852198700E+02  0.00000000000E+00 0. -1.
</event>
<event>
 6    1  0.2809573E-005  0.7845350E+02  0.7818608E-02  0.1341263E+00
          2   -1    0    0  502    0  0.00000000000E+00  0.00000000000E+00  0.32225075743E+03  0.32225075743E+03  0.00000000000E+00 0.  1.
          1   -1    0    0  501    0 -0.00000000000E+00 -0.00000000000E+00 -0.23305600110E+03  0.23305600110E+03  0.00000000000E+00 0. -1.
          2    1    1    2  501    0 -0.11596393456E+02  0.16647250836E+02  0.70028827373E+02  0.72908462916E+02  0.00000000000E+00 0.  1.
          1    1    1    2  502    0  0.28812919114E+02 -0.28862886623E+02 -0.21293587392E+03  0.21680621978E+03  0.00000000000E+00 0. -1.
         22    1    1    2    0    0  0.20780732975E+02  0.62417651443E+02  0.12845873831E+03  0.14432411276E+03  0.00000000000E+00 0.  1.
         22    1    1    2    0    0 -0.37997258633E+02 -0.50202015656E+02  0.10364306456E+03  0.12126796309E+03  0.00000000000E+00 0.  1.
</event>
<event>
 6    1  0.2809573E-005  0.5199403E+02  0.7818608E-02  0.1439708E+00
          2   -1    0    0  502    0  0.00000000000E+00  0.00000000000E+00  0.26769669978E+03  0.26769669978E+03  0.00000000000E+00 0.  1.
          1   -1    0    0  501    0 -0.00000000000E+00 -0.00000000000E+00 -0.13507125052E+03  0.13507125052E+03  0.00000000000E+00 0.  1.
          2    1    1    2  501    0 -0.62087525172E+01  0.29263929063E+02  0.18277708118E+03  0.18520903746E+03  0.00000000000E+00 0.  1.
          1    1    1    2  502    0 -0.22876997271E+02  0.69288188829E+01 -0.78184260965E+02  0.81756615621E+02  0.00000000000E+00 0.  1.
         22    1    1    2    0    0  0.23651256036E+02 -0.54911411372E+02 -0.35372774166E+02  0.69468540816E+02  0.00000000000E+00 0.  1.
         22    1    1    2    0    0  0.54344937521E+01  0.18718663426E+02  0.63405403209E+02  0.66333756406E+02  0.00000000000E+00 0.  1.
</event>
<event>
 6    1  0.2809573E-005  0.1011306E+03  0.7818608E-02  0.1316191E+00
          2   -1    0    0  502    0  0.00000000000E+00  0.00000000000E+00  0.27878514139E+03  0.27878514139E+03  0.00000000000E+00 0.  1.
          1   -1    0    0  501    0 -0.00000000000E+00 -0.00000000000E+00 -0.65172118273E+02  0.65172118273E+02  0.00000000000E+00 0.  1.
          2    1    1    2  501    0 -0.22611864217E+02  0.23683931852E+02 -0.30160235815E+02  0.44518140749E+02  0.00000000000E+00 0.  1.
          1    1    1    2  502    0  0.32445122104E+02 -0.21292863827E+02  0.24236173700E+02  0.45754389013E+02  0.00000000000E+00 0.  1.
         22    1    1    2    0    0  0.46621954162E+02  0.12099724164E+02  0.17155969461E+03  0.17819298177E+03  0.00000000000E+00 0.  1.
         22    1    1    2    0    0 -0.56455212049E+02 -0.14490792189E+02  0.47977390615E+02  0.75491748132E+02  0.00000000000E+00 0. -1.
</event>
<event>
 6    1  0.4061810E-005  0.9079562E+02  0.7818608E-02  0.1302960E+00
          2   -1    0    0  502    0  0.00000000000E+00  0.00000000000E+00  0.23722171305E+03  0.23722171305E+03  0.00000000000E+00 0. -1.
          1   -1    0    0  501    0 -0.00000000000E+00 -0.00000000000E+00 -0.65859545865E+03  0.65859545865E+03  0.00000000000E+00 0.  1.
          2    1    1    2  501    0 -0.43713369300E+02  0.10434291183E+03 -0.69805887397E+02  0.13293292978E+03  0.00000000000E+00 0. -1.
          1    1    1    2  502    0  0.11848590557E+02 -0.38979080307E+02 -0.53230605264E+03  0.53386280211E+03  0.00000000000E+00 0.  1.
         22    1    1    2    0    0  0.27056392389E+01  0.14054853995E+02 -0.11906670303E+02  0.18617953760E+02  0.00000000000E+00 0. -1.
         22    1    1    2    0    0  0.29159139503E+02 -0.79418685522E+02  0.19264486474E+03  0.21040348604E+03  0.00000000000E+00 0. -1.
</event>
<event>
 6    1  0.2809573E-005  0.3926422E+03  0.7818608E-02  0.1099728E+00
          2   -1    0    0  502    0  0.00000000000E+00  0.00000000000E+00  0.30791928809E+03  0.30791928809E+03  0.00000000000E+00 0. -1.
          1   -1    0    0  501    0 -0.00000000000E+00 -0.00000000000E+00 -0.16628942842E+04  0.16628942842E+04  0.00000000000E+00 0. -1.
          2    1    1    2  501    0  0.70082879067E+02 -0.11761108927E+03 -0.15266142181E+03  0.20505971805E+03  0.00000000000E+00 0. -1.
          1    1    1    2  502    0 -0.46736856254E+02 -0.10532746930E+02 -0.14536970326E+04  0.14544862787E+04  0.00000000000E+00 0. -1.
         22    1    1    2    0    0 -0.66560446400E+02  0.58294982656E+02  0.72356828235E+02  0.11429833166E+03  0.00000000000E+00 0. -1.
         22    1    1    2    0    0  0.43214423588E+02  0.69848853544E+02  0.17902663005E+03  0.19696924383E+03  0.00000000000E+00 0. -1.
</event>
<event>
 6    1  0.2809573E-005  0.7073609E+02  0.7818608E-02  0.1360213E+00
          2   -1    0    0  502    0  0.00000000000E+00  0.00000000000E+00  0.30035814973E+02  0.30035814973E+02  0.00000000000E+00 0. -1.
          1   -1    0    0  501    0 -0.00000000000E+00 -0.00000000000E+00 -0.56067142674E+03  0.56067142674E+03  0.00000000000E+00 0.  1.
          2    1    1    2  501    0  0.12109117888E+02 -0.16792817833E+02 -0.52340119276E+02  0.56286033371E+02  0.00000000000E+00 0. -1.
          1    1    1    2  502    0  0.67705280204E+01  0.24082935159E+02 -0.36663258747E+03  0.36748507726E+03  0.00000000000E+00 0.  1.
         22    1    1    2    0    0  0.39745840606E+02 -0.37178419722E+02 -0.71451068799E+02  0.89817715240E+02  0.00000000000E+00 0. -1.
         22    1    1    2    0    0 -0.58625486515E+02  0.29888302396E+02 -0.40211836223E+02  0.77118415840E+02  0.00000000000E+00 0. -1.
</event>
<event>
 6    1  0.2809573E-005  0.9783091E+02  0.7818608E-02  0.1356462E+00
          2   -1    0    0  502    0  0.00000000000E+00  0.00000000000E+00  0.13661560016E+03  0.13661560016E+03  0.00000000000E+00 0.  1.
          1   -1    0    0  501    0 -0.00000000000E+00 -0.00000000000E+00 -0.11130755847E+03  0.11130755847E+03  0.00000000000E+00 0. -1.
          2    1    1    2  501    0  0.24315554695E+02  0.18444038572E+02  0.34353760117E+02  0.45952253407E+02  0.00000000000E+00 0.  1.
          1    1    1    2  502    0 -0.49002952087E+02 -0.34411240371E+02 -0.37649035848E+02  0.70730988099E+02  0.00000000000E+00 0. -1.
         22    1    1    2    0    0  0.79100707819E+01 -0.26087702021E+02  0.66707094014E+02  0.72062291167E+02  0.00000000000E+00 0.  1.
         22    1    1    2    0    0  0.16777326609E+02  0.42054903820E+02 -0.38103776589E+02  0.59177625956E+02  0.00000000000E+00 0. -1.
</event>
<event>
 6    1  0.2809573E-005  0.9344186E+02  0.7818608E-02  0.1321772E+00
          2   -1    0    0  502    0  0.00000000000E+00  0.00000000000E+00  0.30074794420E+03  0.30074794420E+03  0.00000000000E+00 0. -1.
          1   -1    0    0  501    0 -0.00000000000E+00 -0.00000000000E+00 -0.91377222301E+03  0.91377222301E+03  0.00000000000E+00 0.  1.
          2    1    1    2  501    0  0.57538702669E+02  0.68941429439E+02  0.10546310479E+03  0.13851386021E+03  0.00000000000E+00 0. -1.
          1    1    1    2  502    0 -0.57558700330E+02 -0.62144619614E+02 -0.87336359756E+03  0.87746164091E+03  0.00000000000E+00 0.  1.
         22    1    1    2    0    0  0.24569703734E+02  0.44773265355E+02  0.25418565781E+02  0.57047516322E+02  0.00000000000E+00 0. -1.
         22    1    1    2    0    0 -0.24549706074E+02 -0.51570075181E+02  0.12945764817E+03  0.14149714977E+03  0.00000000000E+00 0.  1.
</event>
<event>
 6    1  0.2809573E-005  0.1636646E+03  0.7818608E-02  0.1277680E+00
          2   -1    0    0  502    0  0.00000000000E+00  0.00000000000E+00  0.81678292489E+02  0.81678292489E+02  0.00000000000E+00 0. -1.
          1   -1    0    0  501    0 -0.00000000000E+00 -0.00000000000E+00 -0.46962351994E+03  0.46962351994E+03  0.00000000000E+00 0.  1.
          2    1    1    2  501    0 -0.47932098577E+02 -0.77489026221E+02 -0.17410506197E+02  0.92764006946E+02  0.00000000000E+00 0. -1.
          1    1    1    2  502    0  0.32885626200E+02  0.14552430537E+02 -0.29203455628E+03  0.29424041141E+03  0.00000000000E+00 0.  1.
         22    1    1    2    0    0  0.12101608816E+01  0.43354796262E+02 -0.11370902132E+03  0.12169981257E+03  0.00000000000E+00 0. -1.
         22    1    1    2    0    0  0.13836311495E+02  0.19581799423E+02  0.35208856352E+02  0.42597581504E+02  0.00000000000E+00 0. -1.
</event>
<event>
 6    1  0.2809573E-005  0.7231392E+02  0.7818608E-02  0.1356005E+00
          2   -1    0    0  502    0  0.00000000000E+00  0.00000000000E+00  0.15194358819E+03  0.15194358819E+03  0.00000000000E+00 0. -1.
          1   -1    0    0  501    0 -0.00000000000E+00 -0.00000000000E+00 -0.23666585989E+03  0.23666585989E+03  0.00000000000E+00 0. -1.
          2    1    1    2  501    0  0.21886310929E+02 -0.38469935255E+01  0.11403292315E+02  0.24976890137E+02  0.00000000000E+00 0. -1.
          1    1    1    2  502    0 -0.22460468955E+02  0.97411329335E+01 -0.19940036399E+03  0.20089765428E+03  0.00000000000E+00 0. -1.
         22    1    1    2    0    0 -0.52442673398E+02 -0.35155517921E+02  0.67391271280E+02  0.92345697670E+02  0.00000000000E+00 0. -1.
         22    1    1    2    0    0  0.53016831424E+02  0.29261378513E+02  0.35883528698E+02  0.70389205980E+02  0.00000000000E+00 0. -1.
</event>
<event>
 6    1  0.2809573E-005  0.7788333E+02  0.7818608E-02  0.1407725E+00
          2   -1    0    0  502    0  0.00000000000E+00  0.00000000000E+00  0.15473835557E+03  0.15473835557E+03  0.00000000000E+00 0. -1.
          1   -1    0    0  501    0 -0.00000000000E+00 -0.00000000000E+00 -0.11032982651E+03  0.11032982651E+03  0.00000000000E+00 0.  1.
          2    1    1    2  501    0  0.29945383159E+02 -0.20893646492E+02 -0.46325161999E+02  0.58985515769E+02  0.00000000000E+00 0. -1.
          1    1    1    2  502    0 -0.54885419852E+02  0.28515939100E+01  0.47032048166E+01  0.55160321207E+02  0.00000000000E+00 0.  1.
         22    1    1    2    0    0  0.43847376748E+02  0.41374787650E+01 -0.15518750394E+02  0.46696282422E+02  0.00000000000E+00 0. -1.
         22    1    1    2    0    0 -0.18907340055E+02  0.13904573817E+02  0.10154923664E+03  0.10422606269E+03  0.00000000000E+00 0. -1.
</event>
<event>
 6    1  0.2809573E-005  0.7951933E+02  0.7818608E-02  0.1340515E+00
          2   -1    0    0  502    0  0.00000000000E+00  0.00000000000E+00  0.26866899735E+03  0.26866899735E+03  0.00000000000E+00 0. -1.
          1   -1    0    0  501    0 -0.00000000000E+00 -0.00000000000E+00 -0.62437174370E+03  0.62437174370E+03  0.00000000000E+00 0. -1.
          2    1    1    2  501    0  0.81868888244E+01 -0.47100655837E+02  0.29010599206E+02  0.55920584717E+02  0.00000000000E+00 0. -1.
          1    1    1    2  502    0 -0.36010939299E+02  0.51904846320E+02 -0.59047838799E+03  0.59384815189E+03  0.00000000000E+00 0. -1.
         22    1    1    2    0    0  0.60812130698E+02  0.29277152695E+02  0.17279152089E+03  0.18550519293E+03  0.00000000000E+00 0. -1.
         22    1    1    2    0    0 -0.32988080223E+02 -0.34081343178E+02  0.32973521543E+02  0.57766811515E+02  0.00000000000E+00 0. -1.
</event>
<event>
 6    1  0.2809573E-005  0.5475505E+03  0.7818608E-02  0.1136294E+00
          2   -1    0    0  502    0  0.00000000000E+00  0.00000000000E+00  0.43851490386E+03  0.43851490386E+03  0.00000000000E+00 0. -1.
          1   -1    0    0  501    0 -0.00000000000E+00 -0.00000000000E+00 -0.13028813416E+04  0.13028813416E+04  0.00000000000E+00 0. -1.
          2    1    1    2  501    0 -0.24558643111E+03  0.22527921713E+02 -0.90867740422E+02  0.26282531966E+03  0.00000000000E+00 0. -1.
          1    1    1    2  502    0  0.76069849692E+02  0.20736433661E+02 -0.10922976441E+04  0.10951396098E+04  0.00000000000E+00 0. -1.
         22    1    1    2    0    0  0.17811643246E+03 -0.53614677498E+02  0.24078548751E+03  0.30426575251E+03  0.00000000000E+00 0. -1.
         22    1    1    2    0    0 -0.85998510359E+01  0.10350322125E+02  0.78013459292E+02  0.79165563452E+02  0.00000000000E+00 0. -1.
</event>
<event>
 6    1  0.2809573E-005  0.9880074E+02  0.7818608E-02  0.1304219E+00
          2   -1    0    0  502    0  0.00000000000E+00  0.00000000000E+00  0.32203528479E+02  0.32203528479E+02  0.00000000000E+00 0. -1.
          1   -1    0    0  501    0 -0.00000000000E+00 -0.00000000000E+00 -0.44402915893E+03  0.44402915893E+03  0.00000000000E+00 0. -1.
          2    1    1    2  501    0  0.16848397668E+02  0.32365061223E+02 -0.33729792542E+02  0.49689683002E+02  0.00000000000E+00 0. -1.
          1    1    1    2  502    0 -0.38749838180E+02  0.38932374510E+02 -0.11234502355E+03  0.12505472426E+03  0.00000000000E+00 0. -1.
         22    1    1    2    0    0  0.64172456902E+02 -0.33585552527E+02 -0.83001878653E+02  0.11016081619E+03  0.00000000000E+00 0.  1.
         22    1    1    2    0    0 -0.42271016390E+02 -0.37711883206E+02 -0.18274893571E+03  0.19132746395E+03  0.00000000000E+00 0. -1.
</event>
<event>
 6    1  0.2809573E-005  0.1361857E+03  0.7818608E-02  0.1235010E+00
          2   -1    0    0  502    0  0.00000000000E+00  0.00000000000E+00  0.96848335074E+02  0.96848335074E+02  0.00000000000E+00 0. -1.
          1   -1    0    0  501    0 -0.00000000000E+00 -0.00000000000E+00 -0.31877595632E+03  0.31877595632E+03  0.00000000000E+00 0. -1.
          2    1    1    2  501    0  0.60618892826E+02  0.47541938454E+02 -0.23033941799E+03  0.24288090407E+03  0.00000000000E+00 0. -1.
          1    1    1    2  502    0 -0.52318820142E+01 -0.30233886176E+02 -0.42022865462E+01  0.30969657326E+02  0.00000000000E+00 0. -1.
         22    1    1    2    0    0 -0.78112483094E+02 -0.52665281609E+02  0.25881491478E+02  0.97698738494E+02  0.00000000000E+00 0. -1.
         22    1    1    2    0    0  0.22725472283E+02  0.35357229331E+02 -0.13267408187E+02  0.44074991508E+02  0.00000000000E+00 0.  1.
</event>
<event>
 6    1  0.2809573E-005  0.9233208E+02  0.7818608E-02  0.1357792E+00
          2   -1    0    0  502    0  0.00000000000E+00  0.00000000000E+00  0.24875696754E+02  0.24875696754E+02  0.00000000000E+00 0. -1.
          1   -1    0    0  501    0 -0.00000000000E+00 -0.00000000000E+00 -0.10894096570E+04  0.10894096570E+04  0.00000000000E+00 0. -1.
          2    1    1    2  501    0  0.42561047376E+02 -0.34550606499E+02 -0.41890059870E+03  0.42247236449E+03  0.00000000000E+00 0. -1.
          1    1    1    2  502    0 -0.54515756481E+02  0.61689314299E+02 -0.44054325517E+03  0.44816949793E+03  0.00000000000E+00 0. -1.
         22    1    1    2    0    0 -0.28726200153E+02 -0.13421516697E+02  0.23628611151E+01  0.31794886355E+02  0.00000000000E+00 0. -1.
         22    1    1    2    0    0  0.40680909258E+02 -0.13717191103E+02 -0.20745296744E+03  0.21184860493E+03  0.00000000000E+00 0.  1.
</event>
<event>
 6    1  0.2809573E-005  0.6668295E+02  0.7818608E-02  0.1420181E+00
          2   -1    0    0  502    0  0.00000000000E+00  0.00000000000E+00  0.91561714933E+02  0.91561714933E+02  0.00000000000E+00 0.  1.
          1   -1    0    0  501    0 -0.00000000000E+00 -0.00000000000E+00 -0.24643335116E+03  0.24643335116E+03  0.00000000000E+00 0.  1.
          2    1    1    2  501    0  0.21065425944E+02 -0.76668330451E+00 -0.33491172033E+01  0.21343770978E+02  0.00000000000E+00 0.  1.
          1    1    1    2  502    0 -0.40524601331E+02 -0.30577502878E+02 -0.17710245791E+03  0.18423492501E+03  0.00000000000E+00 0.  1.
         22    1    1    2    0    0 -0.14523148446E+02 -0.27185472083E+02  0.51437978062E+02  0.59965300969E+02  0.00000000000E+00 0. -1.
         22    1    1    2    0    0  0.33982323832E+02  0.58529658265E+02 -0.25858039181E+02  0.72451069143E+02  0.00000000000E+00 0.  1.
</event>
<event>
 6    1  0.2809573E-005  0.1823921E+03  0.7818608E-02  0.1223680E+00
          2   -1    0    0  502    0  0.00000000000E+00  0.00000000000E+00  0.24670307006E+03  0.24670307006E+03  0.00000000000E+00 0. -1.
          1   -1    0    0  501    0 -0.00000000000E+00 -0.00000000000E+00 -0.17873568598E+03  0.17873568598E+03  0.00000000000E+00 0. -1.
          2    1    1    2  501    0 -0.74244133330E+02 -0.57896890038E+02 -0.10491373646E+03  0.14096500739E+03  0.00000000000E+00 0. -1.
          1    1    1    2  502    0  0.57256355123E+02  0.73840948910E+02  0.10723634623E+03  0.14223364542E+03  0.00000000000E+00 0. -1.
         22    1    1    2    0    0  0.18511324344E+02 -0.66839086088E+02  0.16107710001E+02  0.71201059540E+02  0.00000000000E+00 0. -1.
         22    1    1    2    0    0 -0.15235461375E+01  0.50895027217E+02  0.49537064313E+02  0.71039043694E+02  0.00000000000E+00 0. -1.
</event>
<event>
 6    1  0.2809573E-005  0.4520090E+02  0.7818608E-02  0.1474990E+00
          2   -1    0    0  502    0  0.00000000000E+00  0.00000000000E+00  0.57519267001E+02  0.57519267001E+02  0.00000000000E+00 0. -1.
          1   -1    0    0  501    0 -0.00000000000E+00 -0.00000000000E+00 -0.17087342865E+03  0.17087342865E+03  0.00000000000E+00 0. -1.
          2    1    1    2  501    0 -0.26241374508E+02  0.54245812826E+01  0.16400091899E+02  0.31416537563E+02  0.00000000000E+00 0. -1.
          1    1    1    2  502    0  0.95287964028E+01 -0.19732391617E+02 -0.14386475489E+02  0.26213277491E+02  0.00000000000E+00 0. -1.
         22    1    1    2    0    0  0.34872860111E+02  0.13397211793E+02 -0.13728955540E+03  0.14228149450E+03  0.00000000000E+00 0. -1.
         22    1    1    2    0    0 -0.18160282006E+02  0.91059854131E+00  0.21921777339E+02  0.28481386096E+02  0.00000000000E+00 0.  1.
</event>
<event>
 6    1  0.3940691E-005  0.9183521E+02  0.7818608E-02  0.1369823E+00
          2   -1    0    0  502    0  0.00000000000E+00  0.00000000000E+00  0.10490516358E+03  0.10490516358E+03  0.00000000000E+00 0.  1.
          1   -1    0    0  501    0 -0.00000000000E+00 -0.00000000000E+00 -0.10012648496E+04  0.10012648496E+04  0.00000000000E+00 0.  1.
          2    1    1    2  501    0  0.93945086059E+01  0.76045010261E+02 -0.62523534137E+03  0.62991295626E+03  0.00000000000E+00 0.  1.
          1    1    1    2  502    0 -0.28742069575E+02 -0.77375078730E+02 -0.32577041031E+03  0.33606453191E+03  0.00000000000E+00 0.  1.
         22    1    1    2    0    0 -0.47402313733E+01  0.12025532915E+02 -0.39952338665E+02  0.41991339585E+02  0.00000000000E+00 0. -1.
         22    1    1    2    0    0  0.24087792342E+02 -0.10695464447E+02  0.94598404367E+02  0.98201185372E+02  0.00000000000E+00 0.  1.
</event>
<event>
 6    1  0.2809573E-005  0.1793510E+03  0.7818608E-02  0.1168973E+00
          2   -1    0    0  502    0  0.00000000000E+00  0.00000000000E+00  0.61851770004E+03  0.61851770004E+03  0.00000000000E+00 0.  1.
          1   -1    0    0  501    0 -0.00000000000E+00 -0.00000000000E+00 -0.84523876593E+02  0.84523876593E+02  0.00000000000E+00 0.  1.
          2    1    1    2  501    0  0.43657439772E+02 -0.17919296553E+03  0.99208671297E+02  0.20942409461E+03  0.00000000000E+00 0.  1.
          1    1    1    2  502    0 -0.25100337759E+02  0.33119084203E+02  0.83867507560E+02  0.93598394850E+02  0.00000000000E+00 0.  1.
         22    1    1    2    0    0 -0.69259982019E+00 -0.21026118502E+02  0.20779278550E+02  0.29569507450E+02  0.00000000000E+00 0. -1.
         22    1    1    2    0    0 -0.17864502193E+02  0.16709999983E+03  0.33013836604E+03  0.37044957972E+03  0.00000000000E+00 0.  1.
</event>
<event>
 6    1  0.2809573E-005  0.7166295E+02  0.7818608E-02  0.1382441E+00
          2   -1    0    0  502    0  0.00000000000E+00  0.00000000000E+00  0.17082829667E+03  0.17082829667E+03  0.00000000000E+00 0.  1.
          1   -1    0    0  501    0 -0.00000000000E+00 -0.00000000000E+00 -0.31276762530E+03  0.31276762530E+03  0.00000000000E+00 0.  1.
          2    1    1    2  501    0 -0.34357179078E+02 -0.21912493651E+02 -0.10484046328E+03  0.11248153570E+03  0.00000000000E+00 0.  1.
          1    1    1    2  502    0  0.78752836001E+01  0.24516683062E+02 -0.17977950751E+03  0.18161431431E+03  0.00000000000E+00 0.  1.
         22    1    1    2    0    0 -0.10342226741E+02 -0.27765064777E+02 -0.93449965919E+01  0.31067498086E+02  0.00000000000E+00 0.  1.
         22    1    1    2    0    0  0.36824122219E+02  0.25160875367E+02  0.15202563875E+03  0.15843257388E+03  0.00000000000E+00 0.  1.
</event>
<event>
 6    1  0.2809573E-005  0.2353933E+03  0.7818608E-02  0.1152471E+00
          2   -1    0    0  502    0  0.00000000000E+00  0.00000000000E+00  0.68750612853E+03  0.68750612853E+03  0.00000000000E+00 0. -1.
          1   -1    0    0  501    0 -0.00000000000E+00 -0.00000000000E+00 -0.85935007872E+03  0.85935007872E+03  0.00000000000E+00 0.  1.
          2    1    1    2  501    0  0.13603327903E+03 -0.69168423545E+02  0.19627622206E+03  0.24862356921E+03  0.00000000000E+00 0. -1.
          1    1    1    2  502    0 -0.43634699413E+02  0.13459561858E+03 -0.81159415283E+03  0.82383556396E+03  0.00000000000E+00 0.  1.
         22    1    1    2    0    0 -0.65449986364E+02 -0.94553182020E+02  0.22865025070E+03  0.25593933283E+03  0.00000000000E+00 0. -1.
         22    1    1    2    0    0 -0.26948593254E+02  0.29125986989E+02  0.21482372988E+03  0.21845774126E+03  0.00000000000E+00 0. -1.
</event>
<event>
 6    1  0.2809573E-005  0.9802564E+02  0.7818608E-02  0.1334509E+00
          2   -1    0    0  502    0  0.00000000000E+00  0.00000000000E+00  0.74635462990E+02  0.74635462990E+02  0.00000000000E+00 0.  1.
          1   -1    0    0  501    0 -0.00000000000E+00 -0.00000000000E+00 -0.62156304816E+03  0.62156304816E+03  0.00000000000E+00 0.  1.
          2    1    1    2  501    0  0.43994973691E+02  0.21042149750E+02 -0.33173468352E+03  0.33530020881E+03  0.00000000000E+00 0.  1.
          1    1    1    2  502    0 -0.10291659299E+02 -0.63385240938E+02 -0.21526977957E+03  0.22464346199E+03  0.00000000000E+00 0.  1.
         22    1    1    2    0    0 -0.38837048583E+02  0.72850434497E+01  0.56909103928E+02  0.69282279918E+02  0.00000000000E+00 0.  1.
         22    1    1    2    0    0  0.51337341917E+01  0.35058047738E+02 -0.56832226010E+02  0.66972560435E+02  0.00000000000E+00 0.  1.
</event>
<event>
 6    1  0.2809573E-005  0.3095935E+03  0.7818608E-02  0.1164509E+00
          2   -1    0    0  502    0  0.00000000000E+00  0.00000000000E+00  0.27479712212E+03  0.27479712212E+03  0.00000000000E+00 0. -1.
          1   -1    0    0  501    0 -0.00000000000E+00 -0.00000000000E+00 -0.20308706538E+03  0.20308706538E+03  0.00000000000E+00 0. -1.
          2    1    1    2  501    0 -0.24932272191E+02  0.20357633249E+02 -0.92892077814E+02  0.98310678712E+02  0.00000000000E+00 0. -1.
          1    1    1    2  502    0 -0.22588787282E+02 -0.17719873809E+02 -0.88780967847E+02  0.93307596103E+02  0.00000000000E+00 0. -1.
         22    1    1    2    0    0 -0.24620796915E+02 -0.25585176020E+02  0.19657241402E+02  0.40585613365E+02  0.00000000000E+00 0.  1.
         22    1    1    2    0    0  0.72141856388E+02  0.22947416580E+02  0.23372586100E+03  0.24568029932E+03  0.00000000000E+00 0. -1.
</event>
<event>
 6    1  0.2809573E-005  0.5904743E+02  0.7818608E-02  0.1456769E+00
          2   -1    0    0  502    0  0.00000000000E+00  0.00000000000E+00  0.47154841924E+02  0.47154841924E+02  0.00000000000E+00 0. -1.
          1   -1    0    0  501    0 -0.00000000000E+00 -0.00000000000E+00 -0.61884026153E+03  0.61884026153E+03  0.00000000000E+00 0. -1.
          2    1    1    2  501    0  0.14080367473E+02  0.54207156993E+02 -0.25388755171E+03  0.25999146434E+03  0.00000000000E+00 0. -1.
          1    1    1    2  502    0 -0.64686661042E+01 -0.48056519854E+02 -0.26275385541E+03  0.26719068336E+03  0.00000000000E+00 0. -1.
         22    1    1    2    0    0 -0.28117108759E+01  0.19056442145E+02 -0.91903924520E+02  0.93900932090E+02  0.00000000000E+00 0. -1.
         22    1    1    2    0    0 -0.47999904925E+01 -0.25207079285E+02  0.36859912030E+02  0.44912023665E+02  0.00000000000E+00 0. -1.
</event>
<event>
 6    1  0.2809573E-005  0.1514491E+03  0.7818608E-02  0.1257392E+00
          2   -1    0    0  502    0  0.00000000000E+00  0.00000000000E+00  0.26638184141E+03  0.26638184141E+03  0.00000000000E+00 0. -1.
          1   -1    0    0  501    0 -0.00000000000E+00 -0.00000000000E+00 -0.93735749380E+03  0.93735749380E+03  0.00000000000E+00 0.  1.
          2    1    1    2  501    0  0.82684022829E+02 -0.41523815824E+02 -0.27315950719E+02  0.96472981065E+02  0.00000000000E+00 0. -1.
          1    1    1    2  502    0 -0.15086964408E+03  0.12252878387E+02 -0.84639050974E+03  0.85981897951E+03  0.00000000000E+00 0.  1.
         22    1    1    2    0    0  0.27315958822E+02  0.35595199798E+02  0.20111549901E+03  0.20605975783E+03  0.00000000000E+00 0. -1.
         22    1    1    2    0    0  0.40869662430E+02 -0.63242623609E+01  0.16153090562E+01  0.41387616807E+02  0.00000000000E+00 0. -1.
</event>
<event>
 6    1  0.2809573E-005  0.1892378E+03  0.7818608E-02  0.1213652E+00
          2   -1    0    0  502    0  0.00000000000E+00  0.00000000000E+00  0.75665709869E+03  0.75665709869E+03  0.00000000000E+00 0.  1.
          1   -1    0    0  501    0 -0.00000000000E+00 -0.00000000000E+00 -0.55130526012E+03  0.55130526012E+03  0.00000000000E+00 0. -1.
          2    1    1    2  501    0  0.28203048038E+02 -0.59771252098E+02  0.82150903310E+02  0.10543616747E+03  0.00000000000E+00 0.  1.
          1    1    1    2  502    0 -0.10532924779E+03  0.92393546989E+02 -0.52134951137E+03  0.53984824810E+03  0.00000000000E+00 0. -1.
         22    1    1    2    0    0 -0.15971553296E+02 -0.53987379299E+02  0.29428663233E+03  0.29962367998E+03  0.00000000000E+00 0.  1.
         22    1    1    2    0    0  0.93097753045E+02  0.21365084408E+02  0.35026381431E+03  0.36305426326E+03  0.00000000000E+00 0. -1.
</event>
<event>
 6    1  0.2809573E-005  0.2037230E+03  0.7818608E-02  0.1227757E+00
          2   -1    0    0  502    0  0.00000000000E+00  0.00000000000E+00  0.21451539312E+02  0.21451539312E+02  0.00000000000E+00 0.  1.
          1   -1    0    0  501    0 -0.00000000000E+00 -0.00000000000E+00 -0.31418906150E+04  0.31418906150E+04  0.00000000000E+00 0.  1.
          2    1    1    2  501    0  0.12352885990E+03 -0.16805586834E+01 -0.15008242917E+04  0.15059003148E+04  0.00000000000E+00 0.  1.
          1    1    1    2  502    0 -0.13580085453E+03  0.36023221827E+02 -0.13562371761E+04  0.13634950760E+04  0.00000000000E+00 0.  1.
         22    1    1    2    0    0 -0.28219794125E+02  0.18180035314E+02 -0.14821700958E+02  0.36695412298E+02  0.00000000000E+00 0.  1.
         22    1    1    2    0    0  0.40491788757E+02 -0.52522698457E+02 -0.24855590694E+03  0.25725135119E+03  0.00000000000E+00 0. -1.
</event>
<event>
 6    1  0.2809573E-005  0.1115900E+03  0.7818608E-02  0.1314363E+00
          2   -1    0    0  502    0  0.00000000000E+00  0.00000000000E+00  0.27799202426E+03  0.27799202426E+03  0.00000000000E+00 0.  1.
          1   -1    0    0  501    0 -0.00000000000E+00 -0.00000000000E+00 -0.45816271251E+03  0.45816271251E+03  0.00000000000E+00 0. -1.
          2    1    1    2  501    0 -0.34559739883E+02  0.97649788667E+01  0.39753739751E+02  0.53573223323E+02  0.00000000000E+00 0.  1.
          1    1    1    2  502    0  0.10206714142E+03 -0.26420568750E+02 -0.42165556341E+03  0.43463681616E+03  0.00000000000E+00 0. -1.
         22    1    1    2    0    0 -0.29479516705E+02  0.24445803448E+02  0.20541334828E+03  0.20895282449E+03  0.00000000000E+00 0.  1.
         22    1    1    2    0    0 -0.38027884835E+02 -0.77902135646E+01 -0.36822128800E+01  0.38991872795E+02  0.00000000000E+00 0. -1.
</event>
<event>
 6    1  0.2809573E-005  0.8323810E+02  0.7818608E-02  0.1423400E+00
          2   -1    0    0  502    0  0.00000000000E+00  0.00000000000E+00  0.94011072969E+02  0.94011072969E+02  0.00000000000E+00 0.  1.
          1   -1    0    0  501    0 -0.00000000000E+00 -0.00000000000E+00 -0.83415371636E+03  0.83415371636E+03  0.00000000000E+00 0.  1.
          2    1    1    2  501    0  0.37624326221E+02 -0.30787759482E+02 -0.95139943221E+02  0.10684140047E+03  0.00000000000E+00 0.  1.
          1    1    1    2  502    0 -0.62713540824E+02  0.31038736581E+02 -0.68186294643E+03  0.68544399413E+03  0.00000000000E+00 0.  1.
         22    1    1    2    0    0  0.32137368475E+02  0.13084051084E+02 -0.42632434190E+02  0.54968420845E+02  0.00000000000E+00 0.  1.
         22    1    1    2    0    0 -0.70481538715E+01 -0.13335028183E+02  0.79492680453E+02  0.80910973886E+02  0.00000000000E+00 0.  1.
</event>
<event>
 6    1  0.2809573E-005  0.2246289E+03  0.7818608E-02  0.1140561E+00
          2   -1    0    0  502    0  0.00000000000E+00  0.00000000000E+00  0.42025760233E+03  0.42025760233E+03  0.00000000000E+00 0. -1.
          1   -1    0    0  501    0 -0.00000000000E+00 -0.00000000000E+00 -0.54169334924E+03  0.54169334924E+03  0.00000000000E+00 0.  1.
          2    1    1    2  501    0  0.14158644755E+03 -0.72265676507E+02  0.45998367873E+02  0.16548383600E+03  0.00000000000E+00 0. -1.
          1    1    1    2  502    0  0.30758308173E+02  0.91844512752E+01 -0.44186310283E+03  0.44302757173E+03  0.00000000000E+00 0.  1.
         22    1    1    2    0    0  0.11093863819E+02  0.32970156828E+02  0.62549725989E+02  0.71572154341E+02  0.00000000000E+00 0.  1.
         22    1    1    2    0    0 -0.18343861954E+03  0.30111068404E+02  0.21187926205E+03  0.28186738950E+03  0.00000000000E+00 0. -1.
</event>
<event>
 6    1  0.2809573E-005  0.1172650E+03  0.7818608E-02  0.1273754E+00
          2   -1    0    0  502    0  0.00000000000E+00  0.00000000000E+00  0.35801892008E+03  0.35801892008E+03  0.00000000000E+00 0.  1.
          1   -1    0    0  501    0 -0.00000000000E+00 -0.00000000000E+00 -0.11042772086E+03  0.11042772086E+03  0.00000000000E+00 0.  1.
          2    1    1    2  501    0  0.68814582810E+01 -0.72406246315E+02  0.43765303831E+02  0.84884750061E+02  0.00000000000E+00 0.  1.
          1    1    1    2  502    0 -0.91257997840E+02  0.55554513762E+02 -0.25598478782E+02  0.10986176899E+03  0.00000000000E+00 0.  1.
         22    1    1    2    0    0  0.40243002870E+02  0.57615794213E+02  0.18804859700E+03  0.20075197099E+03  0.00000000000E+00 0.  1.
         22    1    1    2    0    0  0.44133536690E+02 -0.40764061660E+02  0.41375777164E+02  0.72948150899E+02  0.00000000000E+00 0.  1.
</event>
<event>
 6    1  0.2809573E-005  0.9954195E+02  0.7818608E-02  0.1340383E+00
          2   -1    0    0  502    0  0.00000000000E+00  0.00000000000E+00  0.66596001675E+02  0.66596001675E+02  0.00000000000E+00 0.  1.
          1   -1    0    0  501    0 -0.00000000000E+00 -0.00000000000E+00 -0.27621934696E+04  0.27621934696E+04  0.00000000000E+00 0. -1.
          2    1    1    2  501    0 -0.39153558308E+02  0.11474566287E+02 -0.11940028586E+02  0.42511540578E+02  0.00000000000E+00 0.  1.
          1    1    1    2  502    0  0.55743791719E+02 -0.21900162286E+02 -0.26592838765E+04  0.26599582183E+04  0.00000000000E+00 0. -1.
         22    1    1    2    0    0 -0.33999783326E+02 -0.22019429019E+01 -0.68904143949E+02  0.76867515064E+02  0.00000000000E+00 0. -1.
         22    1    1    2    0    0  0.17409549915E+02  0.12627538901E+02  0.44530581097E+02  0.49452197320E+02  0.00000000000E+00 0.  1.
</event>
<event>
 6    1  0.2809573E-005  0.1086247E+03  0.7818608E-02  0.1359332E+00
          2   -1    0    0  502    0  0.00000000000E+00  0.00000000000E+00  0.63457810976E+02  0.63457810976E+02  0.00000000000E+00 0.  1.
          1   -1    0    0  501    0 -0.00000000000E+00 -0.00000000000E+00 -0.19010459389E+04  0.19010459389E+04  0.00000000000E+00 0. -1.
          2    1    1    2  501    0  0.76652847600E+02  0.10408735221E+02 -0.18672230287E+03  0.20211189773E+03  0.00000000000E+00 0.  1.
          1    1    1    2  502    0 -0.95526188115E+02 -0.43972317899E+02 -0.16275944545E+04  0.16309882053E+04  0.00000000000E+00 0. -1.
         22    1    1    2    0    0 -0.12422156968E+02  0.14342695374E+02  0.47786509286E+02  0.51415691807E+02  0.00000000000E+00 0.  1.
         22    1    1    2    0    0  0.31295497483E+02  0.19220887304E+02 -0.71057879823E+02  0.79987955071E+02  0.00000000000E+00 0. -1.
</event>
<event>
 6    1  0.2809573E-005  0.3825006E+03  0.7818608E-02  0.1109573E+00
          2   -1    0    0  502    0  0.00000000000E+00  0.00000000000E+00  0.30728371236E+03  0.30728371236E+03  0.00000000000E+00 0. -1.
          1   -1    0    0  501    0 -0.00000000000E+00 -0.00000000000E+00 -0.40411025749E+03  0.40411025749E+03  0.00000000000E+00 0. -1.
          2    1    1    2  501    0 -0.97441282974E+02  0.27401080659E+02  0.19968646469E+03  0.22387565082E+03  0.00000000000E+00 0. -1.
          1    1    1    2  502    0 -0.85362120118E+02 -0.94073292319E+02 -0.19469014269E+03  0.23246661597E+03  0.00000000000E+00 0. -1.
         22    1    1    2    0    0  0.15672089023E+03 -0.55027241405E+01 -0.62417002803E+02  0.16878269949E+03  0.00000000000E+00 0. -1.
         22    1    1    2    0    0  0.26082512864E+02  0.72174935800E+02 -0.39405864327E+02  0.86269003578E+02  0.00000000000E+00 0. -1.
</event>
<event>
 6    1  0.2809573E-005  0.1466840E+03  0.7818608E-02  0.1278757E+00
          2   -1    0    0  502    0  0.00000000000E+00  0.00000000000E+00  0.39119572357E+03  0.39119572357E+03  0.00000000000E+00 0. -1.
          1   -1    0    0  501    0 -0.00000000000E+00 -0.00000000000E+00 -0.89833190576E+02  0.89833190576E+02  0.00000000000E+00 0. -1.
          2    1    1    2  501    0  0.83442423522E+02  0.46243487521E+02  0.38692693209E+02  0.10294766966E+03  0.00000000000E+00 0. -1.
          1    1    1    2  502    0 -0.89480235414E+02 -0.10167953763E+03  0.13637805005E+03  0.19220929592E+03  0.00000000000E+00 0. -1.
         22    1    1    2    0    0 -0.28195190264E+02  0.16418697514E+02  0.12980910510E+03  0.13384672633E+03  0.00000000000E+00 0. -1.
         22    1    1    2    0    0  0.34233002156E+02  0.39017352597E+02 -0.35173153742E+01  0.52025222226E+02  0.00000000000E+00 0. -1.
</event>
<event>
 6    1  0.2809573E-005  0.4473258E+02  0.7818608E-02  0.1504107E+00
          2   -1    0    0  502    0  0.00000000000E+00  0.00000000000E+00  0.14549611867E+03  0.14549611867E+03  0.00000000000E+00 0.  1.
          1   -1    0    0  501    0 -0.00000000000E+00 -0.00000000000E+00 -0.18900678927E+03  0.18900678927E+03  0.00000000000E+00 0.  1.
          2    1    1    2  501    0  0.15376328627E+02  0.48595140025E+02 -0.97378712519E+02  0.10991147696E+03  0.00000000000E+00 0.  1.
          1    1    1    2  502    0 -0.40024091815E+01 -0.31723101174E+02 -0.51147170901E+02  0.60319213510E+02  0.00000000000E+00 0.  1.
         22    1    1    2    0    0  0.76316090270E+01  0.66558629601E+01 -0.27000102691E+02  0.28836565562E+02  0.00000000000E+00 0. -1.
         22    1    1    2    0    0 -0.19005528472E+02 -0.23527901812E+02  0.13201531551E+03  0.13543565190E+03  0.00000000000E+00 0.  1.
</event>
<event>
 6    1  0.2809573E-005  0.2235418E+03  0.7818608E-02  0.1193472E+00
          2   -1    0    0  502    0  0.00000000000E+00  0.00000000000E+00  0.43067516945E+02  0.43067516945E+02  0.00000000000E+00 0.  1.
          1   -1    0    0  501    0 -0.00000000000E+00 -0.00000000000E+00 -0.13315223722E+04  0.13315223722E+04  0.00000000000E+00 0.  1.
          2    1    1    2  501    0  0.29108021216E+02  0.22364869119E+02 -0.37817760617E+03  0.37995495270E+03  0.00000000000E+00 0.  1.
          1    1    1    2  502    0 -0.41927777346E+02 -0.63339661221E+01 -0.85737151619E+03  0.85841946298E+03  0.00000000000E+00 0.  1.
         22    1    1    2    0    0 -0.46287489626E+02  0.11207458638E+02 -0.52838488308E+02  0.71133990973E+02  0.00000000000E+00 0. -1.
         22    1    1    2    0    0  0.59107245756E+02 -0.27238361635E+02 -0.67244607111E-01  0.65081482522E+02  0.00000000000E+00 0.  1.
</event>
<event>
 6    1  0.2809573E-005  0.2584898E+03  0.7818608E-02  0.1221323E+00
          2   -1    0    0  502    0  0.00000000000E+00  0.00000000000E+00  0.22486356013E+03  0.22486356013E+03  0.00000000000E+00 0. -1.
          1   -1    0    0  501    0 -0.00000000000E+00 -0.00000000000E+00 -0.33562638763E+03  0.33562638763E+03  0.00000000000E+00 0. -1.
          2    1    1    2  501    0  0.95771958772E+02 -0.16832633092E+03 -0.13011391967E+03  0.23331449561E+03  0.00000000000E+00 0. -1.
          1    1    1    2  502    0 -0.17329153680E+02  0.16638318089E+03  0.55073688347E+02  0.17611579599E+03  0.00000000000E+00 0. -1.
         22    1    1    2    0    0 -0.59707645401E+02  0.33934684814E+01 -0.81781482937E+02  0.10131500135E+03  0.00000000000E+00 0. -1.
         22    1    1    2    0    0 -0.18735159691E+02 -0.14503184454E+01  0.46058886759E+02  0.49744654805E+02  0.00000000000E+00 0. -1.
</event>
<event>
 6    1  0.2809573E-005  0.8955905E+02  0.7818608E-02  0.1307436E+00
          2   -1    0    0  502    0  0.00000000000E+00  0.00000000000E+00  0.24722609506E+03  0.24722609506E+03  0.00000000000E+00 0. -1.
          1   -1    0    0  501    0 -0.00000000000E+00 -0.00000000000E+00 -0.43360070733E+03  0.43360070733E+03  0.00000000000E+00 0.  1.
          2    1    1    2  501    0  0.45249957458E+02 -0.27589552192E+02  0.35041149358E+02  0.63534433093E+02  0.00000000000E+00 0. -1.
          1    1    1    2  502    0 -0.32392510618E+02 -0.20877580390E+01 -0.39896607251E+03  0.40028434955E+03  0.00000000000E+00 0.  1.
         22    1    1    2    0    0  0.26423083442E+02 -0.38054721177E+02  0.60973662354E+02  0.76577598835E+02  0.00000000000E+00 0. -1.
         22    1    1    2    0    0 -0.39280530282E+02  0.67732031408E+02  0.11657664853E+03  0.14043042092E+03  0.00000000000E+00 0. -1.
</event>
<event>
 6    1  0.3037383E-005  0.3760072E+03  0.7818608E-02  0.1135585E+00
          2   -1    0    0  502    0  0.00000000000E+00  0.00000000000E+00  0.14598831688E+04  0.14598831688E+04  0.00000000000E+00 0. -1.
          1   -1    0    0  501    0 -0.00000000000E+00 -0.00000000000E+00 -0.14715080374E+03  0.14715080374E+03  0.00000000000E+00 0. -1.
          2    1    1    2  501    0 -0.29923753669E+03  0.86659273204E+02  0.15724075444E+03  0.34896645663E+03  0.00000000000E+00 0. -1.
          1    1    1    2  502    0  0.33262375172E+03 -0.99852041848E+02  0.99286997855E+03  0.10518554011E+04  0.00000000000E+00 0. -1.
         22    1    1    2    0    0  0.93961038644E+01 -0.41219209917E+02  0.11410441728E+03  0.12168454329E+03  0.00000000000E+00 0. -1.
         22    1    1    2    0    0 -0.42782318894E+02  0.54411978561E+02  0.48517214793E+02  0.84527571550E+02  0.00000000000E+00 0. -1.
</event>
<event>
 6    1  0.2809573E-005  0.3105159E+03  0.7818608E-02  0.1197695E+00
          2   -1    0    0  502    0  0.00000000000E+00  0.00000000000E+00  0.53343176845E+03  0.53343176845E+03  0.00000000000E+00 0. -1.
          1   -1    0    0  501    0 -0.00000000000E+00 -0.00000000000E+00 -0.40636920826E+03  0.40636920826E+03  0.00000000000E+00 0.  1.
          2    1    1    2  501    0  0.62009352852E+02  0.82739944950E+02  0.73576762957E+02  0.12690389426E+03  0.00000000000E+00 0. -1.
          1    1    1    2  502    0  0.88100548449E+02 -0.20490125889E+03 -0.30963111115E+03  0.38159881751E+03  0.00000000000E+00 0.  1.
         22    1    1    2    0    0 -0.13317289710E+03  0.11618031401E+03  0.37156189756E+03  0.41145003294E+03  0.00000000000E+00 0. -1.
         22    1    1    2    0    0 -0.16937004202E+02  0.59809999293E+01 -0.84449891795E+01  0.19848232005E+02  0.00000000000E+00 0. -1.
</event>
<event>
 6    1  0.2809573E-005  0.6110549E+02  0.7818608E-02  0.1437772E+00
          2   -1    0    0  502    0  0.00000000000E+00  0.00000000000E+00  0.10983773408E+03  0.10983773408E+03  0.00000000000E+00 0.  1.
          1   -1    0    0  501    0 -0.00000000000E+00 -0.00000000000E+00 -0.90699622718E+02  0.90699622718E+02  0.00000000000E+00 0.  1.
          2    1    1    2  501    0 -0.67075684084E+01 -0.22743160140E+02 -0.74085087710E+01  0.24842077395E+02  0.00000000000E+00 0.  1.
          1    1    1    2  502    0  0.17048259807E+02  0.39796928424E+02 -0.68225045374E+00  0.43300163280E+02  0.00000000000E+00 0.  1.
         22    1    1    2    0    0  0.28447041668E+02  0.11453821086E+02  0.64563768887E+02  0.71476600717E+02  0.00000000000E+00 0.  1.
         22    1    1    2    0    0 -0.38787733067E+02 -0.28507589369E+02 -0.37334898300E+02  0.60918515406E+02  0.00000000000E+00 0.  1.
</event>
<event>
 6    1  0.2809573E-005  0.1907765E+03  0.7818608E-02  0.1158901E+00
          2   -1    0    0  502    0  0.00000000000E+00  0.00000000000E+00  0.35106985201E+03  0.35106985201E+03  0.00000000000E+00 0. -1.
          1   -1    0    0  501    0 -0.00000000000E+00 -0.00000000000E+00 -0.37190423353E+03  0.37190423353E+03  0.00000000000E+00 0. -1.
          2    1    1    2  501    0 -0.12575879163E+03 -0.24774102726E+03  0.39948047353E+02  0.28068975177E+03  0.00000000000E+00 0. -1.
          1    1    1    2  502    0  0.99955899463E+02  0.11235122853E+03 -0.16961425195E+03  0.22667813052E+03  0.00000000000E+00 0. -1.
         22    1    1    2    0    0  0.37770744075E+02  0.15073336131E+03  0.11698694416E+03  0.19450737884E+03  0.00000000000E+00 0. -1.
         22    1    1    2    0    0 -0.11967851905E+02 -0.15343562583E+02 -0.81551210800E+01  0.21098824417E+02  0.00000000000E+00 0. -1.
</event>
<event>
 6    1  0.3547377E-005  0.2438133E+03  0.7818608E-02  0.1200870E+00
          2   -1    0    0  502    0  0.00000000000E+00  0.00000000000E+00  0.41358131284E+03  0.41358131284E+03  0.00000000000E+00 0.  1.
          1   -1    0    0  501    0 -0.00000000000E+00 -0.00000000000E+00 -0.35374834465E+03  0.35374834465E+03  0.00000000000E+00 0. -1.
          2    1    1    2  501    0  0.62238958911E+02 -0.16415562329E+02 -0.80603004129E+01  0.64870078893E+02  0.00000000000E+00 0.  1.
          1    1    1    2  502    0 -0.13732596475E+02  0.44821064321E+02 -0.30341088784E+03  0.30701087745E+03  0.00000000000E+00 0. -1.
         22    1    1    2    0    0  0.28866484182E+02  0.19130253029E+02  0.45223362452E+02  0.56959573396E+02  0.00000000000E+00 0.  1.
         22    1    1    2    0    0 -0.77372846618E+02 -0.47535755021E+02  0.32608079399E+03  0.33848912775E+03  0.00000000000E+00 0.  1.
</event>
<event>
 6    1  0.2809573E-005  0.6783728E+02  0.7818608E-02  0.1485670E+00
          2   -1    0    0  502    0  0.00000000000E+00  0.00000000000E+00  0.72273101186E+02  0.72273101186E+02  0.00000000000E+00 0.  1.
          1   -1    0    0  501    0 -0.00000000000E+00 -0.00000000000E+00 -0.10498454617E+04  0.10498454617E+04  0.00000000000E+00 0.  1.
          2    1    1    2  501    0 -0.19870133667E+02  0.68020520100E+01 -0.14466898671E+02  0.25502574001E+02  0.00000000000E+00 0.  1.
          1    1    1    2  502    0  0.50579177142E+02 -0.38500970205E+02 -0.96489825106E+03  0.96698976870E+03  0.00000000000E+00 0.  1.
         22    1    1    2    0    0 -0.27949949838E+02  0.42546359139E+02 -0.53126093784E+02  0.73578354240E+02  0.00000000000E+00 0.  1.
         22    1    1    2    0    0 -0.27590936369E+01 -0.10847440944E+02  0.54918882976E+02  0.56047865972E+02  0.00000000000E+00 0.  1.
</event>
<event>
 6    1  0.2809573E-005  0.5807168E+02  0.7818608E-02  0.1412264E+00
          2   -1    0    0  502    0  0.00000000000E+00  0.00000000000E+00  0.56105221426E+02  0.56105221426E+02  0.00000000000E+00 0.  1.
          1   -1    0    0  501    0 -0.00000000000E+00 -0.00000000000E+00 -0.20042606834E+04  0.20042606834E+04  0.00000000000E+00 0. -1.
          2    1    1    2  501    0 -0.22594354684E+02 -0.13814209747E+01 -0.12640497707E+03  0.12841585344E+03  0.00000000000E+00 0.  1.
          1    1    1    2  502    0  0.58837796123E+01  0.30890582387E+02 -0.18056352759E+04  0.18059090776E+04  0.00000000000E+00 0. -1.
         22    1    1    2    0    0 -0.14076517922E+02  0.15178179571E+02 -0.55338578810E+02  0.59083701616E+02  0.00000000000E+00 0. -1.
         22    1    1    2    0    0  0.30787092994E+02 -0.44687340984E+02  0.39223369897E+02  0.66957272087E+02  0.00000000000E+00 0.  1.
</event>
<event>
 6    1  0.2809573E-005  0.6153038E+02  0.7818608E-02  0.1421046E+00
          2   -1    0    0  502    0  0.00000000000E+00  0.00000000000E+00  0.29301239553E+02  0.29301239553E+02  0.00000000000E+00 0.  1.
          1   -1    0    0  501    0 -0.00000000000E+00 -0.00000000000E+00 -0.42226793567E+03  0.42226793567E+03  0.00000000000E+00 0.  1.
          2    1    1    2  501    0 -0.54589208487E+01  0.39653229945E+02 -0.46719749843E+02  0.61521650557E+02  0.00000000000E+00 0.  1.
          1    1    1    2  502    0  0.11118917769E+02 -0.49216540726E+02 -0.14921091468E+03  0.15751125443E+03  0.00000000000E+00 0.  1.
         22    1    1    2    0    0 -0.11582098462E+02  0.47820731653E+02 -0.23121617303E+02  0.54365214681E+02  0.00000000000E+00 0.  1.
         22    1    1    2    0    0  0.59221015420E+01 -0.38257420872E+02 -0.17391441429E+03  0.17817105556E+03  0.00000000000E+00 0. -1.
</event>
<event>
 6    1  0.2809573E-005  0.6965053E+02  0.7818608E-02  0.1436632E+00
          2   -1    0    0  502    0  0.00000000000E+00  0.00000000000E+00  0.29167410957E+03  0.29167410957E+03  0.00000000000E+00 0. -1.
          1   -1    0    0  501    0 -0.00000000000E+00 -0.00000000000E+00 -0.11456813701E+03  0.11456813701E+03  0.00000000000E+00 0. -1.
          2    1    1    2  501    0 -0.29321913707E+02  0.24614803650E+02 -0.61417629834E+02  0.72372566879E+02  0.00000000000E+00 0. -1.
          1    1    1    2  502    0  0.13181428326E+02 -0.72704165274E+02  0.16486265948E+03  0.18066361613E+03  0.00000000000E+00 0. -1.
         22    1    1    2    0    0  0.11012040632E+02  0.27658198418E+02 -0.33023915414E+02  0.44461443610E+02  0.00000000000E+00 0. -1.
         22    1    1    2    0    0  0.51284447485E+01  0.20431163205E+02  0.10668485833E+03  0.10874461997E+03  0.00000000000E+00 0.  1.
</event>
<event>
 6    1  0.2809573E-005  0.1025272E+03  0.7818608E-02  0.1375168E+00
          2   -1    0    0  502    0  0.00000000000E+00  0.00000000000E+00  0.69497415634E+02  0.69497415634E+02  0.00000000000E+00 0.  1.
          1   -1    0    0  501    0 -0.00000000000E+00 -0.00000000000E+00 -0.38274080268E+03  0.38274080268E+03  0.00000000000E+00 0.  1.
          2    1    1    2  501    0 -0.42764934424E+02  0.42177819827E+02 -0.77300177052E+02  0.97893439381E+02  0.00000000000E+00 0.  1.
          1    1    1    2  502    0  0.80982307311E+02 -0.64211796118E+02 -0.19353652804E+03  0.21940300031E+03  0.00000000000E+00 0.  1.
         22    1    1    2    0    0 -0.15957968894E+02 -0.67884831860E+01  0.40681292789E+02  0.44223385874E+02  0.00000000000E+00 0.  1.
         22    1    1    2    0    0 -0.22259403992E+02  0.28822459477E+02 -0.83087974743E+02  0.90718392751E+02  0.00000000000E+00 0. -1.
</event>
<event>
 6    1  0.2809573E-005  0.4438824E+02  0.7818608E-02  0.1487102E+00
          2   -1    0    0  502    0  0.00000000000E+00  0.00000000000E+00  0.20822043739E+03  0.20822043739E+03  0.00000000000E+00 0. -1.
          1   -1    0    0  501    0 -0.00000000000E+00 -0.00000000000E+00 -0.12242717732E+03  0.12242717732E+03  0.00000000000E+00 0. -1.
          2    1    1    2  501    0  0.21433481417E+02 -0.41544734913E+01 -0.32935851899E+02  0.39514859432E+02  0.00000000000E+00 0. -1.
          1    1    1    2  502    0 -0.12587497525E+02  0.25837232756E+02 -0.62393559024E+02  0.68694715212E+02  0.00000000000E+00 0. -1.
         22    1    1    2    0    0 -0.34809490328E+02 -0.17960173309E+02  0.19057429468E+03  0.19455803822E+03  0.00000000000E+00 0. -1.
         22    1    1    2    0    0  0.25963506437E+02 -0.37225859557E+01 -0.94516236936E+01  0.27880001850E+02  0.00000000000E+00 0. -1.
</event>
<event>
 6    1  0.2809573E-005  0.1291890E+03  0.7818608E-02  0.1290148E+00
          2   -1    0    0  502    0  0.00000000000E+00  0.00000000000E+00  0.28342100626E+02  0.28342100626E+02  0.00000000000E+00 0.  1.
          1   -1    0    0  501    0 -0.00000000000E+00 -0.00000000000E+00 -0.90200223443E+03  0.90200223443E+03  0.00000000000E+00 0.  1.
          2    1    1    2  501    0  0.11551782915E+02  0.44628918394E+02 -0.24045086889E+03  0.24483015418E+03  0.00000000000E+00 0.  1.
          1    1    1    2  502    0 -0.42068138281E+02  0.33368509415E+01 -0.48118399700E+03  0.48303095325E+03  0.00000000000E+00 0.  1.
         22    1    1    2    0    0  0.31930382459E+02  0.21528606590E+02 -0.37105636860E+01  0.38688480308E+02  0.00000000000E+00 0. -1.
         22    1    1    2    0    0 -0.14140270923E+01 -0.69494375925E+02 -0.14831470423E+03  0.16379474732E+03  0.00000000000E+00 0.  1.
</event>
<event>
 6    1  0.2809573E-005  0.6532542E+02  0.7818608E-02  0.1397995E+00
          2   -1    0    0  502    0  0.00000000000E+00  0.00000000000E+00  0.32656838460E+03  0.32656838460E+03  0.00000000000E+00 0.  1.
          1   -1    0    0  501    0 -0.00000000000E+00 -0.00000000000E+00 -0.60925286878E+02  0.60925286878E+02  0.00000000000E+00 0.  1.
          2    1    1    2  501    0  0.16307355827E+02  0.24476340486E+02  0.31369772417E+02  0.43000973468E+02  0.00000000000E+00 0.  1.
          1    1    1    2  502    0 -0.41454777783E+02  0.24606266707E+02 -0.22829511210E+02  0.53339980731E+02  0.00000000000E+00 0.  1.
         22    1    1    2    0    0 -0.20985297056E+02 -0.41349229630E+02  0.23479368392E+03  0.23932867671E+03  0.00000000000E+00 0.  1.
         22    1    1    2    0    0  0.46132719012E+02 -0.77333775630E+01  0.22309152592E+02  0.51824040574E+02  0.00000000000E+00 0.  1.
</event>
<event>
 6    1  0.2809573E-005  0.2013567E+03  0.7818608E-02  0.1233096E+00
          2   -1    0    0  502    0  0.00000000000E+00  0.00000000000E+00  0.54706516749E+03  0.54706516749E+03  0.00000000000E+00 0. -1.
          1   -1    0    0  501    0 -0.00000000000E+00 -0.00000000000E+00 -0.20823423444E+03  0.20823423444E+03  0.00000000000E+00 0. -1.
          2    1    1    2  501    0  0.12188128409E+03  0.10381381878E+02 -0.10995483159E+03  0.16447761395E+03  0.00000000000E+00 0. -1.
          1    1    1    2  502    0 -0.16861151904E+03  0.36071681659E+02  0.41205014745E+03  0.44667251380E+03  0.00000000000E+00 0. -1.
         22    1    1    2    0    0  0.24453102500E+02 -0.68211545331E+02 -0.23636026661E+02  0.76219622766E+02  0.00000000000E+00 0. -1.
         22    1    1    2    0    0  0.22277132453E+02  0.21758481794E+02  0.60371643854E+02  0.67929651420E+02  0.00000000000E+00 0. -1.
</event>
<event>
 6    1  0.2809573E-005  0.2857866E+03  0.7818608E-02  0.1137968E+00
          2   -1    0    0  502    0  0.00000000000E+00  0.00000000000E+00  0.56970109999E+03  0.56970109999E+03  0.00000000000E+00 0.  1.
          1   -1    0    0  501    0 -0.00000000000E+00 -0.00000000000E+00 -0.10635390544E+04  0.10635390544E+04  0.00000000000E+00 0.  1.
          2    1    1    2  501    0  0.27330574483E+03 -0.47929309312E+02 -0.44102379477E+03  0.52105204769E+03  0.00000000000E+00 0.  1.
          1    1    1    2  502    0 -0.21220623481E+03  0.87900638707E+02 -0.54941973630E+03  0.59549983628E+03  0.00000000000E+00 0.  1.
         22    1    1    2    0    0 -0.74558335861E+02 -0.51959081622E+02  0.48857797178E+03  0.49695787157E+03  0.00000000000E+00 0.  1.
         22    1    1    2    0    0  0.13458825833E+02  0.11987752227E+02  0.80276049194E+01  0.19730398805E+02  0.00000000000E+00 0. -1.
</event>
<event>
 6    1  0.2809573E-005  0.6954560E+02  0.7818608E-02  0.1477416E+00
          2   -1    0    0  502    0  0.00000000000E+00  0.00000000000E+00  0.10299272470E+03  0.10299272470E+03  0.00000000000E+00 0. -1.
          1   -1    0    0  501    0 -0.00000000000E+00 -0.00000000000E+00 -0.34967557953E+03  0.34967557953E+03  0.00000000000E+00 0. -1.
          2    1    1    2  501    0 -0.16507918741E+02  0.40817476044E+02 -0.22801892399E+03  0.23223093555E+03  0.00000000000E+00 0. -1.
          1    1    1    2  502    0  0.20937389355E+02 -0.55955144519E+02  0.51897018581E+02  0.79136925697E+02  0.00000000000E+00 0. -1.
         22    1    1    2    0    0  0.96082407699E+00  0.25488194127E+02 -0.10337386723E+03  0.10647407031E+03  0.00000000000E+00 0.  1.
         22    1    1    2    0    0 -0.53902946910E+01 -0.10350525652E+02  0.32812917806E+02  0.34826372666E+02  0.00000000000E+00 0. -1.
</event>
<event>
 6    1  0.2809573E-005  0.2117867E+03  0.7818608E-02  0.1205854E+00
          2   -1    0    0  502    0  0.00000000000E+00  0.00000000000E+00  0.12129933680E+03  0.12129933680E+03  0.00000000000E+00 0.  1.
          1   -1    0    0  501    0 -0.00000000000E+00 -0.00000000000E+00 -0.76458225681E+03  0.76458225681E+03  0.00000000000E+00 0.  1.
          2    1    1    2  501    0 -0.61028276428E+02 -0.32375818959E+02 -0.30317608812E+02  0.75444029460E+02  0.00000000000E+00 0.  1.
          1    1    1    2  502    0 -0.37244895653E+02  0.14531219444E+03 -0.59444834345E+03  0.61308372114E+03  0.00000000000E+00 0.  1.
         22    1    1    2    0    0  0.98627447692E+02 -0.65493324829E+02 -0.61430513788E+02  0.13338087217E+03  0.00000000000E+00 0.  1.
         22    1    1    2    0    0 -0.35427561071E+00 -0.47443050651E+02  0.42913546032E+02  0.63972970849E+02  0.00000000000E+00 0. -1.
</event>
<event>
 6    1  0.2809573E-005  0.1210133E+03  0.7818608E-02  0.1280891E+00
          2   -1    0    0  502    0  0.00000000000E+00  0.00000000000E+00  0.26464729490E+03  0.26464729490E+03  0.00000000000E+00 0.  1.
          1   -1    0    0  501    0 -0.00000000000E+00 -0.00000000000E+00 -0.78995290118E+03  0.78995290118E+03  0.00000000000E+00 0. -1.
          2    1    1    2  501    0  0.71904945142E+01 -0.41591372975E+02  0.10036629255E+03  0.10888038481E+03  0.00000000000E+00 0.  1.
          1    1    1    2  502    0  0.78218897838E+01  0.12034847135E+03 -0.74570239432E+03  0.75539194952E+03  0.00000000000E+00 0. -1.
         22    1    1    2    0    0 -0.35109473904E+02 -0.43362832166E+02 -0.76504300289E+01  0.56316422568E+02  0.00000000000E+00 0. -1.
         22    1    1    2    0    0  0.20097089606E+02 -0.35394266207E+02  0.12768092551E+03  0.13401143917E+03  0.00000000000E+00 0.  1.
</event>
<event>
 6    1  0.2809573E-005  0.8658790E+02  0.7818608E-02  0.1357827E+00
          2   -1    0    0  502    0  0.00000000000E+00  0.00000000000E+00  0.53066564603E+02  0.53066564603E+02  0.00000000000E+00 0. -1.
          1   -1    0    0  501    0 -0.00000000000E+00 -0.00000000000E+00 -0.97588786396E+03  0.97588786396E+03  0.00000000000E+00 0. -1.
          2    1    1    2  501    0  0.18868472084E+02 -0.10783975908E+02 -0.22396931735E+02  0.31207946525E+02  0.00000000000E+00 0. -1.
          1    1    1    2  502    0  0.25156593592E+02 -0.30720292873E+02 -0.84856233008E+03  0.84949079961E+03  0.00000000000E+00 0. -1.
         22    1    1    2    0    0 -0.25214337866E+02  0.80013397893E+01  0.40412855607E+02  0.48300964491E+02  0.00000000000E+00 0. -1.
         22    1    1    2    0    0 -0.18810727810E+02  0.33502928992E+02 -0.92274893150E+02  0.99954717936E+02  0.00000000000E+00 0. -1.
</event>
<event>
 6    1  0.2809573E-005  0.7501954E+02  0.7818608E-02  0.1380594E+00
          2   -1    0    0  502    0  0.00000000000E+00  0.00000000000E+00  0.71462950979E+02  0.71462950979E+02  0.00000000000E+00 0.  1.
          1   -1    0    0  501    0 -0.00000000000E+00 -0.00000000000E+00 -0.49997960722E+03  0.49997960722E+03  0.00000000000E+00 0. -1.
          2    1    1    2  501    0 -0.60616318314E+02 -0.12795220376E+02 -0.64978188240E+02  0.89778731654E+02  0.00000000000E+00 0.  1.
          1    1    1    2  502    0  0.52924848229E+02  0.18580096230E+02 -0.35616470163E+03  0.36055450937E+03  0.00000000000E+00 0. -1.
         22    1    1    2    0    0  0.28141676638E+02 -0.29136039086E+02  0.44801492236E+02  0.60398977179E+02  0.00000000000E+00 0.  1.
         22    1    1    2    0    0 -0.20450206554E+02  0.23351163232E+02 -0.52175258607E+02  0.60710340001E+02  0.00000000000E+00 0. -1.
</event>
<event>
 6    1  0.2809573E-005  0.1002745E+03  0.7818608E-02  0.1314904E+00
          2   -1    0    0  502    0  0.00000000000E+00  0.00000000000E+00  0.52513380851E+03  0.52513380851E+03  0.00000000000E+00 0. -1.
          1   -1    0    0  501    0 -0.00000000000E+00 -0.00000000000E+00 -0.55706883232E+02  0.55706883232E+02  0.00000000000E+00 0. -1.
          2    1    1    2  501    0  0.20313483425E+01  0.33329397075E+02  0.16887950034E+03  0.17214894923E+03  0.00000000000E+00 0. -1.
          1    1    1    2  502    0 -0.39546201480E+02 -0.73329115421E+02  0.43742616288E+01  0.83427785448E+02  0.00000000000E+00 0. -1.
         22    1    1    2    0    0  0.24779331626E+01  0.78786228624E+02  0.14117936879E+03  0.16169423040E+03  0.00000000000E+00 0.  1.
         22    1    1    2    0    0  0.35036919975E+02 -0.38786510278E+02  0.15499379452E+03  0.16356972666E+03  0.00000000000E+00 0. -1.
</event>
<event>
 6    1  0.2809573E-005  0.1115621E+03  0.7818608E-02  0.1258991E+00
          2   -1    0    0  502    0  0.00000000000E+00  0.00000000000E+00  0.17997348684E+03  0.17997348684E+03  0.00000000000E+00 0. -1.
          1   -1    0    0  501    0 -0.00000000000E+00 -0.00000000000E+00 -0.21468641643E+03  0.21468641643E+03  0.00000000000E+00 0.  1.
          2    1    1    2  501    0 -0.21144326321E+02  0.77457251918E+02  0.96378899636E+02  0.12544162270E+03  0.00000000000E+00 0. -1.
          1    1    1    2  502    0  0.25258348845E+02  0.99857046329E+01 -0.11369591246E+03  0.11689507686E+03  0.00000000000E+00 0.  1.
         22    1    1    2    0    0 -0.15250167741E+02  0.24634275824E+02  0.18185756632E+02  0.34207263933E+02  0.00000000000E+00 0.  1.
         22    1    1    2    0    0  0.11136145218E+02 -0.11207723238E+03 -0.35581673404E+02  0.11811593978E+03  0.00000000000E+00 0.  1.
</event>
<event>
 6    1  0.2809573E-005  0.1467058E+03  0.7818608E-02  0.1205327E+00
          2   -1    0    0  502    0  0.00000000000E+00  0.00000000000E+00  0.26162299900E+03  0.26162299900E+03  0.00000000000E+00 0. -1.
          1   -1    0    0  501    0 -0.00000000000E+00 -0.00000000000E+00 -0.50414576035E+03  0.50414576035E+03  0.00000000000E+00 0. -1.
          2    1    1    2  501    0 -0.11600366760E+03 -0.15916749008E+03 -0.14204011596E+03  0.24283026034E+03  0.00000000000E+00 0. -1.
          1    1    1    2  502    0  0.59713147769E+02  0.51418495059E+02 -0.26983707747E+03  0.28110775519E+03  0.00000000000E+00 0. -1.
         22    1    1    2    0    0 -0.31828309888E+01 -0.15609778057E+02 -0.79436113032E+01  0.17801588261E+02  0.00000000000E+00 0. -1.
         22    1    1    2    0    0  0.59473350823E+02  0.12335877308E+03  0.17729804338E+03  0.22402915556E+03  0.00000000000E+00 0. -1.
</event>
<event>
 6    1  0.3214644E-005  0.1230070E+03  0.7818608E-02  0.1272298E+00
          2   -1    0    0  502    0  0.00000000000E+00  0.00000000000E+00  0.37831155586E+03  0.37831155586E+03  0.00000000000E+00 0.  1.
          1   -1    0    0  501    0 -0.00000000000E+00 -0.00000000000E+00 -0.16822002110E+04  0.16822002110E+04  0.00000000000E+00 0.  1.
          2    1    1    2  501    0  0.32555247832E+02  0.72397805117E+02  0.11063290745E+03  0.13616507099E+03  0.00000000000E+00 0.  1.
          1    1    1    2  502    0 -0.30738472135E+02 -0.10182228537E+03 -0.16508934383E+04  0.16543161053E+04  0.00000000000E+00 0.  1.
         22    1    1    2    0    0 -0.60728722758E+02  0.15270194192E+02  0.16457299916E+03  0.17608358428E+03  0.00000000000E+00 0.  1.
         22    1    1    2    0    0  0.58911947061E+02  0.14154286060E+02  0.71798876569E+02  0.93947006322E+02  0.00000000000E+00 0. -1.
</event>
<event>
 6    1  0.2809573E-005  0.6887471E+02  0.7818608E-02  0.1427996E+00
          2   -1    0    0  502    0  0.00000000000E+00  0.00000000000E+00  0.73807253335E+02  0.73807253335E+02  0.00000000000E+00 0. -1.
          1   -1    0    0  501    0 -0.00000000000E+00 -0.00000000000E+00 -0.61125884755E+03  0.61125884755E+03  0.00000000000E+00 0. -1.
          2    1    1    2  501    0  0.44914546540E+02 -0.20696799457E+02 -0.42049314810E+03  0.42339126301E+03  0.00000000000E+00 0. -1.
          1    1    1    2  502    0 -0.48686261999E+02  0.30789982405E+00 -0.12851030722E+03  0.13742396433E+03  0.00000000000E+00 0. -1.
         22    1    1    2    0    0  0.18315407249E+02  0.27478156046E+00 -0.52475504013E+02  0.55580645634E+02  0.00000000000E+00 0. -1.
         22    1    1    2    0    0 -0.14543691791E+02  0.20114118072E+02  0.64027365119E+02  0.68670227907E+02  0.00000000000E+00 0. -1.
</event>
<event>
 6    1  0.2809573E-005  0.9940476E+02  0.7818608E-02  0.1363352E+00
          2   -1    0    0  502    0  0.00000000000E+00  0.00000000000E+00  0.43426359897E+02  0.43426359897E+02  0.00000000000E+00 0. -1.
          1   -1    0    0  501    0 -0.00000000000E+00 -0.00000000000E+00 -0.12695281594E+04  0.12695281594E+04  0.00000000000E+00 0. -1.
          2    1    1    2  501    0 -0.49097418663E+02 -0.36254383190E+02 -0.16374174829E+03  0.17474637894E+03  0.00000000000E+00 0. -1.
          1    1    1    2  502    0  0.60217366736E+02  0.70057924632E+02 -0.98329156059E+03  0.98762165690E+03  0.00000000000E+00 0. -1.
         22    1    1    2    0    0 -0.31121055552E+02 -0.45448757099E+02 -0.10330598028E+03  0.11707363146E+03  0.00000000000E+00 0. -1.
         22    1    1    2    0    0  0.20001107480E+02  0.11645215657E+02  0.24237489622E+02  0.33512852032E+02  0.00000000000E+00 0. -1.
</event>
<event>
 6    1  0.2809573E-005  0.7986978E+02  0.7818608E-02  0.1334132E+00
          2   -1    0    0  502    0  0.00000000000E+00  0.00000000000E+00  0.12265104161E+03  0.12265104161E+03  0.00000000000E+00 0. -1.
          1   -1    0    0  501    0 -0.00000000000E+00 -0.00000000000E+00 -0.42802239305E+03  0.42802239305E+03  0.00000000000E+00 0. -1.
          2    1    1    2  501    0 -0.24101680251E+02 -0.61782783047E-01 -0.44624489389E+01  0.24511390384E+02  0.00000000000E+00 0. -1.
          1    1    1    2  502    0 -0.61871501380E+02 -0.41917892714E+02 -0.35058219629E+03  0.35845929862E+03  0.00000000000E+00 0. -1.
         22    1    1    2    0    0  0.11715040167E+03  0.31501538496E+02  0.19117830239E+02  0.12280901829E+03  0.00000000000E+00 0. -1.
         22    1    1    2    0    0 -0.31177220044E+02  0.10478137001E+02  0.30555463549E+02  0.44893727372E+02  0.00000000000E+00 0. -1.
</event>
<event>
 6    1  0.2809573E-005  0.8460807E+02  0.7818608E-02  0.1352208E+00
          2   -1    0    0  502    0  0.00000000000E+00  0.00000000000E+00  0.27166250116E+03  0.27166250116E+03  0.00000000000E+00 0. -1.
          1   -1    0    0  501    0 -0.00000000000E+00 -0.00000000000E+00 -0.24254220148E+04  0.24254220148E+04  0.00000000000E+00 0.  1.
          2    1    1    2  501    0  0.67978976929E+01 -0.18918985789E+02 -0.38003933312E+02  0.42993469079E+02  0.00000000000E+00 0. -1.
          1    1    1    2  502    0 -0.55273729673E+02 -0.14315887721E+02 -0.23672403386E+04  0.23679288314E+04  0.00000000000E+00 0.  1.
         22    1    1    2    0    0  0.78062661400E+01  0.44616451329E+02  0.23734139932E+03  0.24162472007E+03  0.00000000000E+00 0. -1.
         22    1    1    2    0    0  0.40669565840E+02 -0.11381577819E+02  0.14143358924E+02  0.44537495449E+02  0.00000000000E+00 0. -1.
</event>
<event>
 6    1  0.2809573E-005  0.6520175E+02  0.7818608E-02  0.1379660E+00
          2   -1    0    0  502    0  0.00000000000E+00  0.00000000000E+00  0.12430833343E+03  0.12430833343E+03  0.00000000000E+00 0. -1.
          1   -1    0    0  501    0 -0.00000000000E+00 -0.00000000000E+00 -0.38480287617E+03  0.38480287617E+03  0.00000000000E+00 0.  1.
          2    1    1    2  501    0 -0.28245711678E+02 -0.11402179732E+02 -0.64176349090E+02  0.71038255281E+02  0.00000000000E+00 0. -1.
          1    1    1    2  502    0  0.11329229816E+01 -0.21751863351E+02 -0.28299995276E+03  0.28383692560E+03  0.00000000000E+00 0.  1.
         22    1    1    2    0    0  0.46313299986E+02  0.43969174930E+02  0.10677417129E+03  0.12441436314E+03  0.00000000000E+00 0. -1.
         22    1    1    2    0    0 -0.19200511289E+02 -0.10815131847E+02 -0.20092412178E+02  0.29821665577E+02  0.00000000000E+00 0.  1.
</event>
<event>
 6    1  0.2809573E-005  0.7865552E+02  0.7818608E-02  0.1369813E+00
          2   -1    0    0  502    0  0.00000000000E+00  0.00000000000E+00  0.17240135024E+03  0.17240135024E+03  0.00000000000E+00 0.  1.
          1   -1    0    0  501    0 -0.00000000000E+00 -0.00000000000E+00 -0.97605095935E+02  0.97605095935E+02  0.00000000000E+00 0. -1.
          2    1    1    2  501    0  0.23445494334E+02  0.91022871118E+00  0.78618909408E+01  0.24745283390E+02  0.00000000000E+00 0.  1.
          1    1    1    2  502    0 -0.29720869812E+02  0.29334752405E+02 -0.53597174512E+02  0.67944940332E+02  0.00000000000E+00 0. -1.
         22    1    1    2    0    0 -0.33833394390E+02 -0.47161521017E+02  0.10496618299E+02  0.58983782824E+02  0.00000000000E+00 0. -1.
         22    1    1    2    0    0  0.40108769867E+02  0.16916539900E+02  0.11003491958E+03  0.11833243963E+03  0.00000000000E+00 0.  1.
</event>
<event>
 6    1  0.2809573E-005  0.2218189E+03  0.7818608E-02  0.1271607E+00
          2   -1    0    0  502    0  0.00000000000E+00  0.00000000000E+00  0.79860884268E+02  0.79860884268E+02  0.00000000000E+00 0.  1.
          1   -1    0    0  501    0 -0.00000000000E+00 -0.00000000000E+00 -0.23985479561E+04  0.23985479561E+04  0.00000000000E+00 0. -1.
          2    1    1    2  501    0 -0.60413819742E+02  0.66644452417E+02 -0.28962634676E+03  0.30327336413E+03  0.00000000000E+00 0.  1.
          1    1    1    2  502    0 -0.21674097306E+02 -0.21177427748E+02 -0.20161236599E+04  0.20163513737E+04  0.00000000000E+00 0. -1.
         22    1    1    2    0    0  0.69194651788E+01  0.83202768671E+01  0.47257759874E+02  0.48480943409E+02  0.00000000000E+00 0.  1.
         22    1    1    2    0    0  0.75168451869E+02 -0.53787301535E+02 -0.60194825012E+02  0.11030315916E+03  0.00000000000E+00 0.  1.
</event>
<event>
 6    1  0.2809573E-005  0.1474533E+03  0.7818608E-02  0.1304218E+00
          2   -1    0    0  502    0  0.00000000000E+00  0.00000000000E+00  0.10956986048E+03  0.10956986048E+03  0.00000000000E+00 0. -1.
          1   -1    0    0  501    0 -0.00000000000E+00 -0.00000000000E+00 -0.16411718329E+03  0.16411718329E+03  0.00000000000E+00 0. -1.
          2    1    1    2  501    0 -0.25310170951E+02  0.65883828615E+02 -0.23930291855E+02  0.74524777724E+02  0.00000000000E+00 0. -1.
          1    1    1    2  502    0 -0.40035361089E+02 -0.11532615668E+02 -0.18309663141E+02  0.45509066415E+02  0.00000000000E+00 0. -1.
         22    1    1    2    0    0 -0.31595948623E+01 -0.19706832651E+02  0.50606039859E+02  0.54399573188E+02  0.00000000000E+00 0. -1.
         22    1    1    2    0    0  0.68505126902E+02 -0.34644380297E+02 -0.62913407667E+02  0.99253626444E+02  0.00000000000E+00 0. -1.
</event>
<event>
 6    1  0.2809573E-005  0.2063864E+03  0.7818608E-02  0.1231053E+00
          2   -1    0    0  502    0  0.00000000000E+00  0.00000000000E+00  0.15075167084E+03  0.15075167084E+03  0.00000000000E+00 0.  1.
          1   -1    0    0  501    0 -0.00000000000E+00 -0.00000000000E+00 -0.23108798861E+04  0.23108798861E+04  0.00000000000E+00 0.  1.
          2    1    1    2  501    0 -0.12074511198E+01 -0.25462264782E+02 -0.66955682997E+02  0.71643899612E+02  0.00000000000E+00 0.  1.
          1    1    1    2  502    0  0.10877096247E+03  0.10849110783E+03 -0.21782152789E+04  0.21836261685E+04  0.00000000000E+00 0.  1.
         22    1    1    2    0    0 -0.90291133290E+02 -0.10775277482E+03  0.30223754444E+02  0.14379368750E+03  0.00000000000E+00 0.  1.
         22    1    1    2    0    0 -0.17272378062E+02  0.24723931772E+02  0.54818992214E+02  0.62567801252E+02  0.00000000000E+00 0.  1.
</event>
<event>
 6    1  0.2809573E-005  0.3591198E+03  0.7818608E-02  0.1184269E+00
          2   -1    0    0  502    0  0.00000000000E+00  0.00000000000E+00  0.39688610197E+03  0.39688610197E+03  0.00000000000E+00 0.  1.
          1   -1    0    0  501    0 -0.00000000000E+00 -0.00000000000E+00 -0.22667145679E+03  0.22667145679E+03  0.00000000000E+00 0. -1.
          2    1    1    2  501    0  0.21854641878E+03 -0.16327393790E+01  0.60361456095E+02  0.22673488568E+03  0.00000000000E+00 0.  1.
          1    1    1    2  502    0 -0.16942903529E+03  0.11548942114E+03  0.54572566460E+02  0.21218428171E+03  0.00000000000E+00 0. -1.
         22    1    1    2    0    0  0.95738806489E+01  0.12334190425E+02  0.42030794621E+02  0.44837251707E+02  0.00000000000E+00 0. -1.
         22    1    1    2    0    0 -0.58691264138E+02 -0.12619087219E+03  0.13249828010E+02  0.13980113967E+03  0.00000000000E+00 0. -1.
</event>
<event>
 6    1  0.2809573E-005  0.2841147E+03  0.7818608E-02  0.1180070E+00
          2   -1    0    0  502    0  0.00000000000E+00  0.00000000000E+00  0.43831971072E+03  0.43831971072E+03  0.00000000000E+00 0. -1.
          1   -1    0    0  501    0 -0.00000000000E+00 -0.00000000000E+00 -0.29868263141E+04  0.29868263141E+04  0.00000000000E+00 0.  1.
          2    1    1    2  501    0  0.13173029078E+03 -0.76806561954E+02  0.38355740158E+02  0.15723638342E+03  0.00000000000E+00 0. -1.
          1    1    1    2  502    0 -0.19697139881E+03  0.17364694042E+03 -0.29002387622E+04  0.29121016242E+04  0.00000000000E+00 0.  1.
         22    1    1    2    0    0 -0.21503900577E+02 -0.27157906002E+02  0.17425359266E+03  0.17766340128E+03  0.00000000000E+00 0. -1.
         22    1    1    2    0    0  0.86745008608E+02 -0.69682472467E+02  0.13912282597E+03  0.17814461595E+03  0.00000000000E+00 0. -1.
</event>
<event>
 6    1  0.2809573E-005  0.1166029E+03  0.7818608E-02  0.1319401E+00
          2   -1    0    0  502    0  0.00000000000E+00  0.00000000000E+00  0.31331018630E+03  0.31331018630E+03  0.00000000000E+00 0. -1.
          1   -1    0    0  501    0 -0.00000000000E+00 -0.00000000000E+00 -0.62442711911E+02  0.62442711911E+02  0.00000000000E+00 0.  1.
          2    1    1    2  501    0 -0.35277365169E+02 -0.16408297178E+02  0.11845114648E+02  0.40669785475E+02  0.00000000000E+00 0. -1.
          1    1    1    2  502    0  0.18316274966E+02 -0.37081238101E+02 -0.16930707844E+02  0.44689517964E+02  0.00000000000E+00 0.  1.
         22    1    1    2    0    0  0.47310474023E+02  0.57870634674E+02  0.71600075028E+02  0.10350778741E+03  0.00000000000E+00 0. -1.
         22    1    1    2    0    0 -0.30349383820E+02 -0.43810993947E+01  0.18435299256E+03  0.18688580737E+03  0.00000000000E+00 0.  1.
</event>
<event>
 6    1  0.2809573E-005  0.7070201E+02  0.7818608E-02  0.1427292E+00
          2   -1    0    0  502    0  0.00000000000E+00  0.00000000000E+00  0.18053652468E+03  0.18053652468E+03  0.00000000000E+00 0. -1.
          1   -1    0    0  501    0 -0.00000000000E+00 -0.00000000000E+00 -0.21017107321E+03  0.21017107321E+03  0.00000000000E+00 0. -1.
          2    1    1    2  501    0  0.79800482592E+01 -0.49051652949E+02 -0.14640474410E+03  0.15460949170E+03  0.00000000000E+00 0. -1.
          1    1    1    2  502    0 -0.36172733270E+02  0.67018635390E+02  0.36636063776E+02  0.84511332322E+02  0.00000000000E+00 0. -1.
         22    1    1    2    0    0  0.23192478095E+02  0.18764820432E+00  0.11210684933E+03  0.11448088014E+03  0.00000000000E+00 0. -1.
         22    1    1    2    0    0  0.50002069161E+01 -0.18154630646E+02 -0.31972717531E+02  0.37105893729E+02  0.00000000000E+00 0. -1.
</event>
<event>
 6    1  0.2809573E-005  0.1085476E+03  0.7818608E-02  0.1266941E+00
          2   -1    0    0  502    0  0.00000000000E+00  0.00000000000E+00  0.27639014263E+03  0.27639014263E+03  0.00000000000E+00 0.  1.
          1   -1    0    0  501    0 -0.00000000000E+00 -0.00000000000E+00 -0.12219220015E+04  0.12219220015E+04  0.00000000000E+00 0. -1.
          2    1    1    2  501    0 -0.38139425582E+02 -0.45099726006E+02  0.10733827966E+03  0.12251574327E+03  0.00000000000E+00 0.  1.
          1    1    1    2  502    0 -0.29909197853E+02  0.90011608917E+01 -0.11799137788E+04  0.11803271184E+04  0.00000000000E+00 0. -1.
         22    1    1    2    0    0 -0.15765718023E+02 -0.34592886202E+02  0.23708089609E+02  0.44802892244E+02  0.00000000000E+00 0.  1.
         22    1    1    2    0    0  0.83814341458E+02  0.70691451316E+02  0.10333555064E+03  0.15066639024E+03  0.00000000000E+00 0.  1.
</event>
<event>
 6    1  0.2809573E-005  0.5649849E+02  0.7818608E-02  0.1428519E+00
          2   -1    0    0  502    0  0.00000000000E+00  0.00000000000E+00  0.34143078602E+02  0.34143078602E+02  0.00000000000E+00 0. -1.
          1   -1    0    0  501    0 -0.00000000000E+00 -0.00000000000E+00 -0.32205626891E+03  0.32205626891E+03  0.00000000000E+00 0. -1.
          2    1    1    2  501    0 -0.18729319856E+02  0.13325915148E+02 -0.18382498402E+02  0.29432697537E+02  0.00000000000E+00 0. -1.
          1    1    1    2  502    0  0.37732761489E+01  0.32228317569E+02 -0.11790904733E+03  0.12229245892E+03  0.00000000000E+00 0. -1.
         22    1    1    2    0    0 -0.92353824510E+01  0.17272674925E+02  0.15061788289E+02  0.24708198124E+02  0.00000000000E+00 0. -1.
         22    1    1    2    0    0  0.24191426158E+02 -0.62826907641E+02 -0.16668343287E+03  0.17976599294E+03  0.00000000000E+00 0. -1.
</event>
<event>
 6    1  0.2809573E-005  0.7243401E+02  0.7818608E-02  0.1466388E+00
          2   -1    0    0  502    0  0.00000000000E+00  0.00000000000E+00  0.10385394312E+03  0.10385394312E+03  0.00000000000E+00 0. -1.
          1   -1    0    0  501    0 -0.00000000000E+00 -0.00000000000E+00 -0.31983819646E+03  0.31983819646E+03  0.00000000000E+00 0. -1.
          2    1    1    2  501    0 -0.48897588286E+02  0.19455150883E+02 -0.22937964055E+03  0.23533910966E+03  0.00000000000E+00 0. -1.
          1    1    1    2  502    0  0.59062977162E+02 -0.28276753277E+01  0.19577606958E+02  0.62287347938E+02  0.00000000000E+00 0. -1.
         22    1    1    2    0    0 -0.18450653664E+02 -0.78207515823E+01 -0.63965340957E+02  0.67031004913E+02  0.00000000000E+00 0. -1.
         22    1    1    2    0    0  0.82852647885E+01 -0.88067239727E+01  0.57783121206E+02  0.59034677064E+02  0.00000000000E+00 0. -1.
</event>
<event>
 6    1  0.2809573E-005  0.1674350E+03  0.7818608E-02  0.1283625E+00
          2   -1    0    0  502    0  0.00000000000E+00  0.00000000000E+00  0.30232070647E+03  0.30232070647E+03  0.00000000000E+00 0.  1.
          1   -1    0    0  501    0 -0.00000000000E+00 -0.00000000000E+00 -0.13438142687E+03  0.13438142687E+03  0.00000000000E+00 0.  1.
          2    1    1    2  501    0 -0.68786689174E+02 -0.57086637014E+02 -0.46274249259E+02  0.10065683721E+03  0.00000000000E+00 0.  1.
          1    1    1    2  502    0  0.11875967477E+03  0.21541412135E+02  0.84437350651E+02  0.14730091301E+03  0.00000000000E+00 0.  1.
         22    1    1    2    0    0  0.17918980533E+02  0.88830323497E+01  0.11186363512E+03  0.11363745417E+03  0.00000000000E+00 0. -1.
         22    1    1    2    0    0 -0.67891966131E+02  0.26662192529E+02  0.17912543089E+02  0.75106928944E+02  0.00000000000E+00 0.  1.
</event>
<event>
 6    1  0.2809573E-005  0.3703785E+03  0.7818608E-02  0.1076721E+00
          2   -1    0    0  502    0  0.00000000000E+00  0.00000000000E+00  0.95603698508E+03  0.95603698508E+03  0.00000000000E+00 0. -1.
          1   -1    0    0  501    0 -0.00000000000E+00 -0.00000000000E+00 -0.31773069011E+03  0.31773069011E+03  0.00000000000E+00 0. -1.
          2    1    1    2  501    0 -0.19361492666E+03 -0.40143609306E+03  0.11796650199E+03  0.46103554335E+03  0.00000000000E+00 0. -1.
          1    1    1    2  502    0  0.26607576421E+02  0.31302127997E+03  0.89352559077E+02  0.32661011107E+03  0.00000000000E+00 0. -1.
         22    1    1    2    0    0  0.17030282003E+03  0.10574214954E+03  0.41988023472E+03  0.46527826535E+03  0.00000000000E+00 0. -1.
         22    1    1    2    0    0 -0.32954697924E+01 -0.17327336448E+02  0.11106999171E+02  0.20843755423E+02  0.00000000000E+00 0. -1.
</event>
<event>
 6    1  0.2809573E-005  0.1362555E+03  0.7818608E-02  0.1332345E+00
          2   -1    0    0  502    0  0.00000000000E+00  0.00000000000E+00  0.92631196704E+02  0.92631196704E+02  0.00000000000E+00 0.  1.
          1   -1    0    0  501    0 -0.00000000000E+00 -0.00000000000E+00 -0.62704473881E+03  0.62704473881E+03  0.00000000000E+00 0.  1.
          2    1    1    2  501    0 -0.10555630483E+03 -0.18138173423E+02 -0.25861331026E+03  0.27991422091E+03  0.00000000000E+00 0.  1.
          1    1    1    2  502    0  0.14280193060E+03  0.89378571786E+01 -0.27516537449E+03  0.31014232216E+03  0.00000000000E+00 0.  1.
         22    1    1    2    0    0 -0.22485352937E+02  0.52436289991E+01 -0.62115636877E+02  0.66267934074E+02  0.00000000000E+00 0.  1.
         22    1    1    2    0    0 -0.14760272831E+02  0.39566872450E+01  0.61480779521E+02  0.63351458377E+02  0.00000000000E+00 0.  1.
</event>
<event>
 6    1  0.2809573E-005  0.6899889E+02  0.7818608E-02  0.1365242E+00
          2   -1    0    0  502    0  0.00000000000E+00  0.00000000000E+00  0.32205701684E+02  0.32205701684E+02  0.00000000000E+00 0.  1.
          1   -1    0    0  501    0 -0.00000000000E+00 -0.00000000000E+00 -0.60066934238E+03  0.60066934238E+03  0.00000000000E+00 0.  1.
          2    1    1    2  501    0 -0.15685376196E+01  0.23856167983E+02 -0.40467016615E+02  0.47001664809E+02  0.00000000000E+00 0.  1.
          1    1    1    2  502    0  0.18225849363E+02 -0.99320000071E+01 -0.42276737281E+03  0.42327659718E+03  0.00000000000E+00 0.  1.
         22    1    1    2    0    0 -0.24990771535E+02  0.48873338368E+02 -0.73532134761E+02  0.91761193909E+02  0.00000000000E+00 0.  1.
         22    1    1    2    0    0  0.83334597920E+01 -0.62797506344E+02 -0.31697116505E+02  0.70835588159E+02  0.00000000000E+00 0.  1.
</event>
<event>
 6    1  0.2809573E-005  0.9551729E+02  0.7818608E-02  0.1319340E+00
          2   -1    0    0  502    0  0.00000000000E+00  0.00000000000E+00  0.62684554481E+03  0.62684554481E+03  0.00000000000E+00 0.  1.
          1   -1    0    0  501    0 -0.00000000000E+00 -0.00000000000E+00 -0.43979098839E+03  0.43979098839E+03  0.00000000000E+00 0. -1.
          2    1    1    2  501    0 -0.18417985636E+02  0.13003115358E+02  0.96071327777E+02  0.98681321560E+02  0.00000000000E+00 0.  1.
          1    1    1    2  502    0  0.24164018619E+02 -0.89937858920E+02 -0.42267308170E+03  0.43281087354E+03  0.00000000000E+00 0. -1.
         22    1    1    2    0    0  0.54792160805E+02  0.10793618066E+02  0.26488319045E+03  0.27070609092E+03  0.00000000000E+00 0.  1.
         22    1    1    2    0    0 -0.60538193788E+02  0.66141125497E+02  0.24877311989E+03  0.26443824718E+03  0.00000000000E+00 0.  1.
</event>
<event>
 6    1  0.2809573E-005  0.1443033E+03  0.7818608E-02  0.1244814E+00
          2   -1    0    0  502    0  0.00000000000E+00  0.00000000000E+00  0.70793187045E+03  0.70793187045E+03  0.00000000000E+00 0. -1.
          1   -1    0    0  501    0 -0.00000000000E+00 -0.00000000000E+00 -0.34816386726E+03  0.34816386726E+03  0.00000000000E+00 0.  1.
          2    1    1    2  501    0  0.71408204804E+02  0.74521646294E+01  0.17351381200E+03  0.18778101455E+03  0.00000000000E+00 0. -1.
          1    1    1    2  502    0 -0.20292540820E+02 -0.75320308589E+01 -0.33175433732E+03  0.33245971039E+03  0.00000000000E+00 0.  1.
         22    1    1    2    0    0 -0.24428712196E+02 -0.59944945150E+02  0.34012176426E+03  0.34622676522E+03  0.00000000000E+00 0. -1.
         22    1    1    2    0    0 -0.26686951789E+02  0.60024811380E+02  0.17788676425E+03  0.18962824756E+03  0.00000000000E+00 0.  1.
</event>
<event>
 6    1  0.2809573E-005  0.5806558E+02  0.7818608E-02  0.1407629E+00
          2   -1    0    0  502    0  0.00000000000E+00  0.00000000000E+00  0.63277885849E+02  0.63277885849E+02  0.00000000000E+00 0.  1.
          1   -1    0    0  501    0 -0.00000000000E+00 -0.00000000000E+00 -0.28118153410E+03  0.28118153410E+03  0.00000000000E+00 0.  1.
          2    1    1    2  501    0 -0.42512577095E+01  0.43309718641E+02 -0.14900119402E+03  0.15522615997E+03  0.00000000000E+00 0.  1.
          1    1    1    2  502    0  0.30168555154E+02 -0.10817178415E+02 -0.45439118413E+02  0.55604555129E+02  0.00000000000E+00 0.  1.
         22    1    1    2    0    0  0.24517093997E+02 -0.11885523491E+02 -0.61444548397E+02  0.67214478309E+02  0.00000000000E+00 0.  1.
         22    1    1    2    0    0 -0.50434391441E+02 -0.20607016735E+02  0.37981212572E+02  0.66414226543E+02  0.00000000000E+00 0.  1.
</event>
<event>
 6    1  0.2809573E-005  0.8982890E+02  0.7818608E-02  0.1305600E+00
          2   -1    0    0  502    0  0.00000000000E+00  0.00000000000E+00  0.77153133396E+02  0.77153133396E+02  0.00000000000E+00 0. -1.
          1   -1    0    0  501    0 -0.00000000000E+00 -0.00000000000E+00 -0.34813529000E+03  0.34813529000E+03  0.00000000000E+00 0. -1.
          2    1    1    2  501    0 -0.85851421957E+02  0.21301159049E+02 -0.80933372713E+02  0.11989335614E+03  0.00000000000E+00 0. -1.
          1    1    1    2  502    0  0.42591222962E+02  0.40522251081E+01 -0.15708935971E+03  0.16281123958E+03  0.00000000000E+00 0. -1.
         22    1    1    2    0    0 -0.29456666767E+02  0.75209811583E+01 -0.52278847840E+02  0.60475931626E+02  0.00000000000E+00 0. -1.
         22    1    1    2    0    0  0.72716865762E+02 -0.32874365316E+02  0.19319423660E+02  0.82107896038E+02  0.00000000000E+00 0. -1.
</event>
<event>
 6    1  0.2809573E-005  0.1369688E+03  0.7818608E-02  0.1291863E+00
          2   -1    0    0  502    0  0.00000000000E+00  0.00000000000E+00  0.19150494221E+03  0.19150494221E+03  0.00000000000E+00 0. -1.
          1   -1    0    0  501    0 -0.00000000000E+00 -0.00000000000E+00 -0.10797566269E+03  0.10797566269E+03  0.00000000000E+00 0. -1.
          2    1    1    2  501    0 -0.29494970817E+02 -0.53273517791E+02 -0.38379500274E+02  0.71979212573E+02  0.00000000000E+00 0. -1.
          1    1    1    2  502    0  0.86133061866E+01 -0.27246002019E+02 -0.51320897663E+01  0.29032258177E+02  0.00000000000E+00 0. -1.
         22    1    1    2    0    0 -0.18437469629E+02  0.26009135339E+02  0.12732639263E+03  0.13125709759E+03  0.00000000000E+00 0. -1.
         22    1    1    2    0    0  0.39319134260E+02  0.54510384471E+02 -0.28552306844E+00  0.67212036553E+02  0.00000000000E+00 0. -1.
</event>
<event>
 6    1  0.2809573E-005  0.1691644E+03  0.7818608E-02  0.1287200E+00
          2   -1    0    0  502    0  0.00000000000E+00  0.00000000000E+00  0.20603721419E+03  0.20603721419E+03  0.00000000000E+00 0. -1.
          1   -1    0    0  501    0 -0.00000000000E+00 -0.00000000000E+00 -0.19840573733E+03  0.19840573733E+03  0.00000000000E+00 0. -1.
          2    1    1    2  501    0  0.39632484742E+02 -0.96329133192E+02 -0.11483856295E+03  0.15504170822E+03  0.00000000000E+00 0. -1.
          1    1    1    2  502    0 -0.63350335278E+02  0.45965106827E+02  0.21031414758E+02  0.81045520740E+02  0.00000000000E+00 0. -1.
         22    1    1    2    0    0 -0.15690285315E+02  0.90795074692E+01  0.10925545716E+03  0.11074916446E+03  0.00000000000E+00 0. -1.
         22    1    1    2    0    0  0.39408135850E+02  0.41284518896E+02 -0.78168321013E+01  0.57606558097E+02  0.00000000000E+00 0.  1.
</event>
<event>
 6    1  0.3319456E-005  0.3087584E+03  0.7818608E-02  0.1186471E+00
          2   -1    0    0  502    0  0.00000000000E+00  0.00000000000E+00  0.11669706789E+03  0.11669706789E+03  0.00000000000E+00 0. -1.
          1   -1    0    0  501    0 -0.00000000000E+00 -0.00000000000E+00 -0.13836493556E+04  0.13836493556E+04  0.00000000000E+00 0.  1.
          2    1    1    2  501    0 -0.63215147549E+02  0.19079049016E+02 -0.19292934303E+03  0.20391639560E+03  0.00000000000E+00 0. -1.
          1    1    1    2  502    0 -0.16194600441E+02  0.25376491054E+02 -0.11320159852E+04  0.11324161876E+04  0.00000000000E+00 0.  1.
         22    1    1    2    0    0  0.21805164018E+02 -0.84689600187E+01 -0.39075321104E+02  0.45541949684E+02  0.00000000000E+00 0. -1.
         22    1    1    2    0    0  0.57604583972E+02 -0.35986580052E+02  0.97068361572E+02  0.11847189058E+03  0.00000000000E+00 0. -1.
</event>
<event>
 6    1  0.2809573E-005  0.1194319E+03  0.7818608E-02  0.1268447E+00
          2   -1    0    0  502    0  0.00000000000E+00  0.00000000000E+00  0.18830115700E+03  0.18830115700E+03  0.00000000000E+00 0.  1.
          1   -1    0    0  501    0 -0.00000000000E+00 -0.00000000000E+00 -0.30460807923E+03  0.30460807923E+03  0.00000000000E+00 0. -1.
          2    1    1    2  501    0  0.26689176238E+02  0.69901788444E+02  0.33502350083E+02  0.81981580962E+02  0.00000000000E+00 0.  1.
          1    1    1    2  502    0 -0.43635461686E+02 -0.16576464930E+02 -0.24160122321E+03  0.24606906299E+03  0.00000000000E+00 0. -1.
         22    1    1    2    0    0  0.67801278486E+02 -0.14752948329E+02  0.28631823816E+02  0.75062934820E+02  0.00000000000E+00 0.  1.
         22    1    1    2    0    0 -0.50854993038E+02 -0.38572375184E+02  0.63160127082E+02  0.89795657452E+02  0.00000000000E+00 0. -1.
</event>
<event>
 6    1  0.2809573E-005  0.1248958E+03  0.7818608E-02  0.1236840E+00
          2   -1    0    0  502    0  0.00000000000E+00  0.00000000000E+00  0.37006648272E+02  0.37006648272E+02  0.00000000000E+00 0. -1.
          1   -1    0    0  501    0 -0.00000000000E+00 -0.00000000000E+00 -0.79566013936E+03  0.79566013936E+03  0.00000000000E+00 0. -1.
          2    1    1    2  501    0  0.14330126566E+02 -0.10729539399E+03 -0.12482877887E+03  0.16522674764E+03  0.00000000000E+00 0. -1.
          1    1    1    2  502    0 -0.35520602353E+02  0.36265185591E+02 -0.28825653357E+03  0.29269216939E+03  0.00000000000E+00 0. -1.
         22    1    1    2    0    0  0.16157944727E+02 -0.24602919509E+02 -0.20507245499E+02  0.35873805822E+02  0.00000000000E+00 0.  1.
         22    1    1    2    0    0  0.50325310589E+01  0.95633127913E+02 -0.32506093314E+03  0.33887406478E+03  0.00000000000E+00 0. -1.
</event>
<event>
 6    1  0.2809573E-005  0.1527225E+03  0.7818608E-02  0.1223022E+00
          2   -1    0    0  502    0  0.00000000000E+00  0.00000000000E+00  0.10970469728E+04  0.10970469728E+04  0.00000000000E+00 0.  1.
          1   -1    0    0  501    0 -0.00000000000E+00 -0.00000000000E+00 -0.32906144165E+02  0.32906144165E+02  0.00000000000E+00 0.  1.
          2    1    1    2  501    0  0.85189175056E+02  0.55563004265E+02  0.61116364124E+03  0.61956875273E+03  0.00000000000E+00 0.  1.
          1    1    1    2  502    0 -0.56272280621E+02 -0.20906807629E+02  0.32616128301E+02  0.68318928540E+02  0.00000000000E+00 0.  1.
         22    1    1    2    0    0  0.42573851975E+02 -0.41762265344E+02  0.13128364738E+03  0.14419436794E+03  0.00000000000E+00 0.  1.
         22    1    1    2    0    0 -0.71490746410E+02  0.71060687076E+01  0.28907741171E+03  0.29787106774E+03  0.00000000000E+00 0.  1.
</event>
<event>
 6    1  0.2809573E-005  0.1930761E+03  0.7818608E-02  0.1235338E+00
          2   -1    0    0  502    0  0.00000000000E+00  0.00000000000E+00  0.11361921207E+03  0.11361921207E+03  0.00000000000E+00 0.  1.
          1   -1    0    0  501    0 -0.00000000000E+00 -0.00000000000E+00 -0.11700629521E+04  0.11700629521E+04  0.00000000000E+00 0. -1.
          2    1    1    2  501    0  0.89822398471E+02  0.66544095465E+01 -0.38725140495E+01  0.90151765365E+02  0.00000000000E+00 0.  1.
          1    1    1    2  502    0 -0.13170834202E+03  0.67660717948E+02 -0.10337125219E+04  0.10442636822E+04  0.00000000000E+00 0. -1.
         22    1    1    2    0    0  0.82564281745E+01 -0.71660432058E+02 -0.61571511473E+02  0.94839006501E+02  0.00000000000E+00 0. -1.
         22    1    1    2    0    0  0.33629515371E+02 -0.26546954365E+01  0.42712807373E+02  0.54427710090E+02  0.00000000000E+00 0.  1.
</event>
<event>
 6    1  0.2809573E-005  0.1068639E+03  0.7818608E-02  0.1278082E+00
          2   -1    0    0  502    0  0.00000000000E+00  0.00000000000E+00  0.69786360297E+02  0.69786360297E+02  0.00000000000E+00 0. -1.
          1   -1    0    0  501    0 -0.00000000000E+00 -0.00000000000E+00 -0.31429918869E+03  0.31429918869E+03  0.00000000000E+00 0. -1.
          2    1    1    2  501    0 -0.25218536033E+02  0.78152409797E+02 -0.45939134090E+02  0.94096640523E+02  0.00000000000E+00 0. -1.
          1    1    1    2  502    0  0.37138823381E+02 -0.59323199234E+02 -0.12393917142E+03  0.14233570311E+03  0.00000000000E+00 0. -1.
         22    1    1    2    0    0 -0.45697612750E+02 -0.58893356816E+02 -0.37636342965E+02  0.83505650107E+02  0.00000000000E+00 0. -1.
         22    1    1    2    0    0  0.33777325402E+02  0.40064146253E+02 -0.36998179922E+02  0.64147555244E+02  0.00000000000E+00 0. -1.
</event>
<event>
 6    1  0.2809573E-005  0.1929044E+03  0.7818608E-02  0.1196371E+00
          2   -1    0    0  502    0  0.00000000000E+00  0.00000000000E+00  0.20419502370E+03  0.20419502370E+03  0.00000000000E+00 0. -1.
          1   -1    0    0  501    0 -0.00000000000E+00 -0.00000000000E+00 -0.43307165827E+03  0.43307165827E+03  0.00000000000E+00 0. -1.
          2    1    1    2  501    0 -0.61025437765E+02 -0.10189329247E+02 -0.18102765460E+03  0.19130848966E+03  0.00000000000E+00 0. -1.
          1    1    1    2  502    0  0.48833161901E+02 -0.15687144971E+02 -0.22168573125E+03  0.22754192505E+03  0.00000000000E+00 0. -1.
         22    1    1    2    0    0  0.50374094319E+02  0.57059654146E+02  0.13754625850E+03  0.15720154814E+03  0.00000000000E+00 0. -1.
         22    1    1    2    0    0 -0.38181818455E+02 -0.31183179928E+02  0.36290492775E+02  0.61214719119E+02  0.00000000000E+00 0.  1.
</event>
<event>
 6    1  0.2809573E-005  0.1080419E+03  0.7818608E-02  0.1316899E+00
          2   -1    0    0  502    0  0.00000000000E+00  0.00000000000E+00  0.47342277486E+02  0.47342277486E+02  0.00000000000E+00 0. -1.
          1   -1    0    0  501    0 -0.00000000000E+00 -0.00000000000E+00 -0.24334278371E+03  0.24334278371E+03  0.00000000000E+00 0. -1.
          2    1    1    2  501    0  0.26253496717E+02  0.30785567318E+02 -0.97425840057E+01  0.41616285131E+02  0.00000000000E+00 0. -1.
          1    1    1    2  502    0 -0.32825843649E+02 -0.25897481837E+02 -0.64299201218E+02  0.76698128100E+02  0.00000000000E+00 0. -1.
         22    1    1    2    0    0  0.21618673354E+02 -0.42288303599E+02 -0.12320066736E+03  0.13203814637E+03  0.00000000000E+00 0. -1.
         22    1    1    2    0    0 -0.15046326421E+02  0.37400218118E+02  0.12419463611E+01  0.40332501594E+02  0.00000000000E+00 0. -1.
</event>
<event>
 6    1  0.2809573E-005  0.1283822E+03  0.7818608E-02  0.1246172E+00
          2   -1    0    0  502    0  0.00000000000E+00  0.00000000000E+00  0.24542544797E+03  0.24542544797E+03  0.00000000000E+00 0.  1.
          1   -1    0    0  501    0 -0.00000000000E+00 -0.00000000000E+00 -0.13566052023E+03  0.13566052023E+03  0.00000000000E+00 0.  1.
          2    1    1    2  501    0  0.72955571693E+01 -0.93718183200E+02  0.16476250296E+02  0.95434741266E+02  0.00000000000E+00 0.  1.
          1    1    1    2  502    0  0.56465327700E+02  0.99398495032E+02  0.83850176119E+02  0.14177180990E+03  0.00000000000E+00 0.  1.
         22    1    1    2    0    0 -0.86107980801E+02  0.32700749730E+02  0.27209574155E+02  0.96043137788E+02  0.00000000000E+00 0.  1.
         22    1    1    2    0    0  0.22347095932E+02 -0.38381061563E+02 -0.17771072832E+02  0.47836279254E+02  0.00000000000E+00 0.  1.
</event>
<event>
 6    1  0.2809573E-005  0.2142361E+03  0.7818608E-02  0.1246961E+00
          2   -1    0    0  502    0  0.00000000000E+00  0.00000000000E+00  0.28274127648E+03  0.28274127648E+03  0.00000000000E+00 0.  1.
          1   -1    0    0  501    0 -0.00000000000E+00 -0.00000000000E+00 -0.41490541261E+03  0.41490541261E+03  0.00000000000E+00 0. -1.
          2    1    1    2  501    0  0.49990495496E+02  0.20284972923E+02  0.14962895579E+02  0.55985873313E+02  0.00000000000E+00 0.  1.
          1    1    1    2  502    0  0.75616512332E+02 -0.10139590042E+03 -0.34228462262E+03  0.36490786295E+03  0.00000000000E+00 0. -1.
         22    1    1    2    0    0 -0.14168422409E+03  0.70058926039E+02  0.11821763564E+03  0.19737801765E+03  0.00000000000E+00 0.  1.
         22    1    1    2    0    0  0.16077216265E+02  0.11052001459E+02  0.76939955263E+02  0.79374935180E+02  0.00000000000E+00 0.  1.
</event>
<event>
 6    1  0.2809573E-005  0.1152920E+03  0.7818608E-02  0.1379941E+00
          2   -1    0    0  502    0  0.00000000000E+00  0.00000000000E+00  0.80057845155E+02  0.80057845155E+02  0.00000000000E+00 0. -1.
          1   -1    0    0  501    0 -0.00000000000E+00 -0.00000000000E+00 -0.14319825004E+04  0.14319825004E+04  0.00000000000E+00 0.  1.
          2    1    1    2  501    0  0.30149317790E+02 -0.52653382714E+02 -0.60420987245E+02  0.85627424194E+02  0.00000000000E+00 0. -1.
          1    1    1    2  502    0  0.23590827586E+02  0.18729408922E+02 -0.12881971843E+04  0.12885493020E+04  0.00000000000E+00 0.  1.
         22    1    1    2    0    0 -0.11055810521E+02  0.22347928835E+01  0.56633157498E+02  0.57745474054E+02  0.00000000000E+00 0. -1.
         22    1    1    2    0    0 -0.42684334855E+02  0.31689180908E+02 -0.59939641181E+02  0.80118145345E+02  0.00000000000E+00 0. -1.
</event>
<event>
 6    1  0.2809573E-005  0.3331606E+03  0.7818608E-02  0.1137428E+00
          2   -1    0    0  502    0  0.00000000000E+00  0.00000000000E+00  0.18320911843E+03  0.18320911843E+03  0.00000000000E+00 0.  1.
          1   -1    0    0  501    0 -0.00000000000E+00 -0.00000000000E+00 -0.70089726855E+03  0.70089726855E+03  0.00000000000E+00 0.  1.
          2    1    1    2  501    0 -0.22071158333E+03 -0.13808087979E+03 -0.15432398804E+03  0.30264802274E+03  0.00000000000E+00 0.  1.
          1    1    1    2  502    0  0.13547332660E+03  0.22626467208E+03 -0.29618667514E+03  0.39657946314E+03  0.00000000000E+00 0.  1.
         22    1    1    2    0    0  0.28010885178E+02 -0.78057755803E+02 -0.90053411957E+02  0.12242238331E+03  0.00000000000E+00 0. -1.
         22    1    1    2    0    0  0.57227371553E+02 -0.10126036490E+02  0.22875925021E+02  0.62456517798E+02  0.00000000000E+00 0.  1.
</event>
<event>
 6    1  0.2809573E-005  0.7620441E+02  0.7818608E-02  0.1342653E+00
          2   -1    0    0  502    0  0.00000000000E+00  0.00000000000E+00  0.77803176005E+02  0.77803176005E+02  0.00000000000E+00 0. -1.
          1   -1    0    0  501    0 -0.00000000000E+00 -0.00000000000E+00 -0.23743542139E+03  0.23743542139E+03  0.00000000000E+00 0. -1.
          2    1    1    2  501    0 -0.22315064921E+02 -0.61213689461E+02 -0.77317219361E+02  0.10110900212E+03  0.00000000000E+00 0. -1.
          1    1    1    2  502    0 -0.78496808648E+01  0.51483355049E+02  0.87019608377E+01  0.52800354727E+02  0.00000000000E+00 0. -1.
         22    1    1    2    0    0 -0.84049230876E+01 -0.44182645106E+02 -0.83203935030E+02  0.94581412895E+02  0.00000000000E+00 0. -1.
         22    1    1    2    0    0  0.38569668874E+02  0.53912979518E+02 -0.78130518305E+01  0.66747827653E+02  0.00000000000E+00 0. -1.
</event>
<event>
 6    1  0.2809573E-005  0.5441558E+02  0.7818608E-02  0.1424803E+00
          2   -1    0    0  502    0  0.00000000000E+00  0.00000000000E+00  0.27201589717E+02  0.27201589717E+02  0.00000000000E+00 0.  1.
          1   -1    0    0  501    0 -0.00000000000E+00 -0.00000000000E+00 -0.50376458476E+03  0.50376458476E+03  0.00000000000E+00 0.  1.
          2    1    1    2  501    0 -0.30853982666E+02  0.19947027002E+01 -0.23054705507E+03  0.23261103088E+03  0.00000000000E+00 0.  1.
          1    1    1    2  502    0  0.15098115234E+02 -0.19033400545E+02 -0.59545946351E+01  0.25013608640E+02  0.00000000000E+00 0.  1.
         22    1    1    2    0    0  0.84003892965E+01 -0.35435230846E+02 -0.10725254231E+02  0.37963840740E+02  0.00000000000E+00 0.  1.
         22    1    1    2    0    0  0.73554781354E+01  0.52473928691E+02 -0.22933609111E+03  0.23537769422E+03  0.00000000000E+00 0.  1.
</event>
<event>
 6    1  0.2809573E-005  0.5030015E+02  0.7818608E-02  0.1516428E+00
          2   -1    0    0  502    0  0.00000000000E+00  0.00000000000E+00  0.62952693997E+02  0.62952693997E+02  0.00000000000E+00 0.  1.
          1   -1    0    0  501    0 -0.00000000000E+00 -0.00000000000E+00 -0.59995926392E+03  0.59995926392E+03  0.00000000000E+00 0.  1.
          2    1    1    2  501    0  0.40341364067E+02 -0.13608330084E+02 -0.40092896522E+03  0.40318314381E+03  0.00000000000E+00 0.  1.
          1    1    1    2  502    0 -0.36868082226E+02  0.85076036553E+01 -0.13373747677E+03  0.13898686089E+03  0.00000000000E+00 0.  1.
         22    1    1    2    0    0 -0.11798061613E+02  0.13596435564E+02  0.57230782147E+02  0.59995164331E+02  0.00000000000E+00 0.  1.
         22    1    1    2    0    0  0.83247797731E+01 -0.84957091351E+01 -0.59570910083E+02  0.60746788887E+02  0.00000000000E+00 0. -1.
</event>
<event>
 6    1  0.2809573E-005  0.1215107E+03  0.7818608E-02  0.1241262E+00
          2   -1    0    0  502    0  0.00000000000E+00  0.00000000000E+00  0.50971616856E+02  0.50971616856E+02  0.00000000000E+00 0. -1.
          1   -1    0    0  501    0 -0.00000000000E+00 -0.00000000000E+00 -0.18300085797E+04  0.18300085797E+04  0.00000000000E+00 0. -1.
          2    1    1    2  501    0 -0.85345257844E+02  0.84975017109E+02 -0.88766333774E+03  0.89579616417E+03  0.00000000000E+00 0. -1.
          1    1    1    2  502    0  0.10576391211E+03  0.24521434419E+02 -0.76825581211E+03  0.77588935982E+03  0.00000000000E+00 0. -1.
         22    1    1    2    0    0 -0.45018923072E+01  0.12304886083E+02 -0.76966876456E+02  0.78074178364E+02  0.00000000000E+00 0.  1.
         22    1    1    2    0    0 -0.15916761955E+02 -0.12180133761E+03 -0.46150936541E+02  0.13122049420E+03  0.00000000000E+00 0. -1.
</event>
<event>
 6    1  0.2809573E-005  0.1091135E+03  0.7818608E-02  0.1276134E+00
          2   -1    0    0  502    0  0.00000000000E+00  0.00000000000E+00  0.29471976390E+03  0.29471976390E+03  0.00000000000E+00 0. -1.
          1   -1    0    0  501    0 -0.00000000000E+00 -0.00000000000E+00 -0.25368769920E+03  0.25368769920E+03  0.00000000000E+00 0. -1.
          2    1    1    2  501    0 -0.11107638388E+02  0.50562206016E+02  0.99210358889E+02  0.11190447542E+03  0.00000000000E+00 0. -1.
          1    1    1    2  502    0  0.78980179428E+02 -0.75209017831E+02 -0.20251777864E+03  0.23001677281E+03  0.00000000000E+00 0. -1.
         22    1    1    2    0    0 -0.78062337081E+02 -0.29190813235E+02  0.49436168946E+02  0.96900809326E+02  0.00000000000E+00 0. -1.
         22    1    1    2    0    0  0.10189796041E+02  0.53837625049E+02  0.94903315514E+02  0.10958540555E+03  0.00000000000E+00 0. -1.
</event>
<event>
 6    1  0.2809573E-005  0.8728107E+02  0.7818608E-02  0.1348082E+00
          2   -1    0    0  502    0  0.00000000000E+00  0.00000000000E+00  0.48729380331E+03  0.48729380331E+03  0.00000000000E+00 0.  1.
          1   -1    0    0  501    0 -0.00000000000E+00 -0.00000000000E+00 -0.35572570179E+03  0.35572570179E+03  0.00000000000E+00 0.  1.
          2    1    1    2  501    0  0.41212819359E+02  0.13522740713E+02  0.79424540210E+02  0.90496511443E+02  0.00000000000E+00 0.  1.
          1    1    1    2  502    0 -0.65108039237E+02 -0.34952574626E+01 -0.33713005122E+03  0.34337726341E+03  0.00000000000E+00 0.  1.
         22    1    1    2    0    0  0.51006079613E+02  0.24967142837E+02  0.33167343478E+03  0.33649999364E+03  0.00000000000E+00 0.  1.
         22    1    1    2    0    0 -0.27110859735E+02 -0.34994626087E+02  0.57600177749E+02  0.72645736608E+02  0.00000000000E+00 0.  1.
</event>
<event>
 6    1  0.2809573E-005  0.4497528E+03  0.7818608E-02  0.1153243E+00
          2   -1    0    0  502    0  0.00000000000E+00  0.00000000000E+00  0.29074885054E+03  0.29074885054E+03  0.00000000000E+00 0. -1.
          1   -1    0    0  501    0 -0.00000000000E+00 -0.00000000000E+00 -0.15033027893E+04  0.15033027893E+04  0.00000000000E+00 0.  1.
          2    1    1    2  501    0 -0.20820775895E+03 -0.19223255499E+03 -0.48981650830E+02  0.28758134189E+03  0.00000000000E+00 0. -1.
          1    1    1    2  502    0  0.34928240703E+03  0.94999980804E+02 -0.12314004102E+04  0.12834991884E+04  0.00000000000E+00 0.  1.
         22    1    1    2    0    0 -0.14876193011E+03  0.82984554640E+02  0.18844745731E+02  0.17138165771E+03  0.00000000000E+00 0. -1.
         22    1    1    2    0    0  0.76872820338E+01  0.14248019543E+02  0.48983376566E+02  0.51589451885E+02  0.00000000000E+00 0.  1.
</event>
<event>
 6    1  0.2809573E-005  0.2362693E+03  0.7818608E-02  0.1143940E+00
          2   -1    0    0  502    0  0.00000000000E+00  0.00000000000E+00  0.23326497679E+03  0.23326497679E+03  0.00000000000E+00 0.  1.
          1   -1    0    0  501    0 -0.00000000000E+00 -0.00000000000E+00 -0.73135874654E+03  0.73135874654E+03  0.00000000000E+00 0.  1.
          2    1    1    2  501    0  0.23490305737E+02 -0.13901517874E+03 -0.33041961326E+02  0.14480602747E+03  0.00000000000E+00 0.  1.
          1    1    1    2  502    0  0.58776331799E+02 -0.16810299849E+02 -0.57347161003E+03  0.57672084311E+03  0.00000000000E+00 0.  1.
         22    1    1    2    0    0  0.27017585432E+02  0.40969389361E+02  0.59611326670E+02  0.77213671422E+02  0.00000000000E+00 0. -1.
         22    1    1    2    0    0 -0.10928422297E+03  0.11485608923E+03  0.48808474932E+02  0.16588318133E+03  0.00000000000E+00 0. -1.
</event>
<event>
 6    1  0.2809573E-005  0.7454450E+02  0.7818608E-02  0.1349756E+00
          2   -1    0    0  502    0  0.00000000000E+00  0.00000000000E+00  0.55232306095E+03  0.55232306095E+03  0.00000000000E+00 0. -1.
          1   -1    0    0  501    0 -0.00000000000E+00 -0.00000000000E+00 -0.15399842579E+03  0.15399842579E+03  0.00000000000E+00 0.  1.
          2    1    1    2  501    0 -0.30019707292E+02  0.32074050649E+02  0.62626888374E+02  0.76498723507E+02  0.00000000000E+00 0. -1.
          1    1    1    2  502    0  0.24706968577E+02 -0.14237407099E+02 -0.13700124538E+03  0.13993741206E+03  0.00000000000E+00 0.  1.
         22    1    1    2    0    0 -0.82809727586E+01  0.46275083924E+02  0.89227507437E+02  0.10085388433E+03  0.00000000000E+00 0. -1.
         22    1    1    2    0    0  0.13593711474E+02 -0.64111727474E+02  0.38347148473E+03  0.38903146684E+03  0.00000000000E+00 0.  1.
</event>
<event>
 6    1  0.2809573E-005  0.1670409E+03  0.7818608E-02  0.1182055E+00
          2   -1    0    0  502    0  0.00000000000E+00  0.00000000000E+00  0.22605621399E+03  0.22605621399E+03  0.00000000000E+00 0. -1.
          1   -1    0    0  501    0 -0.00000000000E+00 -0.00000000000E+00 -0.10225109034E+04  0.10225109034E+04  0.00000000000E+00 0. -1.
          2    1    1    2  501    0  0.21163975462E+03 -0.21457819352E+02 -0.61706475138E+02  0.22149382118E+03  0.00000000000E+00 0. -1.
          1    1    1    2  502    0 -0.10448212827E+03  0.89064545948E+02 -0.82057823154E+03  0.83198416004E+03  0.00000000000E+00 0. -1.
         22    1    1    2    0    0  0.24147085592E+02  0.35088986605E+01  0.37380910503E+01  0.24685368887E+02  0.00000000000E+00 0. -1.
         22    1    1    2    0    0 -0.13130471195E+03 -0.71115625256E+02  0.82091926251E+02  0.17040376724E+03  0.00000000000E+00 0. -1.
</event>
<event>
 6    1  0.2809573E-005  0.3997727E+03  0.7818608E-02  0.1086904E+00
          2   -1    0    0  502    0  0.00000000000E+00  0.00000000000E+00  0.19917109197E+03  0.19917109197E+03  0.00000000000E+00 0. -1.
          1   -1    0    0  501    0 -0.00000000000E+00 -0.00000000000E+00 -0.16649792208E+04  0.16649792208E+04  0.00000000000E+00 0. -1.
          2    1    1    2  501    0 -0.29283668480E+03 -0.22629371066E+03 -0.12756697930E+04  0.13282678902E+04  0.00000000000E+00 0. -1.
          1    1    1    2  502    0  0.20505343993E+03  0.26471043151E+03 -0.17993403766E+03  0.38012469491E+03  0.00000000000E+00 0. -1.
         22    1    1    2    0    0  0.11055242140E+03 -0.49878790912E+02  0.12100256015E+02  0.12188579842E+03  0.00000000000E+00 0. -1.
         22    1    1    2    0    0 -0.22769176535E+02  0.11462070063E+02 -0.22304554171E+02  0.33871929189E+02  0.00000000000E+00 0. -1.
</event>
<event>
 6    1  0.2809573E-005  0.5687559E+02  0.7818608E-02  0.1442474E+00
          2   -1    0    0  502    0  0.00000000000E+00  0.00000000000E+00  0.15298816720E+03  0.15298816720E+03  0.00000000000E+00 0.  1.
          1   -1    0    0  501    0 -0.00000000000E+00 -0.00000000000E+00 -0.11450407854E+03  0.11450407854E+03  0.00000000000E+00 0. -1.
          2    1    1    2  501    0  0.63184121313E+01  0.39215008805E+02 -0.68399097471E+00  0.39726654668E+02  0.00000000000E+00 0.  1.
          1    1    1    2  502    0 -0.20106238253E+02 -0.39289722943E+02 -0.55810359952E+02  0.71152929831E+02  0.00000000000E+00 0. -1.
         22    1    1    2    0    0 -0.16413044696E+02 -0.31421002637E+02  0.10586236813E+03  0.11164008433E+03  0.00000000000E+00 0.  1.
         22    1    1    2    0    0  0.30200870818E+02  0.31495716775E+02 -0.10883928538E+02  0.44972576908E+02  0.00000000000E+00 0.  1.
</event>
<event>
 6    1  0.2809573E-005  0.1242264E+03  0.7818608E-02  0.1299916E+00
          2   -1    0    0  502    0  0.00000000000E+00  0.00000000000E+00  0.65645350268E+03  0.65645350268E+03  0.00000000000E+00 0. -1.
          1   -1    0    0  501    0 -0.00000000000E+00 -0.00000000000E+00 -0.43067696010E+02  0.43067696010E+02  0.00000000000E+00 0.  1.
          2    1    1    2  501    0 -0.10598212341E+02 -0.42994835773E+02  0.21156989421E+03  0.21615433871E+03  0.00000000000E+00 0. -1.
          1    1    1    2  502    0  0.15585063479E+02 -0.34814279105E+02 -0.16056614247E+02  0.41385300462E+02  0.00000000000E+00 0.  1.
         22    1    1    2    0    0 -0.42196270625E+02  0.60528384773E+01  0.51768656248E+02  0.67060837140E+02  0.00000000000E+00 0. -1.
         22    1    1    2    0    0  0.37209419486E+02  0.71756276401E+02  0.36610387046E+03  0.37492072238E+03  0.00000000000E+00 0. -1.
</event>
<event>
 6    1  0.2809573E-005  0.3604208E+02  0.7818608E-02  0.1560271E+00
          2   -1    0    0  502    0  0.00000000000E+00  0.00000000000E+00  0.10690711777E+03  0.10690711777E+03  0.00000000000E+00 0. -1.
          1   -1    0    0  501    0 -0.00000000000E+00 -0.00000000000E+00 -0.23419465862E+03  0.23419465862E+03  0.00000000000E+00 0.  1.
          2    1    1    2  501    0 -0.50096294275E+01 -0.21206302764E+02 -0.15008664570E+02  0.26458716448E+02  0.00000000000E+00 0. -1.
          1    1    1    2  502    0 -0.20970461584E+02  0.23754126112E+02 -0.17410161574E+03  0.17696155337E+03  0.00000000000E+00 0.  1.
         22    1    1    2    0    0  0.18626912876E+02  0.20384202614E+02  0.93726281018E+02  0.97709228596E+02  0.00000000000E+00 0. -1.
         22    1    1    2    0    0  0.73531781358E+01 -0.22932025963E+02 -0.31903541557E+02  0.39972277986E+02  0.00000000000E+00 0. -1.
</event>
<event>
 6    1  0.2809573E-005  0.1442242E+03  0.7818608E-02  0.1296956E+00
          2   -1    0    0  502    0  0.00000000000E+00  0.00000000000E+00  0.13269664251E+03  0.13269664251E+03  0.00000000000E+00 0. -1.
          1   -1    0    0  501    0 -0.00000000000E+00 -0.00000000000E+00 -0.23463249960E+03  0.23463249960E+03  0.00000000000E+00 0. -1.
          2    1    1    2  501    0  0.68807631428E+02 -0.56211174503E+02 -0.15686387355E+03  0.18027884265E+03  0.00000000000E+00 0. -1.
          1    1    1    2  502    0 -0.47322097630E+02  0.11335230831E+02  0.16978786704E+02  0.51537826691E+02  0.00000000000E+00 0. -1.
         22    1    1    2    0    0 -0.38988372300E+02  0.27901363300E+02 -0.34502727628E+02  0.59067905519E+02  0.00000000000E+00 0. -1.
         22    1    1    2    0    0  0.17502838502E+02  0.16974580373E+02  0.72451957378E+02  0.76444567252E+02  0.00000000000E+00 0. -1.
</event>
<event>
 6    1  0.2809573E-005  0.9814372E+02  0.7818608E-02  0.1285805E+00
          2   -1    0    0  502    0  0.00000000000E+00  0.00000000000E+00  0.13640517748E+03  0.13640517748E+03  0.00000000000E+00 0. -1.
          1   -1    0    0  501    0 -0.00000000000E+00 -0.00000000000E+00 -0.32254894846E+04  0.32254894846E+04  0.00000000000E+00 0.  1.
          2    1    1    2  501    0  0.64764785022E+02  0.23662126479E+02  0.27719345681E+02  0.74315111071E+02  0.00000000000E+00 0. -1.
          1    1    1    2  502    0 -0.37429346304E+02 -0.41384978958E+02 -0.31507231217E+04  0.31512172033E+04  0.00000000000E+00 0.  1.
         22    1    1    2    0    0 -0.76083159875E+02  0.17043970121E+02  0.18176971414E+01  0.77990051654E+02  0.00000000000E+00 0. -1.
         22    1    1    2    0    0  0.48747721157E+02  0.67888235740E+00  0.32101771777E+02  0.58372296087E+02  0.00000000000E+00 0.  1.
</event>
<event>
 6    1  0.2809573E-005  0.2484052E+03  0.7818608E-02  0.1203659E+00
          2   -1    0    0  502    0  0.00000000000E+00  0.00000000000E+00  0.85861455218E+02  0.85861455218E+02  0.00000000000E+00 0. -1.
          1   -1    0    0  501    0 -0.00000000000E+00 -0.00000000000E+00 -0.74607816717E+03  0.74607816717E+03  0.00000000000E+00 0. -1.
          2    1    1    2  501    0 -0.88928284861E+02 -0.13736496098E+02 -0.10260357811E+03  0.13647133551E+03  0.00000000000E+00 0. -1.
          1    1    1    2  502    0  0.28700991202E+01  0.15096108688E+03 -0.42785628670E+03  0.45371630926E+03  0.00000000000E+00 0. -1.
         22    1    1    2    0    0  0.61329607714E+02 -0.15563168317E+03 -0.12843153145E+03  0.21089618265E+03  0.00000000000E+00 0. -1.
         22    1    1    2    0    0  0.24728578026E+02  0.18407092385E+02 -0.13253156875E+01  0.30855794965E+02  0.00000000000E+00 0.  1.
</event>
<event>
 6    1  0.2809573E-005  0.1044848E+03  0.7818608E-02  0.1309617E+00
          2   -1    0    0  502    0  0.00000000000E+00  0.00000000000E+00  0.62564569555E+03  0.62564569555E+03  0.00000000000E+00 0.  1.
          1   -1    0    0  501    0 -0.00000000000E+00 -0.00000000000E+00 -0.82156716901E+03  0.82156716901E+03  0.00000000000E+00 0. -1.
          2    1    1    2  501    0 -0.20480368538E+01 -0.32379527915E+02  0.20434613865E+03  0.20690570960E+03  0.00000000000E+00 0.  1.
          1    1    1    2  502    0 -0.11349190117E+02  0.25685286208E+02 -0.81105737284E+03  0.81154334454E+03  0.00000000000E+00 0. -1.
         22    1    1    2    0    0 -0.37366578354E+02 -0.39191598510E+02  0.16763864890E+03  0.17616741803E+03  0.00000000000E+00 0.  1.
         22    1    1    2    0    0  0.50763805325E+02  0.45885840217E+02  0.24315111183E+03  0.25259639238E+03  0.00000000000E+00 0. -1.
</event>
<event>
 6    1  0.2809573E-005  0.1096952E+03  0.7818608E-02  0.1263392E+00
          2   -1    0    0  502    0  0.00000000000E+00  0.00000000000E+00  0.11720396726E+03  0.11720396726E+03  0.00000000000E+00 0.  1.
          1   -1    0    0  501    0 -0.00000000000E+00 -0.00000000000E+00 -0.16037861694E+03  0.16037861694E+03  0.00000000000E+00 0.  1.
          2    1    1    2  501    0 -0.29149771376E+02 -0.51599238981E+02 -0.26281916543E+02  0.64830006724E+02  0.00000000000E+00 0.  1.
          1    1    1    2  502    0  0.11883733277E+01 -0.22538665543E+02 -0.54737285903E+02  0.59207889201E+02  0.00000000000E+00 0.  1.
         22    1    1    2    0    0  0.53189025295E+02  0.99590941913E+02  0.30677890820E+02  0.11699812438E+03  0.00000000000E+00 0.  1.
         22    1    1    2    0    0 -0.25227627246E+02 -0.25453037389E+02  0.71666619449E+01  0.36546563891E+02  0.00000000000E+00 0.  1.
</event>
<event>
 6    1  0.2809573E-005  0.3497358E+02  0.7818608E-02  0.1556059E+00
          2   -1    0    0  502    0  0.00000000000E+00  0.00000000000E+00  0.63065423111E+02  0.63065423111E+02  0.00000000000E+00 0.  1.
          1   -1    0    0  501    0 -0.00000000000E+00 -0.00000000000E+00 -0.21831653292E+03  0.21831653292E+03  0.00000000000E+00 0. -1.
          2    1    1    2  501    0 -0.10102388916E+02 -0.29823979838E+02 -0.43035189008E+02  0.53324999092E+02  0.00000000000E+00 0.  1.
          1    1    1    2  502    0  0.84087229013E+01  0.27686700150E+02 -0.10248326666E+03  0.10648981139E+03  0.00000000000E+00 0. -1.
         22    1    1    2    0    0  0.47775909207E+00 -0.28613288375E+02 -0.57797590095E+02  0.64494262894E+02  0.00000000000E+00 0.  1.
         22    1    1    2    0    0  0.12159069229E+01  0.30750568063E+02  0.48064935953E+02  0.57072882650E+02  0.00000000000E+00 0.  1.
</event>
<event>
 6    1  0.2809573E-005  0.1421821E+03  0.7818608E-02  0.1225109E+00
          2   -1    0    0  502    0  0.00000000000E+00  0.00000000000E+00  0.19747751019E+03  0.19747751019E+03  0.00000000000E+00 0. -1.
          1   -1    0    0  501    0 -0.00000000000E+00 -0.00000000000E+00 -0.15140114148E+03  0.15140114148E+03  0.00000000000E+00 0. -1.
          2    1    1    2  501    0 -0.74068085882E+02 -0.19935700391E+02 -0.88034462582E+02  0.11676292262E+03  0.00000000000E+00 0. -1.
          1    1    1    2  502    0  0.19905043434E+02 -0.23468295936E+02  0.73285071902E+02  0.79483793517E+02  0.00000000000E+00 0. -1.
         22    1    1    2    0    0 -0.24741034072E+02 -0.24515065302E+02  0.23576843256E+02  0.42059181301E+02  0.00000000000E+00 0. -1.
         22    1    1    2    0    0  0.78904076519E+02  0.67919061629E+02  0.37248916135E+02  0.11057275423E+03  0.00000000000E+00 0. -1.
</event>
<event>
 6    1  0.2809573E-005  0.6189663E+02  0.7818608E-02  0.1396580E+00
          2   -1    0    0  502    0  0.00000000000E+00  0.00000000000E+00  0.14673293461E+03  0.14673293461E+03  0.00000000000E+00 0. -1.
          1   -1    0    0  501    0 -0.00000000000E+00 -0.00000000000E+00 -0.65678251548E+03  0.65678251548E+03  0.00000000000E+00 0. -1.
          2    1    1    2  501    0 -0.19103182429E+02  0.12721837736E+02  0.70104891789E+01  0.23998410215E+02  0.00000000000E+00 0. -1.
          1    1    1    2  502    0  0.38630943211E+02  0.69341441181E+01 -0.61773672947E+03  0.61898230917E+03  0.00000000000E+00 0. -1.
         22    1    1    2    0    0 -0.66696021783E+02 -0.70195319384E+01  0.27329209292E+02  0.72419050193E+02  0.00000000000E+00 0. -1.
         22    1    1    2    0    0  0.47168261001E+02 -0.12636449916E+02  0.73347450123E+02  0.88115680511E+02  0.00000000000E+00 0. -1.
</event>
<event>
 6    1  0.2809573E-005  0.8053020E+02  0.7818608E-02  0.1359826E+00
          2   -1    0    0  502    0  0.00000000000E+00  0.00000000000E+00  0.34232130637E+03  0.34232130637E+03  0.00000000000E+00 0.  1.
          1   -1    0    0  501    0 -0.00000000000E+00 -0.00000000000E+00 -0.69724568431E+03  0.69724568431E+03  0.00000000000E+00 0. -1.
          2    1    1    2  501    0  0.22095788186E+02 -0.16753035773E+02  0.21757375190E+02  0.35245871224E+02  0.00000000000E+00 0.  1.
          1    1    1    2  502    0 -0.58324749490E+02  0.43539678396E+02 -0.67371547502E+03  0.67763561099E+03  0.00000000000E+00 0. -1.
         22    1    1    2    0    0  0.36557247156E+02  0.28218855365E+02  0.25024692193E+03  0.25447250942E+03  0.00000000000E+00 0.  1.
         22    1    1    2    0    0 -0.32828585174E+00 -0.55005497988E+02  0.46786799970E+02  0.72212999051E+02  0.00000000000E+00 0.  1.
</event>
<event>
 6    1  0.2809573E-005  0.8670403E+02  0.7818608E-02  0.1317598E+00
          2   -1    0    0  502    0  0.00000000000E+00  0.00000000000E+00  0.55128072896E+03  0.55128072896E+03  0.00000000000E+00 0. -1.
          1   -1    0    0  501    0 -0.00000000000E+00 -0.00000000000E+00 -0.85495036965E+02  0.85495036965E+02  0.00000000000E+00 0. -1.
          2    1    1    2  501    0 -0.19673370275E+02 -0.20960876327E+02  0.61499529274E+02  0.67886610869E+02  0.00000000000E+00 0. -1.
          1    1    1    2  502    0 -0.33777387803E+02  0.11242388099E+01 -0.68575147378E+02  0.76450812145E+02  0.00000000000E+00 0. -1.
         22    1    1    2    0    0  0.13800127574E+02 -0.52232366845E+02  0.15668514155E+03  0.16573743466E+03  0.00000000000E+00 0. -1.
         22    1    1    2    0    0  0.39650630504E+02  0.72069004362E+02  0.31617616856E+03  0.32670090825E+03  0.00000000000E+00 0. -1.
</event>
<event>
 6    1  0.2809573E-005  0.9594199E+02  0.7818608E-02  0.1328450E+00
          2   -1    0    0  502    0  0.00000000000E+00  0.00000000000E+00  0.37203806924E+02  0.37203806924E+02  0.00000000000E+00 0.  1.
          1   -1    0    0  501    0 -0.00000000000E+00 -0.00000000000E+00 -0.31595038439E+03  0.31595038439E+03  0.00000000000E+00 0.  1.
          2    1    1    2  501    0  0.37708593451E+02  0.30875001151E+02 -0.83338702036E+02  0.96542959211E+02  0.00000000000E+00 0.  1.
          1    1    1    2  502    0 -0.28192562536E+02  0.46401493338E+01 -0.57435672240E+02  0.64149887091E+02  0.00000000000E+00 0.  1.
         22    1    1    2    0    0 -0.40840352460E+02  0.17111712822E+02 -0.31634980393E+01  0.44393161913E+02  0.00000000000E+00 0.  1.
         22    1    1    2    0    0  0.31324321545E+02 -0.52626863307E+02 -0.13480870515E+03  0.14806818310E+03  0.00000000000E+00 0.  1.
</event>
<event>
 6    1  0.2809573E-005  0.1331361E+03  0.7818608E-02  0.1294749E+00
          2   -1    0    0  502    0  0.00000000000E+00  0.00000000000E+00  0.62774949079E+02  0.62774949079E+02  0.00000000000E+00 0.  1.
          1   -1    0    0  501    0 -0.00000000000E+00 -0.00000000000E+00 -0.69764836572E+03  0.69764836572E+03  0.00000000000E+00 0.  1.
          2    1    1    2  501    0 -0.33494526433E+02  0.32087079942E+02 -0.53814135424E+03  0.54013663192E+03  0.00000000000E+00 0.  1.
          1    1    1    2  502    0  0.75774121343E+01  0.40871474093E+02 -0.51624797964E+02  0.66279818452E+02  0.00000000000E+00 0.  1.
         22    1    1    2    0    0  0.18959148933E+02 -0.26139036882E+02  0.43128185792E+02  0.53877072927E+02  0.00000000000E+00 0.  1.
         22    1    1    2    0    0  0.69579653659E+01 -0.46819517153E+02 -0.88235450227E+02  0.10012979150E+03  0.00000000000E+00 0. -1.
</event>
<event>
 6    1  0.2809573E-005  0.6989657E+02  0.7818608E-02  0.1437807E+00
          2   -1    0    0  502    0  0.00000000000E+00  0.00000000000E+00  0.39460241395E+02  0.39460241395E+02  0.00000000000E+00 0. -1.
          1   -1    0    0  501    0 -0.00000000000E+00 -0.00000000000E+00 -0.26026193075E+03  0.26026193075E+03  0.00000000000E+00 0. -1.
          2    1    1    2  501    0 -0.24438130778E+02  0.19908618998E+02 -0.10618723972E+03  0.11076689589E+03  0.00000000000E+00 0. -1.
          1    1    1    2  502    0  0.29030061729E+00 -0.21667657505E+02 -0.25150855198E+02  0.33198451371E+02  0.00000000000E+00 0. -1.
         22    1    1    2    0    0 -0.15989049471E+02 -0.12795957883E+02  0.25742111565E+02  0.32894415164E+02  0.00000000000E+00 0. -1.
         22    1    1    2    0    0  0.40136879632E+02  0.14554996390E+02 -0.11520570600E+03  0.12286240971E+03  0.00000000000E+00 0. -1.
</event>
<event>
 6    1  0.2809573E-005  0.7341365E+02  0.7818608E-02  0.1410272E+00
          2   -1    0    0  502    0  0.00000000000E+00  0.00000000000E+00  0.81275512861E+02  0.81275512861E+02  0.00000000000E+00 0.  1.
          1   -1    0    0  501    0 -0.00000000000E+00 -0.00000000000E+00 -0.47750638911E+03  0.47750638911E+03  0.00000000000E+00 0.  1.
          2    1    1    2  501    0 -0.18672700654E+02 -0.80832330232E+01 -0.62333550724E+02  0.65570419792E+02  0.00000000000E+00 0.  1.
          1    1    1    2  502    0  0.11256775066E+02  0.66455649942E+02 -0.35115362694E+03  0.35756389374E+03  0.00000000000E+00 0.  1.
         22    1    1    2    0    0 -0.12788722832E+02 -0.40568954560E+02 -0.48547637267E+02  0.64546607889E+02  0.00000000000E+00 0.  1.
         22    1    1    2    0    0  0.20204648419E+02 -0.17803462359E+02  0.65803938679E+02  0.71100980552E+02  0.00000000000E+00 0.  1.
</event>
<event>
 6    1  0.2809573E-005  0.1897349E+03  0.7818608E-02  0.1223859E+00
          2   -1    0    0  502    0  0.00000000000E+00  0.00000000000E+00  0.52563613910E+02  0.52563613910E+02  0.00000000000E+00 0. -1.
          1   -1    0    0  501    0 -0.00000000000E+00 -0.00000000000E+00 -0.13420254854E+04  0.13420254854E+04  0.00000000000E+00 0. -1.
          2    1    1    2  501    0 -0.65812779498E+02 -0.35526729510E+02 -0.22004606848E+03  0.23240856850E+03  0.00000000000E+00 0. -1.
          1    1    1    2  502    0  0.13112078732E+03  0.49909768427E+02 -0.99058691196E+03  0.10004729262E+04  0.00000000000E+00 0. -1.
         22    1    1    2    0    0 -0.93674286033E+02  0.20631675451E+02 -0.57703928036E+02  0.11193873863E+03  0.00000000000E+00 0. -1.
         22    1    1    2    0    0  0.28366278214E+02 -0.35014714368E+02 -0.21124963010E+02  0.49768866013E+02  0.00000000000E+00 0.  1.
</event>
<event>
 6    1  0.2809573E-005  0.2986552E+03  0.7818608E-02  0.1213721E+00
          2   -1    0    0  502    0  0.00000000000E+00  0.00000000000E+00  0.10793183408E+03  0.10793183408E+03  0.00000000000E+00 0. -1.
          1   -1    0    0  501    0 -0.00000000000E+00 -0.00000000000E+00 -0.75795550505E+03  0.75795550505E+03  0.00000000000E+00 0. -1.
          2    1    1    2  501    0 -0.51266378396E+02 -0.19060820006E+03 -0.99823070540E+02  0.22118854603E+03  0.00000000000E+00 0. -1.
          1    1    1    2  502    0  0.38685347066E+01  0.18394779798E+03 -0.40479318687E+03  0.44464511925E+03  0.00000000000E+00 0. -1.
         22    1    1    2    0    0  0.46380915649E+02  0.20925984901E+02 -0.16676213195E+03  0.17435221488E+03  0.00000000000E+00 0. -1.
         22    1    1    2    0    0  0.10169280408E+01 -0.14265582817E+02  0.21354718382E+02  0.25701458964E+02  0.00000000000E+00 0. -1.
</event>
<event>
 6    1  0.2809573E-005  0.9061956E+02  0.7818608E-02  0.1332207E+00
          2   -1    0    0  502    0  0.00000000000E+00  0.00000000000E+00  0.16161664603E+03  0.16161664603E+03  0.00000000000E+00 0. -1.
          1   -1    0    0  501    0 -0.00000000000E+00 -0.00000000000E+00 -0.26400559461E+03  0.26400559461E+03  0.00000000000E+00 0. -1.
          2    1    1    2  501    0 -0.18201872325E+02 -0.13339988083E+02 -0.21671795233E+03  0.21788972968E+03  0.00000000000E+00 0. -1.
          1    1    1    2  502    0  0.18609909714E+02  0.41776052164E+02  0.51401197148E+02  0.68801528633E+02  0.00000000000E+00 0. -1.
         22    1    1    2    0    0  0.16373540664E+02 -0.50465061048E+02  0.87222960958E+02  0.10209143029E+03  0.00000000000E+00 0. -1.
         22    1    1    2    0    0 -0.16781578052E+02  0.22028996968E+02 -0.24295154351E+02  0.36839552037E+02  0.00000000000E+00 0. -1.
</event>
<event>
 6    1  0.2809573E-005  0.8914930E+02  0.7818608E-02  0.1346847E+00
          2   -1    0    0  502    0  0.00000000000E+00  0.00000000000E+00  0.13897340220E+03  0.13897340220E+03  0.00000000000E+00 0. -1.
          1   -1    0    0  501    0 -0.00000000000E+00 -0.00000000000E+00 -0.14643595087E+03  0.14643595087E+03  0.00000000000E+00 0. -1.
          2    1    1    2  501    0 -0.55174094383E+02  0.11468445049E+02 -0.88491430057E+02  0.10491157761E+03  0.00000000000E+00 0. -1.
          1    1    1    2  502    0  0.24260520772E+02 -0.71135806168E+01  0.38459844523E+02  0.46025379282E+02  0.00000000000E+00 0. -1.
         22    1    1    2    0    0  0.64379778609E+02  0.21729126093E+02  0.57986846368E+02  0.89327404340E+02  0.00000000000E+00 0. -1.
         22    1    1    2    0    0 -0.33466204998E+02 -0.26083990525E+02 -0.15417809504E+02  0.45144991844E+02  0.00000000000E+00 0. -1.
</event>
<event>
 6    1  0.2809573E-005  0.6624262E+02  0.7818608E-02  0.1409473E+00
          2   -1    0    0  502    0  0.00000000000E+00  0.00000000000E+00  0.24254352456E+02  0.24254352456E+02  0.00000000000E+00 0.  1.
          1   -1    0    0  501    0 -0.00000000000E+00 -0.00000000000E+00 -0.12373479220E+04  0.12373479220E+04  0.00000000000E+00 0. -1.
          2    1    1    2  501    0  0.36103658302E+02  0.37469902939E+02 -0.19630306646E+03  0.20308215498E+03  0.00000000000E+00 0.  1.
          1    1    1    2  502    0 -0.56443484226E+02 -0.18840258674E+02 -0.84161845764E+03  0.84371941456E+03  0.00000000000E+00 0. -1.
         22    1    1    2    0    0  0.34334355658E+02  0.15746451138E+02 -0.17358927106E+03  0.17765143886E+03  0.00000000000E+00 0.  1.
         22    1    1    2    0    0 -0.13994529735E+02 -0.34376095404E+02 -0.15827744332E+01  0.37149266111E+02  0.00000000000E+00 0.  1.
</event>
<event>
 6    1  0.2809573E-005  0.3375870E+03  0.7818608E-02  0.1205536E+00
          2   -1    0    0  502    0  0.00000000000E+00  0.00000000000E+00  0.57245713153E+03  0.57245713153E+03  0.00000000000E+00 0. -1.
          1   -1    0    0  501    0 -0.00000000000E+00 -0.00000000000E+00 -0.22882385162E+03  0.22882385162E+03  0.00000000000E+00 0. -1.
          2    1    1    2  501    0 -0.93830575157E+02 -0.79462452866E+01 -0.73681482309E+02  0.11956705434E+03  0.00000000000E+00 0. -1.
          1    1    1    2  502    0  0.29435920083E+03 -0.17228741216E+02  0.28425158391E+03  0.40956456340E+03  0.00000000000E+00 0. -1.
         22    1    1    2    0    0 -0.20267725707E+03  0.13577377387E+02  0.80865883680E+02  0.21863601454E+03  0.00000000000E+00 0. -1.
         22    1    1    2    0    0  0.21486313947E+01  0.11597609116E+02  0.52197294632E+02  0.53513350867E+02  0.00000000000E+00 0.  1.
</event>
<event>
 6    1  0.2809573E-005  0.6342926E+02  0.7818608E-02  0.1386306E+00
          2   -1    0    0  502    0  0.00000000000E+00  0.00000000000E+00  0.35891669881E+03  0.35891669881E+03  0.00000000000E+00 0. -1.
          1   -1    0    0  501    0 -0.00000000000E+00 -0.00000000000E+00 -0.99684304460E+02  0.99684304460E+02  0.00000000000E+00 0.  1.
          2    1    1    2  501    0  0.36377994917E+02  0.90432161461E+01  0.33033871554E+02  0.49963736272E+02  0.00000000000E+00 0. -1.
          1    1    1    2  502    0 -0.48088148540E+01 -0.31355171124E+02 -0.74046879383E+02  0.80555644140E+02  0.00000000000E+00 0.  1.
         22    1    1    2    0    0 -0.59230932647E+02  0.16363933387E+02  0.29230529469E+03  0.29869460491E+03  0.00000000000E+00 0. -1.
         22    1    1    2    0    0  0.27661752585E+02  0.59480215907E+01  0.79401074880E+01  0.29387017947E+02  0.00000000000E+00 0. -1.
</event>
<event>
 6    1  0.2809573E-005  0.2036336E+03  0.7818608E-02  0.1170327E+00
          2   -1    0    0  502    0  0.00000000000E+00  0.00000000000E+00  0.27743554257E+02  0.27743554257E+02  0.00000000000E+00 0. -1.
          1   -1    0    0  501    0 -0.00000000000E+00 -0.00000000000E+00 -0.30817691391E+04  0.30817691391E+04  0.00000000000E+00 0. -1.
          2    1    1    2  501    0 -0.14728692865E+02 -0.11194312864E+03 -0.37922899754E+03  0.39568021307E+03  0.00000000000E+00 0. -1.
          1    1    1    2  502    0 -0.10427736683E+03  0.17807734618E+03 -0.21035878631E+04  0.21136856929E+04  0.00000000000E+00 0. -1.
         22    1    1    2    0    0  0.58801937693E+01 -0.34988533930E+02 -0.30296369457E+02  0.46654519477E+02  0.00000000000E+00 0.  1.
         22    1    1    2    0    0  0.11312586593E+03 -0.31145683613E+02 -0.54091235477E+03  0.55349226796E+03  0.00000000000E+00 0. -1.
</event>
<event>
 6    1  0.2809573E-005  0.1043563E+03  0.7818608E-02  0.1345543E+00
          2   -1    0    0  502    0  0.00000000000E+00  0.00000000000E+00  0.24128028058E+02  0.24128028058E+02  0.00000000000E+00 0. -1.
          1   -1    0    0  501    0 -0.00000000000E+00 -0.00000000000E+00 -0.11684367365E+04  0.11684367365E+04  0.00000000000E+00 0. -1.
          2    1    1    2  501    0  0.22738062766E+02 -0.34184662485E+02 -0.19015332022E+03  0.19453507612E+03  0.00000000000E+00 0. -1.
          1    1    1    2  502    0 -0.53377217878E+02  0.82455858132E+02 -0.70477066205E+03  0.71158258973E+03  0.00000000000E+00 0. -1.
         22    1    1    2    0    0  0.57096115085E+02 -0.42627906226E+02 -0.24941659549E+03  0.25939495534E+03  0.00000000000E+00 0. -1.
         22    1    1    2    0    0 -0.26456959973E+02 -0.56432894210E+01  0.31869300315E-01  0.27052143393E+02  0.00000000000E+00 0. -1.
</event>
<event>
 6    1  0.2809573E-005  0.1046904E+03  0.7818608E-02  0.1272240E+00
          2   -1    0    0  502    0  0.00000000000E+00  0.00000000000E+00  0.67839490574E+03  0.67839490574E+03  0.00000000000E+00 0. -1.
          1   -1    0    0  501    0 -0.00000000000E+00 -0.00000000000E+00 -0.25060082693E+02  0.25060082693E+02  0.00000000000E+00 0. -1.
          2    1    1    2  501    0  0.25991258442E+02  0.77555116075E+02  0.28735870345E+03  0.29877310119E+03  0.00000000000E+00 0. -1.
          1    1    1    2  502    0 -0.23620957265E+02 -0.29680076067E+02  0.54899147686E+02  0.66729101253E+02  0.00000000000E+00 0. -1.
         22    1    1    2    0    0 -0.10676106048E+02 -0.79845353622E+02  0.12323150444E+03  0.14722521326E+03  0.00000000000E+00 0. -1.
         22    1    1    2    0    0  0.83058048706E+01  0.31970313614E+02  0.18784546747E+03  0.19072757272E+03  0.00000000000E+00 0.  1.
</event>
<event>
 6    1  0.2809573E-005  0.9041333E+02  0.7818608E-02  0.1309282E+00
          2   -1    0    0  502    0  0.00000000000E+00  0.00000000000E+00  0.36273430642E+02  0.36273430642E+02  0.00000000000E+00 0. -1.
          1   -1    0    0  501    0 -0.00000000000E+00 -0.00000000000E+00 -0.70392852633E+03  0.70392852633E+03  0.00000000000E+00 0. -1.
          2    1    1    2  501    0  0.27135185685E+02  0.19468658025E+02 -0.51011500405E+02  0.60971469730E+02  0.00000000000E+00 0. -1.
          1    1    1    2  502    0  0.31640702529E+02 -0.30554319124E+02 -0.48434209115E+03  0.48633523596E+03  0.00000000000E+00 0. -1.
         22    1    1    2    0    0 -0.66584870179E+02 -0.45126145453E+02 -0.97199566158E+02  0.12616524720E+03  0.00000000000E+00 0. -1.
         22    1    1    2    0    0  0.78089819642E+01  0.56211806552E+02 -0.35101937973E+02  0.66730004081E+02  0.00000000000E+00 0. -1.
</event>
<event>
 6    1  0.2809573E-005  0.1287660E+03  0.7818608E-02  0.1344620E+00
          2   -1    0    0  502    0  0.00000000000E+00  0.00000000000E+00  0.11518226163E+03  0.11518226163E+03  0.00000000000E+00 0. -1.
          1   -1    0    0  501    0 -0.00000000000E+00 -0.00000000000E+00 -0.15285733089E+03  0.15285733089E+03  0.00000000000E+00 0. -1.
          2    1    1    2  501    0  0.59222707456E+01  0.23731511248E+02 -0.91820117899E+01  0.26125988161E+02  0.00000000000E+00 0. -1.
          1    1    1    2  502    0 -0.15661238584E+02  0.67946579109E+02  0.25990038498E+02  0.74414340740E+02  0.00000000000E+00 0. -1.
         22    1    1    2    0    0  0.12129155719E+02 -0.10611134410E+03 -0.83124242286E+02  0.13533799695E+03  0.00000000000E+00 0. -1.
         22    1    1    2    0    0 -0.23901878798E+01  0.14433253739E+02  0.28641146308E+02  0.32161266664E+02  0.00000000000E+00 0. -1.
</event>
<event>
 6    1  0.3864393E-005  0.8152226E+02  0.7818608E-02  0.1333475E+00
          2   -1    0    0  502    0  0.00000000000E+00  0.00000000000E+00  0.13164680366E+03  0.13164680366E+03  0.00000000000E+00 0. -1.
          1   -1    0    0  501    0 -0.00000000000E+00 -0.00000000000E+00 -0.71053528016E+03  0.71053528016E+03  0.00000000000E+00 0. -1.
          2    1    1    2  501    0 -0.11395908817E+03 -0.24231738227E+02 -0.57980730580E+03  0.59139695871E+03  0.00000000000E+00 0. -1.
          1    1    1    2  502    0  0.60308361427E+02  0.19262281213E+02 -0.73197053998E+02  0.96777800396E+02  0.00000000000E+00 0. -1.
         22    1    1    2    0    0 -0.14658163822E+02 -0.40173017468E+01 -0.27391941439E+02  0.31326010530E+02  0.00000000000E+00 0.  1.
         22    1    1    2    0    0  0.68308890568E+02  0.89867587608E+01  0.10150782474E+03  0.12268131417E+03  0.00000000000E+00 0. -1.
</event>
<event>
 6    1  0.2809573E-005  0.7859449E+02  0.7818608E-02  0.1336175E+00
          2   -1    0    0  502    0  0.00000000000E+00  0.00000000000E+00  0.20100351887E+02  0.20100351887E+02  0.00000000000E+00 0. -1.
          1   -1    0    0  501    0 -0.00000000000E+00 -0.00000000000E+00 -0.80134784064E+03  0.80134784064E+03  0.00000000000E+00 0. -1.
          2    1    1    2  501    0 -0.70047118918E+01  0.46192784842E+02 -0.74342575010E+02  0.87804657162E+02  0.00000000000E+00 0. -1.
          1    1    1    2  502    0 -0.50450044924E+02 -0.19104015115E+02 -0.29164437887E+03  0.29659166231E+03  0.00000000000E+00 0. -1.
         22    1    1    2    0    0  0.78828846140E+02 -0.47956282456E+02 -0.37900759949E+03  0.39007762367E+03  0.00000000000E+00 0. -1.
         22    1    1    2    0    0 -0.21374089324E+02  0.20867512729E+02 -0.36252935376E+02  0.46974249385E+02  0.00000000000E+00 0. -1.
</event>
<event>
 6    1  0.2809573E-005  0.1940545E+03  0.7818608E-02  0.1243936E+00
          2   -1    0    0  502    0  0.00000000000E+00  0.00000000000E+00  0.56465016608E+03  0.56465016608E+03  0.00000000000E+00 0. -1.
          1   -1    0    0  501    0 -0.00000000000E+00 -0.00000000000E+00 -0.25620445316E+03  0.25620445316E+03  0.00000000000E+00 0. -1.
          2    1    1    2  501    0  0.43385041057E+02  0.10195814950E+02  0.50921710324E+02  0.67670059941E+02  0.00000000000E+00 0. -1.
          1    1    1    2  502    0  0.94383565512E+02 -0.33537694573E+02 -0.21903609816E+03  0.24085233379E+03  0.00000000000E+00 0. -1.
         22    1    1    2    0    0  0.76248490103E+01 -0.26837250610E+02  0.13329030721E+03  0.13617886157E+03  0.00000000000E+00 0. -1.
         22    1    1    2    0    0 -0.14539345558E+03  0.50179130234E+02  0.34326979355E+03  0.37615336393E+03  0.00000000000E+00 0. -1.
</event>
<event>
 6    1  0.2809573E-005  0.1594490E+03  0.7818608E-02  0.1259800E+00
          2   -1    0    0  502    0  0.00000000000E+00  0.00000000000E+00  0.11536518054E+03  0.11536518054E+03  0.00000000000E+00 0. -1.
          1   -1    0    0  501    0 -0.00000000000E+00 -0.00000000000E+00 -0.18086939267E+03  0.18086939267E+03  0.00000000000E+00 0. -1.
          2    1    1    2  501    0  0.53423060146E+02 -0.76428247551E+02 -0.64159645374E+02  0.11318904750E+03  0.00000000000E+00 0. -1.
          1    1    1    2  502    0 -0.33903738236E+02  0.33623413657E+02 -0.12120011971E+02  0.49263496653E+02  0.00000000000E+00 0. -1.
         22    1    1    2    0    0 -0.25628218801E+02 -0.26223151088E+02  0.43712761250E+02  0.57054927465E+02  0.00000000000E+00 0. -1.
         22    1    1    2    0    0  0.61088968913E+01  0.69027984982E+02 -0.32937316031E+02  0.76727101595E+02  0.00000000000E+00 0.  1.
</event>
<event>
 6    1  0.2809573E-005  0.4420929E+03  0.7818608E-02  0.1042945E+00
          2   -1    0    0  502    0  0.00000000000E+00  0.00000000000E+00  0.10258655722E+04  0.10258655722E+04  0.00000000000E+00 0. -1.
          1   -1    0    0  501    0 -0.00000000000E+00 -0.00000000000E+00 -0.23149886965E+04  0.23149886965E+04  0.00000000000E+00 0.  1.
          2    1    1    2  501    0  0.29903598948E+03  0.40675496118E+03  0.59253687977E+02  0.50831399842E+03  0.00000000000E+00 0. -1.
          1    1    1    2  502    0 -0.13256897758E+01 -0.43938674887E+03 -0.20302535634E+04  0.20772558832E+04  0.00000000000E+00 0.  1.
         22    1    1    2    0    0  0.52568635960E+01  0.14485805101E+02  0.10961407411E+02  0.18910991955E+02  0.00000000000E+00 0. -1.
         22    1    1    2    0    0 -0.30296716330E+03  0.18145982591E+02  0.67091534371E+03  0.73637339519E+03  0.00000000000E+00 0. -1.
</event>
<event>
 6    1  0.2809573E-005  0.1366523E+03  0.7818608E-02  0.1235932E+00
          2   -1    0    0  502    0  0.00000000000E+00  0.00000000000E+00  0.45871388584E+03  0.45871388584E+03  0.00000000000E+00 0.  1.
          1   -1    0    0  501    0 -0.00000000000E+00 -0.00000000000E+00 -0.59549289476E+02  0.59549289476E+02  0.00000000000E+00 0. -1.
          2    1    1    2  501    0 -0.30956594594E+01  0.98545275316E+02  0.11564893574E+03  0.15197180900E+03  0.00000000000E+00 0.  1.
          1    1    1    2  502    0  0.37175058058E+02 -0.48461140076E+02  0.15466283368E+02  0.63005340728E+02  0.00000000000E+00 0. -1.
         22    1    1    2    0    0 -0.80459286312E+02 -0.48985843686E+02  0.19802165898E+03  0.21928494490E+03  0.00000000000E+00 0.  1.
         22    1    1    2    0    0  0.46379887713E+02 -0.10982915542E+01  0.70027718276E+02  0.84001080681E+02  0.00000000000E+00 0.  1.
</event>
<event>
 6    1  0.2809573E-005  0.1087658E+03  0.7818608E-02  0.1338799E+00
          2   -1    0    0  502    0  0.00000000000E+00  0.00000000000E+00  0.17535942215E+03  0.17535942215E+03  0.00000000000E+00 0. -1.
          1   -1    0    0  501    0 -0.00000000000E+00 -0.00000000000E+00 -0.13153378711E+03  0.13153378711E+03  0.00000000000E+00 0.  1.
          2    1    1    2  501    0  0.13025197384E+02  0.18722039544E+02  0.59139371402E+01  0.23561519138E+02  0.00000000000E+00 0. -1.
          1    1    1    2  502    0  0.39182065343E+02  0.36456843348E+02 -0.81461132824E+02  0.97469235313E+02  0.00000000000E+00 0.  1.
         22    1    1    2    0    0  0.26712119012E+02  0.26591101889E+01  0.72618668629E+02  0.77421438908E+02  0.00000000000E+00 0. -1.
         22    1    1    2    0    0 -0.78919381740E+02 -0.57837993081E+02  0.46754162097E+02  0.10844101591E+03  0.00000000000E+00 0. -1.
</event>
<event>
 6    1  0.2809573E-005  0.8034969E+02  0.7818608E-02  0.1370594E+00
          2   -1    0    0  502    0  0.00000000000E+00  0.00000000000E+00  0.54858316774E+02  0.54858316774E+02  0.00000000000E+00 0. -1.
          1   -1    0    0  501    0 -0.00000000000E+00 -0.00000000000E+00 -0.57011384383E+03  0.57011384383E+03  0.00000000000E+00 0.  1.
          2    1    1    2  501    0  0.61205738512E+01 -0.39298814771E+02 -0.39903272546E+02  0.56339412729E+02  0.00000000000E+00 0. -1.
          1    1    1    2  502    0 -0.28256673004E+02  0.97350265927E+01 -0.43424617876E+03  0.43527342451E+03  0.00000000000E+00 0.  1.
         22    1    1    2    0    0  0.55240325549E+02  0.13545854544E+02 -0.67369543279E+02  0.88168243171E+02  0.00000000000E+00 0.  1.
         22    1    1    2    0    0 -0.33104226397E+02  0.16017933634E+02  0.26263467528E+02  0.45191080202E+02  0.00000000000E+00 0. -1.
</event>
<event>
 6    1  0.2809573E-005  0.2578164E+03  0.7818608E-02  0.1196376E+00
          2   -1    0    0  502    0  0.00000000000E+00  0.00000000000E+00  0.13974168491E+03  0.13974168491E+03  0.00000000000E+00 0.  1.
          1   -1    0    0  501    0 -0.00000000000E+00 -0.00000000000E+00 -0.22514047307E+04  0.22514047307E+04  0.00000000000E+00 0. -1.
          2    1    1    2  501    0  0.14297290538E+03  0.18856242518E+03 -0.19203211615E+03  0.30475133059E+03  0.00000000000E+00 0.  1.
          1    1    1    2  502    0 -0.13373586936E+03 -0.15617916996E+03 -0.19409818783E+04  0.19518421729E+04  0.00000000000E+00 0. -1.
         22    1    1    2    0    0  0.15889735745E+02 -0.28119628683E+02  0.71412744151E+02  0.78377147476E+02  0.00000000000E+00 0.  1.
         22    1    1    2    0    0 -0.25126771762E+02 -0.42636265403E+01 -0.50061795489E+02  0.56175764686E+02  0.00000000000E+00 0. -1.
</event>
<event>
 6    1  0.2809573E-005  0.6387546E+02  0.7818608E-02  0.1384961E+00
          2   -1    0    0  502    0  0.00000000000E+00  0.00000000000E+00  0.23196087824E+03  0.23196087824E+03  0.00000000000E+00 0.  1.
          1   -1    0    0  501    0 -0.00000000000E+00 -0.00000000000E+00 -0.10673434115E+04  0.10673434115E+04  0.00000000000E+00 0. -1.
          2    1    1    2  501    0 -0.12878088454E+02 -0.16292869991E+02 -0.22736663256E+01  0.20891920288E+02  0.00000000000E+00 0.  1.
          1    1    1    2  502    0  0.33741900760E+02 -0.17101633453E+02 -0.10362479405E+04  0.10369381737E+04  0.00000000000E+00 0. -1.
         22    1    1    2    0    0  0.13446803693E+02  0.60940899126E+02  0.18249732655E+03  0.19287271428E+03  0.00000000000E+00 0.  1.
         22    1    1    2    0    0 -0.34310615999E+02 -0.27546395681E+02  0.20641747032E+02  0.48601481518E+02  0.00000000000E+00 0.  1.
</event>
<event>
 6    1  0.2809573E-005  0.1187190E+03  0.7818608E-02  0.1329477E+00
          2   -1    0    0  502    0  0.00000000000E+00  0.00000000000E+00  0.16546093731E+03  0.16546093731E+03  0.00000000000E+00 0. -1.
          1   -1    0    0  501    0 -0.00000000000E+00 -0.00000000000E+00 -0.95988853263E+03  0.95988853263E+03  0.00000000000E+00 0.  1.
          2    1    1    2  501    0 -0.39572947288E+02  0.32553472081E+01 -0.19067646380E+01  0.39752373437E+02  0.00000000000E+00 0. -1.
          1    1    1    2  502    0 -0.33300831773E+02  0.13453321354E+02 -0.90078958702E+03  0.90150530632E+03  0.00000000000E+00 0.  1.
         22    1    1    2    0    0  0.28466224510E+02 -0.12528466918E+02  0.13057032430E+03  0.13422331395E+03  0.00000000000E+00 0. -1.
         22    1    1    2    0    0  0.44407554551E+02 -0.41802016449E+01 -0.22301567968E+02  0.49868476223E+02  0.00000000000E+00 0. -1.
</event>
<event>
 6    1  0.2809573E-005  0.1811560E+03  0.7818608E-02  0.1260965E+00
          2   -1    0    0  502    0  0.00000000000E+00  0.00000000000E+00  0.12609634489E+03  0.12609634489E+03  0.00000000000E+00 0.  1.
          1   -1    0    0  501    0 -0.00000000000E+00 -0.00000000000E+00 -0.66756082304E+03  0.66756082304E+03  0.00000000000E+00 0.  1.
          2    1    1    2  501    0  0.21885737810E+02  0.71978810054E+02  0.14907114743E+01  0.75247304517E+02  0.00000000000E+00 0.  1.
          1    1    1    2  502    0  0.11079315086E+02 -0.17150649709E+03 -0.53142078449E+03  0.55852061730E+03  0.00000000000E+00 0.  1.
         22    1    1    2    0    0 -0.11633449542E+02  0.87605870493E+02 -0.59167964887E+02  0.10635306184E+03  0.00000000000E+00 0.  1.
         22    1    1    2    0    0 -0.21331603353E+02  0.11921816541E+02  0.47633559759E+02  0.53536184273E+02  0.00000000000E+00 0.  1.
</event>
<event>
 6    1  0.2809573E-005  0.3127032E+03  0.7818608E-02  0.1184925E+00
          2   -1    0    0  502    0  0.00000000000E+00  0.00000000000E+00  0.27437298624E+03  0.27437298624E+03  0.00000000000E+00 0.  1.
          1   -1    0    0  501    0 -0.00000000000E+00 -0.00000000000E+00 -0.62194727855E+03  0.62194727855E+03  0.00000000000E+00 0.  1.
          2    1    1    2  501    0 -0.25765307408E+03 -0.18252750230E+02 -0.13972724510E+03  0.29366983586E+03  0.00000000000E+00 0.  1.
          1    1    1    2  502    0  0.31218731104E+03  0.80316713971E+01 -0.30551537733E+03  0.43688107158E+03  0.00000000000E+00 0.  1.
         22    1    1    2    0    0 -0.18266981969E+02 -0.14473976291E+02  0.11592606023E+03  0.11824563442E+03  0.00000000000E+00 0.  1.
         22    1    1    2    0    0 -0.36267254994E+02  0.24695055124E+02 -0.18257730106E+02  0.47523722929E+02  0.00000000000E+00 0.  1.
</event>
<event>
 6    1  0.2809573E-005  0.3440724E+03  0.7818608E-02  0.1130877E+00
          2   -1    0    0  502    0  0.00000000000E+00  0.00000000000E+00  0.30858951987E+03  0.30858951987E+03  0.00000000000E+00 0. -1.
          1   -1    0    0  501    0 -0.00000000000E+00 -0.00000000000E+00 -0.99967051568E+03  0.99967051568E+03  0.00000000000E+00 0. -1.
          2    1    1    2  501    0  0.51398757870E+02 -0.29310004372E+03 -0.17038378768E+03  0.34289955241E+03  0.00000000000E+00 0. -1.
          1    1    1    2  502    0  0.28878576221E+02  0.30012177529E+03 -0.68128993938E+03  0.74502552552E+03  0.00000000000E+00 0. -1.
         22    1    1    2    0    0 -0.45218560526E+02  0.42267430166E+02  0.14531656758E+03  0.15794986130E+03  0.00000000000E+00 0. -1.
         22    1    1    2    0    0 -0.35058773565E+02 -0.49289161731E+02  0.15276163661E+02  0.62385096331E+02  0.00000000000E+00 0. -1.
</event>
<event>
 6    1  0.2809573E-005  0.4284097E+02  0.7818608E-02  0.1493250E+00
          2   -1    0    0  502    0  0.00000000000E+00  0.00000000000E+00  0.24851597482E+03  0.24851597482E+03  0.00000000000E+00 0. -1.
          1   -1    0    0  501    0 -0.00000000000E+00 -0.00000000000E+00 -0.24380293389E+03  0.24380293389E+03  0.00000000000E+00 0. -1.
          2    1    1    2  501    0 -0.17369846870E+02  0.27381688075E+02 -0.78254539421E+02  0.84706796434E+02  0.00000000000E+00 0. -1.
          1    1    1    2  502    0 -0.11200448938E+02 -0.19820962880E+02 -0.14479389365E+03  0.14657282239E+03  0.00000000000E+00 0. -1.
         22    1    1    2    0    0 -0.97362960481E+01  0.41722317091E+01 -0.13112407324E+02  0.16856399497E+02  0.00000000000E+00 0.  1.
         22    1    1    2    0    0  0.38306591856E+02 -0.11732956904E+02  0.24087388132E+03  0.24418289039E+03  0.00000000000E+00 0. -1.
</event>
<event>
 6    1  0.2809573E-005  0.1439160E+03  0.7818608E-02  0.1239283E+00
          2   -1    0    0  502    0  0.00000000000E+00  0.00000000000E+00  0.35406431555E+03  0.35406431555E+03  0.00000000000E+00 0. -1.
          1   -1    0    0  501    0 -0.00000000000E+00 -0.00000000000E+00 -0.12357084704E+03  0.12357084704E+03  0.00000000000E+00 0. -1.
          2    1    1    2  501    0  0.46516200773E+02  0.34420561585E+02 -0.47336807436E+02  0.74761656832E+02  0.00000000000E+00 0. -1.
          1    1    1    2  502    0 -0.67303866529E+02 -0.12090515935E+03  0.13877028809E+03  0.19597209205E+03  0.00000000000E+00 0. -1.
         22    1    1    2    0    0 -0.40932436609E+02  0.63033189178E+02  0.11344302106E+03  0.13608073461E+03  0.00000000000E+00 0. -1.
         22    1    1    2    0    0  0.61720102366E+02  0.23451408585E+02  0.25616966797E+02  0.70820679103E+02  0.00000000000E+00 0.  1.
</event>
<event>
 6    1  0.2809573E-005  0.1509707E+03  0.7818608E-02  0.1239645E+00
          2   -1    0    0  502    0  0.00000000000E+00  0.00000000000E+00  0.16695393167E+03  0.16695393167E+03  0.00000000000E+00 0. -1.
          1   -1    0    0  501    0 -0.00000000000E+00 -0.00000000000E+00 -0.19734430240E+03  0.19734430240E+03  0.00000000000E+00 0. -1.
          2    1    1    2  501    0  0.42133557708E+02 -0.25237112868E+02 -0.30531386460E+01  0.49208436336E+02  0.00000000000E+00 0. -1.
          1    1    1    2  502    0 -0.14017143794E+03  0.48293688563E+02  0.23011424023E+01  0.14827544512E+03  0.00000000000E+00 0. -1.
         22    1    1    2    0    0  0.88401558505E+02  0.40849372102E+02 -0.30917283264E+02  0.10217330939E+03  0.00000000000E+00 0. -1.
         22    1    1    2    0    0  0.96363217293E+01 -0.63905947797E+02  0.12789087780E+01  0.64641043216E+02  0.00000000000E+00 0. -1.
</event>
<event>
 6    1  0.2809573E-005  0.1239759E+03  0.7818608E-02  0.1252479E+00
          2   -1    0    0  502    0  0.00000000000E+00  0.00000000000E+00  0.52837882540E+03  0.52837882540E+03  0.00000000000E+00 0. -1.
          1   -1    0    0  501    0 -0.00000000000E+00 -0.00000000000E+00 -0.90400927433E+02  0.90400927433E+02  0.00000000000E+00 0. -1.
          2    1    1    2  501    0 -0.34144072240E+00 -0.14269666542E+03  0.28214625818E+03  0.31617869301E+03  0.00000000000E+00 0. -1.
          1    1    1    2  502    0 -0.56460101377E+02  0.76445687831E+02  0.22963754136E+02  0.97770242096E+02  0.00000000000E+00 0. -1.
         22    1    1    2    0    0  0.30251202647E+02  0.84933106749E+02  0.27027793648E+02  0.94123692624E+02  0.00000000000E+00 0. -1.
         22    1    1    2    0    0  0.26550339452E+02 -0.18682129158E+02  0.10584009200E+03  0.11070712511E+03  0.00000000000E+00 0.  1.
</event>
<event>
 6    1  0.2809573E-005  0.4425014E+03  0.7818608E-02  0.1103156E+00
          2   -1    0    0  502    0  0.00000000000E+00  0.00000000000E+00  0.45277677348E+03  0.45277677348E+03  0.00000000000E+00 0.  1.
          1   -1    0    0  501    0 -0.00000000000E+00 -0.00000000000E+00 -0.60303959011E+03  0.60303959011E+03  0.00000000000E+00 0.  1.
          2    1    1    2  501    0 -0.35486322146E+02 -0.41102310454E+02 -0.13281658333E+03  0.14348840995E+03  0.00000000000E+00 0.  1.
          1    1    1    2  502    0  0.36372755041E+01 -0.21923815119E+02 -0.45345068041E+03  0.45399493721E+03  0.00000000000E+00 0.  1.
         22    1    1    2    0    0  0.58157902500E+02  0.41821584762E+01  0.96373761850E+02  0.11263984218E+03  0.00000000000E+00 0.  1.
         22    1    1    2    0    0 -0.26308855858E+02  0.58843967096E+02  0.33963068526E+03  0.34569317426E+03  0.00000000000E+00 0.  1.
</event>
<event>
 6    1  0.2809573E-005  0.2215460E+03  0.7818608E-02  0.1171803E+00
          2   -1    0    0  502    0  0.00000000000E+00  0.00000000000E+00  0.45652100487E+03  0.45652100487E+03  0.00000000000E+00 0. -1.
          1   -1    0    0  501    0 -0.00000000000E+00 -0.00000000000E+00 -0.23974818859E+03  0.23974818859E+03  0.00000000000E+00 0. -1.
          2    1    1    2  501    0  0.11080892406E+03 -0.13889721187E+03 -0.73374872914E+02  0.19223663827E+03  0.00000000000E+00 0. -1.
          1    1    1    2  502    0 -0.16684935193E+03  0.18482952704E+03  0.25864099797E+03  0.35902064862E+03  0.00000000000E+00 0. -1.
         22    1    1    2    0    0  0.91388750893E+01  0.28638121284E+02 -0.26053814425E+02  0.39780174392E+02  0.00000000000E+00 0. -1.
         22    1    1    2    0    0  0.46901552779E+02 -0.74570436451E+02  0.57560505649E+02  0.10523173217E+03  0.00000000000E+00 0. -1.
</event>
<event>
 6    1  0.2809573E-005  0.2762308E+03  0.7818608E-02  0.1174063E+00
          2   -1    0    0  502    0  0.00000000000E+00  0.00000000000E+00  0.10577370114E+03  0.10577370114E+03  0.00000000000E+00 0. -1.
          1   -1    0    0  501    0 -0.00000000000E+00 -0.00000000000E+00 -0.16747040972E+04  0.16747040972E+04  0.00000000000E+00 0.  1.
          2    1    1    2  501    0  0.17218677296E+03 -0.12749958078E+03 -0.20432811890E+03  0.29606487137E+03  0.00000000000E+00 0. -1.
          1    1    1    2  502    0 -0.19782707941E+03  0.15527090235E+03 -0.13263542258E+04  0.13499852365E+04  0.00000000000E+00 0.  1.
         22    1    1    2    0    0  0.42418728393E+02  0.80244973942E+01  0.32055891569E+02  0.53771007626E+02  0.00000000000E+00 0. -1.
         22    1    1    2    0    0 -0.16778421952E+02 -0.35795818960E+02 -0.70303942927E+02  0.80656682855E+02  0.00000000000E+00 0.  1.
</event>
<event>
 6    1  0.2809573E-005  0.6628345E+02  0.7818608E-02  0.1450581E+00
          2   -1    0    0  502    0  0.00000000000E+00  0.00000000000E+00  0.11951065265E+03  0.11951065265E+03  0.00000000000E+00 0. -1.
          1   -1    0    0  501    0 -0.00000000000E+00 -0.00000000000E+00 -0.26582865231E+03  0.26582865231E+03  0.00000000000E+00 0. -1.
          2    1    1    2  501    0  0.33181631819E+02 -0.10646786536E+02 -0.14338117497E+03  0.14755519676E+03  0.00000000000E+00 0. -1.
          1    1    1    2  502    0 -0.42090184936E+02  0.14492367328E+02 -0.77266742073E+02  0.89172651689E+02  0.00000000000E+00 0. -1.
         22    1    1    2    0    0 -0.19562454104E+02 -0.34407526936E+01  0.10494130917E+03  0.10680452593E+03  0.00000000000E+00 0. -1.
         22    1    1    2    0    0  0.28471007221E+02 -0.40482809782E+00 -0.30611391779E+02  0.41806930581E+02  0.00000000000E+00 0. -1.
</event>
<event>
 6    1  0.2809573E-005  0.3853855E+03  0.7818608E-02  0.1150254E+00
          2   -1    0    0  502    0  0.00000000000E+00  0.00000000000E+00  0.44819516249E+03  0.44819516249E+03  0.00000000000E+00 0.  1.
          1   -1    0    0  501    0 -0.00000000000E+00 -0.00000000000E+00 -0.29785101118E+03  0.29785101118E+03  0.00000000000E+00 0.  1.
          2    1    1    2  501    0 -0.13465680895E+03 -0.10356154957E+03  0.72379270628E+02  0.18465158966E+03  0.00000000000E+00 0.  1.
          1    1    1    2  502    0 -0.30302557619E+02  0.14360182767E+02 -0.20018377058E+03  0.20297290916E+03  0.00000000000E+00 0.  1.
         22    1    1    2    0    0  0.45256860423E+01 -0.27240946884E+02  0.39149309289E+02  0.47908448515E+02  0.00000000000E+00 0.  1.
         22    1    1    2    0    0  0.16043368053E+03  0.11644231369E+03  0.23899934198E+03  0.31051322634E+03  0.00000000000E+00 0. -1.
</event>
<event>
 6    1  0.2809573E-005  0.1990578E+03  0.7818608E-02  0.1266284E+00
          2   -1    0    0  502    0  0.00000000000E+00  0.00000000000E+00  0.50600392346E+02  0.50600392346E+02  0.00000000000E+00 0.  1.
          1   -1    0    0  501    0 -0.00000000000E+00 -0.00000000000E+00 -0.62838378124E+03  0.62838378124E+03  0.00000000000E+00 0. -1.
          2    1    1    2  501    0 -0.56124013934E+02  0.12842627691E+02 -0.14977460435E+02  0.59490859358E+02  0.00000000000E+00 0.  1.
          1    1    1    2  502    0  0.30025071662E+02 -0.96538649170E+02 -0.28591675641E+03  0.30326491276E+03  0.00000000000E+00 0. -1.
         22    1    1    2    0    0  0.42641263114E+02  0.82303302757E+02 -0.28356863430E+03  0.29833417726E+03  0.00000000000E+00 0. -1.
         22    1    1    2    0    0 -0.16542320842E+02  0.13927187219E+01  0.66794622478E+01  0.17894224214E+02  0.00000000000E+00 0.  1.
</event>
<event>
 6    1  0.2809573E-005  0.1403190E+03  0.7818608E-02  0.1294520E+00
          2   -1    0    0  502    0  0.00000000000E+00  0.00000000000E+00  0.14455528792E+03  0.14455528792E+03  0.00000000000E+00 0. -1.
          1   -1    0    0  501    0 -0.00000000000E+00 -0.00000000000E+00 -0.27239457702E+03  0.27239457702E+03  0.00000000000E+00 0. -1.
          2    1    1    2  501    0  0.72880604357E+02  0.37232561693E+02 -0.15295750455E+03  0.17347577450E+03  0.00000000000E+00 0. -1.
          1    1    1    2  502    0 -0.99458650522E+02 -0.53296620206E+02  0.23414658041E+02  0.11524234942E+03  0.00000000000E+00 0. -1.
         22    1    1    2    0    0  0.53985944812E+02  0.20070311949E+02 -0.45568378243E+02  0.73442336255E+02  0.00000000000E+00 0. -1.
         22    1    1    2    0    0 -0.27407898646E+02 -0.40062534352E+01  0.47271935647E+02  0.54789404766E+02  0.00000000000E+00 0.  1.
</event>
<event>
 6    1  0.2809573E-005  0.6349908E+02  0.7818608E-02  0.1393730E+00
          2   -1    0    0  502    0  0.00000000000E+00  0.00000000000E+00  0.21380359000E+03  0.21380359000E+03  0.00000000000E+00 0.  1.
          1   -1    0    0  501    0 -0.00000000000E+00 -0.00000000000E+00 -0.38979319582E+03  0.38979319582E+03  0.00000000000E+00 0.  1.
          2    1    1    2  501    0 -0.29262052403E+02  0.13531254318E+02 -0.10203871208E+03  0.10701056638E+03  0.00000000000E+00 0.  1.
          1    1    1    2  502    0  0.87672549067E+02 -0.45033921927E+02 -0.25023584432E+03  0.26894703525E+03  0.00000000000E+00 0.  1.
         22    1    1    2    0    0 -0.12572413493E+02  0.28885620306E+01 -0.20140025000E+02  0.23917148213E+02  0.00000000000E+00 0. -1.
         22    1    1    2    0    0 -0.45838083171E+02  0.28614105578E+02  0.19642497559E+03  0.20372203598E+03  0.00000000000E+00 0.  1.
</event>
<event>
 6    1  0.2809573E-005  0.1797863E+03  0.7818608E-02  0.1169647E+00
          2   -1    0    0  502    0  0.00000000000E+00  0.00000000000E+00  0.33626869376E+03  0.33626869376E+03  0.00000000000E+00 0. -1.
          1   -1    0    0  501    0 -0.00000000000E+00 -0.00000000000E+00 -0.18336403430E+03  0.18336403430E+03  0.00000000000E+00 0. -1.
          2    1    1    2  501    0 -0.13940087077E+03 -0.82642760543E+02 -0.28600807093E+02  0.16456134056E+03  0.00000000000E+00 0. -1.
          1    1    1    2  502    0 -0.15623308355E+02  0.37300407889E+02 -0.38777377365E+02  0.56027610943E+02  0.00000000000E+00 0. -1.
         22    1    1    2    0    0  0.16006554086E+03  0.65636225392E+02  0.21755561533E+03  0.27795599870E+03  0.00000000000E+00 0. -1.
         22    1    1    2    0    0 -0.50413617319E+01 -0.20293872739E+02  0.27272285953E+01  0.21087777850E+02  0.00000000000E+00 0. -1.
</event>
<event>
 6    1  0.2809573E-005  0.1122214E+03  0.7818608E-02  0.1256975E+00
          2   -1    0    0  502    0  0.00000000000E+00  0.00000000000E+00  0.48782719491E+03  0.48782719491E+03  0.00000000000E+00 0.  1.
          1   -1    0    0  501    0 -0.00000000000E+00 -0.00000000000E+00 -0.21745931776E+03  0.21745931776E+03  0.00000000000E+00 0. -1.
          2    1    1    2  501    0 -0.20940896620E+02 -0.35169967607E+02  0.18846408765E+01  0.40975598152E+02  0.00000000000E+00 0.  1.
          1    1    1    2  502    0 -0.72272472905E+02 -0.33743762027E+02 -0.17343351597E+03  0.19089561618E+03  0.00000000000E+00 0. -1.
         22    1    1    2    0    0 -0.14369611290E+02 -0.97031994626E+01  0.72674413638E+01  0.18800359369E+02  0.00000000000E+00 0.  1.
         22    1    1    2    0    0  0.10758298081E+03  0.78616929096E+02  0.43464931087E+03  0.45461493898E+03  0.00000000000E+00 0.  1.
</event>
<event>
 6    1  0.2809573E-005  0.6643332E+02  0.7818608E-02  0.1374937E+00
          2   -1    0    0  502    0  0.00000000000E+00  0.00000000000E+00  0.12420034217E+03  0.12420034217E+03  0.00000000000E+00 0.  1.
          1   -1    0    0  501    0 -0.00000000000E+00 -0.00000000000E+00 -0.35563301520E+03  0.35563301520E+03  0.00000000000E+00 0.  1.
          2    1    1    2  501    0 -0.48792766229E+01 -0.69919260410E+02 -0.75185203825E+02  0.10278776771E+03  0.00000000000E+00 0.  1.
          1    1    1    2  502    0 -0.23075749114E+02  0.38744907382E+02 -0.22240692492E+03  0.22693280569E+03  0.00000000000E+00 0.  1.
         22    1    1    2    0    0  0.38041367446E+02  0.49857111434E+02  0.95284661054E+02  0.11407034597E+03  0.00000000000E+00 0.  1.
         22    1    1    2    0    0 -0.10086341710E+02 -0.18682758407E+02 -0.29125205341E+02  0.36042437999E+02  0.00000000000E+00 0.  1.
</event>
<event>
 6    1  0.2809573E-005  0.6258232E+02  0.7818608E-02  0.1394129E+00
          2   -1    0    0  502    0  0.00000000000E+00  0.00000000000E+00  0.52143112151E+02  0.52143112151E+02  0.00000000000E+00 0.  1.
          1   -1    0    0  501    0 -0.00000000000E+00 -0.00000000000E+00 -0.18709316410E+03  0.18709316410E+03  0.00000000000E+00 0.  1.
          2    1    1    2  501    0  0.17959990065E+02 -0.14774864961E+02 -0.51665317531E+02  0.56658299598E+02  0.00000000000E+00 0.  1.
          1    1    1    2  502    0 -0.32436663228E+02  0.68581174788E+01 -0.44055853133E+02  0.55137002929E+02  0.00000000000E+00 0.  1.
         22    1    1    2    0    0 -0.40020437766E+01  0.54252930749E+02  0.12244196096E+02  0.55761251665E+02  0.00000000000E+00 0.  1.
         22    1    1    2    0    0  0.18478716940E+02 -0.46336183266E+02 -0.51473077385E+02  0.71679722062E+02  0.00000000000E+00 0.  1.
</event>
<event>
 6    1  0.2809573E-005  0.1346505E+03  0.7818608E-02  0.1280735E+00
          2   -1    0    0  502    0  0.00000000000E+00  0.00000000000E+00  0.10225875859E+03  0.10225875859E+03  0.00000000000E+00 0. -1.
          1   -1    0    0  501    0 -0.00000000000E+00 -0.00000000000E+00 -0.71234168393E+03  0.71234168393E+03  0.00000000000E+00 0. -1.
          2    1    1    2  501    0  0.43939274910E+02  0.55011542240E+01 -0.74278170701E+02  0.86476408460E+02  0.00000000000E+00 0. -1.
          1    1    1    2  502    0 -0.13835444519E+03 -0.26098833897E+02 -0.55467810481E+03  0.57226820774E+03  0.00000000000E+00 0. -1.
         22    1    1    2    0    0  0.32043244149E+02  0.24966442032E+02  0.66041847094E+02  0.77534626400E+02  0.00000000000E+00 0. -1.
         22    1    1    2    0    0  0.62371926131E+02 -0.43687623594E+01 -0.47168496929E+02  0.78321199917E+02  0.00000000000E+00 0. -1.
</event>
<event>
 6    1  0.2809573E-005  0.2883608E+03  0.7818608E-02  0.1131382E+00
          2   -1    0    0  502    0  0.00000000000E+00  0.00000000000E+00  0.66296048937E+03  0.66296048937E+03  0.00000000000E+00 0.  1.
          1   -1    0    0  501    0 -0.00000000000E+00 -0.00000000000E+00 -0.33495320680E+03  0.33495320680E+03  0.00000000000E+00 0. -1.
          2    1    1    2  501    0 -0.10115035760E+03 -0.17980194085E+03  0.87778976999E+02  0.22419920066E+03  0.00000000000E+00 0.  1.
          1    1    1    2  502    0  0.61077695839E+02  0.27981121137E+03 -0.16990528624E+03  0.33300541321E+03  0.00000000000E+00 0. -1.
         22    1    1    2    0    0  0.77930681729E+02 -0.68650475344E+02  0.33659162990E+03  0.35224991730E+03  0.00000000000E+00 0.  1.
         22    1    1    2    0    0 -0.37858019970E+02 -0.31358795177E+02  0.73541961917E+02  0.88459165006E+02  0.00000000000E+00 0.  1.
</event>
<event>
 6    1  0.2809573E-005  0.9438263E+02  0.7818608E-02  0.1296242E+00
          2   -1    0    0  502    0  0.00000000000E+00  0.00000000000E+00  0.34073611964E+03  0.34073611964E+03  0.00000000000E+00 0.  1.
          1   -1    0    0  501    0 -0.00000000000E+00 -0.00000000000E+00 -0.94737057302E+02  0.94737057302E+02  0.00000000000E+00 0.  1.
          2    1    1    2  501    0  0.47435692131E+02  0.11552190107E+02  0.11775626345E+02  0.50222140139E+02  0.00000000000E+00 0.  1.
          1    1    1    2  502    0  0.47000806228E+01 -0.33421337166E+02 -0.56093641600E+02  0.65464289225E+02  0.00000000000E+00 0.  1.
         22    1    1    2    0    0  0.36030287787E+02  0.61689577881E-01  0.41755038430E+02  0.55151325259E+02  0.00000000000E+00 0. -1.
         22    1    1    2    0    0 -0.88166060541E+02  0.21807457480E+02  0.24856203916E+03  0.26463542232E+03  0.00000000000E+00 0.  1.
</event>
<event>
 6    1  0.2809573E-005  0.6835971E+02  0.7818608E-02  0.1375914E+00
          2   -1    0    0  502    0  0.00000000000E+00  0.00000000000E+00  0.30714008120E+03  0.30714008120E+03  0.00000000000E+00 0.  1.
          1   -1    0    0  501    0 -0.00000000000E+00 -0.00000000000E+00 -0.78331717478E+02  0.78331717478E+02  0.00000000000E+00 0.  1.
          2    1    1    2  501    0  0.13646105196E+02 -0.39363657287E+02  0.22646782440E+02  0.47419304687E+02  0.00000000000E+00 0.  1.
          1    1    1    2  502    0 -0.23523191167E+01  0.47535563384E+02 -0.40752324594E+02  0.62657123708E+02  0.00000000000E+00 0.  1.
         22    1    1    2    0    0 -0.98978233991E+01 -0.59282850050E+02  0.75408513448E+02  0.96430633714E+02  0.00000000000E+00 0.  1.
         22    1    1    2    0    0 -0.13959626806E+01  0.51110943953E+02  0.17150539243E+03  0.17896473657E+03  0.00000000000E+00 0.  1.
</event>
<event>
 6    1  0.2809573E-005  0.8460801E+02  0.7818608E-02  0.1396119E+00
          2   -1    0    0  502    0  0.00000000000E+00  0.00000000000E+00  0.10821666969E+03  0.10821666969E+03  0.00000000000E+00 0. -1.
          1   -1    0    0  501    0 -0.00000000000E+00 -0.00000000000E+00 -0.50284701017E+03  0.50284701017E+03  0.00000000000E+00 0.  1.
          2    1    1    2  501    0 -0.30575695678E+02 -0.49262458274E+02 -0.47791889071E+02  0.75138057084E+02  0.00000000000E+00 0. -1.
          1    1    1    2  502    0 -0.32923174144E+01  0.55641838681E+02 -0.39522693236E+03  0.39913804834E+03  0.00000000000E+00 0.  1.
         22    1    1    2    0    0  0.36506282887E+01  0.21683622932E+02  0.81177114957E+02  0.84102500457E+02  0.00000000000E+00 0. -1.
         22    1    1    2    0    0  0.30217384803E+02 -0.28063003338E+02 -0.32788634004E+02  0.52685073983E+02  0.00000000000E+00 0. -1.
</event>
<event>
 6    1  0.2809573E-005  0.5451859E+02  0.7818608E-02  0.1424714E+00
          2   -1    0    0  502    0  0.00000000000E+00  0.00000000000E+00  0.23388847921E+03  0.23388847921E+03  0.00000000000E+00 0.  1.
          1   -1    0    0  501    0 -0.00000000000E+00 -0.00000000000E+00 -0.74201770522E+03  0.74201770522E+03  0.00000000000E+00 0.  1.
          2    1    1    2  501    0  0.24562062238E+02 -0.21496042097E+02 -0.86522478350E+01  0.33767382484E+02  0.00000000000E+00 0.  1.
          1    1    1    2  502    0 -0.19155300318E+02 -0.81803140874E+01 -0.70129015821E+03  0.70159940784E+03  0.00000000000E+00 0.  1.
         22    1    1    2    0    0 -0.12781344223E+02  0.51285494949E+02  0.20979591278E+03  0.21635131100E+03  0.00000000000E+00 0.  1.
         22    1    1    2    0    0  0.73745823032E+01 -0.21609138765E+02 -0.79827327462E+01  0.24188083107E+02  0.00000000000E+00 0.  1.
</event>
<event>
 6    1  0.2809573E-005  0.1870121E+03  0.7818608E-02  0.1226070E+00
          2   -1    0    0  502    0  0.00000000000E+00  0.00000000000E+00  0.26919474590E+03  0.26919474590E+03  0.00000000000E+00 0. -1.
          1   -1    0    0  501    0 -0.00000000000E+00 -0.00000000000E+00 -0.14460218261E+03  0.14460218261E+03  0.00000000000E+00 0. -1.
          2    1    1    2  501    0 -0.50080419413E+02  0.21755579334E+02  0.16806676618E+02  0.57129834760E+02  0.00000000000E+00 0. -1.
          1    1    1    2  502    0 -0.12966608665E+02 -0.11709348401E+03 -0.49506312147E+02  0.12778846536E+03  0.00000000000E+00 0. -1.
         22    1    1    2    0    0 -0.36491379756E+02  0.26233711210E+02  0.46932015550E+02  0.64980323821E+02  0.00000000000E+00 0.  1.
         22    1    1    2    0    0  0.99538407834E+02  0.69104193462E+02  0.11036018328E+03  0.16389830457E+03  0.00000000000E+00 0. -1.
</event>
<event>
 6    1  0.2809573E-005  0.7372303E+02  0.7818608E-02  0.1349757E+00
          2   -1    0    0  502    0  0.00000000000E+00  0.00000000000E+00  0.53677648947E+02  0.53677648947E+02  0.00000000000E+00 0. -1.
          1   -1    0    0  501    0 -0.00000000000E+00 -0.00000000000E+00 -0.27536173105E+03  0.27536173105E+03  0.00000000000E+00 0. -1.
          2    1    1    2  501    0  0.28430638895E+02  0.46712722394E+01 -0.11039302509E+03  0.11409093742E+03  0.00000000000E+00 0. -1.
          1    1    1    2  502    0  0.70818883165E+01 -0.33954509525E+02  0.11563833698E+02  0.36562058326E+02  0.00000000000E+00 0. -1.
         22    1    1    2    0    0  0.36970179363E+02  0.13526650569E+02 -0.88052601254E+02  0.96452190361E+02  0.00000000000E+00 0. -1.
         22    1    1    2    0    0 -0.72482706575E+02  0.15756586717E+02 -0.34802289457E+02  0.81934193893E+02  0.00000000000E+00 0. -1.
</event>
<event>
 6    1  0.2809573E-005  0.1811613E+03  0.7818608E-02  0.1264711E+00
          2   -1    0    0  502    0  0.00000000000E+00  0.00000000000E+00  0.31215994811E+03  0.31215994811E+03  0.00000000000E+00 0.  1.
          1   -1    0    0  501    0 -0.00000000000E+00 -0.00000000000E+00 -0.19390340262E+03  0.19390340262E+03  0.00000000000E+00 0.  1.
          2    1    1    2  501    0  0.92116141282E+02 -0.11312225948E+03 -0.74553999369E+02  0.16383018005E+03  0.00000000000E+00 0.  1.
          1    1    1    2  502    0 -0.92805630038E+02  0.12998455399E+03  0.12779422628E+03  0.20454885362E+03  0.00000000000E+00 0.  1.
         22    1    1    2    0    0 -0.15540721935E+02 -0.32744144636E+02 -0.25530191725E+02  0.44333776466E+02  0.00000000000E+00 0.  1.
         22    1    1    2    0    0  0.16230210691E+02  0.15881850121E+02  0.90546510295E+02  0.93350540592E+02  0.00000000000E+00 0.  1.
</event>
<event>
 6    1  0.2809573E-005  0.5659259E+02  0.7818608E-02  0.1531320E+00
          2   -1    0    0  502    0  0.00000000000E+00  0.00000000000E+00  0.36983911994E+02  0.36983911994E+02  0.00000000000E+00 0.  1.
          1   -1    0    0  501    0 -0.00000000000E+00 -0.00000000000E+00 -0.27536211326E+03  0.27536211326E+03  0.00000000000E+00 0.  1.
          2    1    1    2  501    0  0.27080776192E+01  0.20077065618E+02 -0.94667091937E+02  0.96810539426E+02  0.00000000000E+00 0.  1.
          1    1    1    2  502    0  0.27328319100E+02 -0.20532079594E+02 -0.28024956062E+02  0.44201826654E+02  0.00000000000E+00 0.  1.
         22    1    1    2    0    0 -0.37579611769E+02  0.75682453074E+01 -0.13986627480E+03  0.14502441306E+03  0.00000000000E+00 0.  1.
         22    1    1    2    0    0  0.75432150493E+01 -0.71132313310E+01  0.24180121536E+02  0.26309246107E+02  0.00000000000E+00 0.  1.
</event>
<event>
 6    1  0.2809573E-005  0.7012764E+02  0.7818608E-02  0.1384728E+00
          2   -1    0    0  502    0  0.00000000000E+00  0.00000000000E+00  0.19785524291E+03  0.19785524291E+03  0.00000000000E+00 0. -1.
          1   -1    0    0  501    0 -0.00000000000E+00 -0.00000000000E+00 -0.20128223113E+03  0.20128223113E+03  0.00000000000E+00 0.  1.
          2    1    1    2  501    0  0.13956381159E+02  0.18091861377E+02  0.30448420529E+02  0.38068390245E+02  0.00000000000E+00 0. -1.
          1    1    1    2  502    0 -0.36181316739E+02 -0.85962913717E+01 -0.17082874424E+03  0.17482975652E+03  0.00000000000E+00 0.  1.
         22    1    1    2    0    0  0.40498024609E+02 -0.28762068562E+02  0.14901401823E+03  0.15707490001E+03  0.00000000000E+00 0. -1.
         22    1    1    2    0    0 -0.18273089030E+02  0.19266498557E+02 -0.12060682733E+02  0.29164427259E+02  0.00000000000E+00 0. -1.
</event>
<event>
 6    1  0.2809573E-005  0.2833156E+03  0.7818608E-02  0.1161726E+00
          2   -1    0    0  502    0  0.00000000000E+00  0.00000000000E+00  0.60577527227E+03  0.60577527227E+03  0.00000000000E+00 0. -1.
          1   -1    0    0  501    0 -0.00000000000E+00 -0.00000000000E+00 -0.24311808282E+04  0.24311808282E+04  0.00000000000E+00 0.  1.
          2    1    1    2  501    0 -0.18119468095E+03 -0.19862871214E+03  0.32483455670E+03  0.42166617948E+03  0.00000000000E+00 0. -1.
          1    1    1    2  502    0  0.21125219997E+03  0.16175970556E+03 -0.23553863071E+04  0.23703667121E+04  0.00000000000E+00 0.  1.
         22    1    1    2    0    0 -0.51871028613E+02 -0.11558785711E+02  0.28168355455E+02  0.60147031394E+02  0.00000000000E+00 0.  1.
         22    1    1    2    0    0  0.21813509595E+02  0.48427792288E+02  0.17697783899E+03  0.18477617747E+03  0.00000000000E+00 0.  1.
</event>
<event>
 6    1  0.2809573E-005  0.1442077E+03  0.7818608E-02  0.1268367E+00
          2   -1    0    0  502    0  0.00000000000E+00  0.00000000000E+00  0.10746867101E+04  0.10746867101E+04  0.00000000000E+00 0. -1.
          1   -1    0    0  501    0 -0.00000000000E+00 -0.00000000000E+00 -0.51877905828E+02  0.51877905828E+02  0.00000000000E+00 0.  1.
          2    1    1    2  501    0 -0.42343572916E+02 -0.20891472475E+02  0.47042575454E+03  0.47278940589E+03  0.00000000000E+00 0. -1.
          1    1    1    2  502    0  0.14764542397E+02  0.79559249832E+02 -0.36173463533E+01  0.80998463816E+02  0.00000000000E+00 0.  1.
         22    1    1    2    0    0 -0.41929902926E+02  0.22163784122E+00  0.11354400924E+03  0.12103886945E+03  0.00000000000E+00 0. -1.
         22    1    1    2    0    0  0.69508933445E+02 -0.58889415198E+02  0.44245638685E+03  0.45173787678E+03  0.00000000000E+00 0. -1.
</event>
<event>
 6    1  0.2809573E-005  0.1121154E+03  0.7818608E-02  0.1296379E+00
          2   -1    0    0  502    0  0.00000000000E+00  0.00000000000E+00  0.12026241167E+03  0.12026241167E+03  0.00000000000E+00 0.  1.
          1   -1    0    0  501    0 -0.00000000000E+00 -0.00000000000E+00 -0.47230550655E+03  0.47230550655E+03  0.00000000000E+00 0.  1.
          2    1    1    2  501    0  0.56907779597E+02 -0.30528295717E+02  0.71598890210E+01  0.64974889217E+02  0.00000000000E+00 0.  1.
          1    1    1    2  502    0 -0.22894634290E+02 -0.69402147096E+01 -0.38655011395E+03  0.38728971256E+03  0.00000000000E+00 0.  1.
         22    1    1    2    0    0 -0.20168286660E+02  0.43512297414E+02 -0.45378732974E+02  0.66025065084E+02  0.00000000000E+00 0.  1.
         22    1    1    2    0    0 -0.13844858647E+02 -0.60437869875E+01  0.72725863028E+02  0.74278251362E+02  0.00000000000E+00 0.  1.
</event>
<event>
 6    1  0.2809573E-005  0.1061609E+03  0.7818608E-02  0.1309636E+00
          2   -1    0    0  502    0  0.00000000000E+00  0.00000000000E+00  0.74774234735E+02  0.74774234735E+02  0.00000000000E+00 0. -1.
          1   -1    0    0  501    0 -0.00000000000E+00 -0.00000000000E+00 -0.11243842052E+04  0.11243842052E+04  0.00000000000E+00 0. -1.
          2    1    1    2  501    0 -0.19082329904E+02 -0.46034985839E+02 -0.28209394209E+02  0.57263646036E+02  0.00000000000E+00 0. -1.
          1    1    1    2  502    0  0.57428788361E+01  0.30093312652E+02 -0.10163726402E+04  0.10168342696E+04  0.00000000000E+00 0. -1.
         22    1    1    2    0    0 -0.13514479581E+01  0.30787960725E+02 -0.59343094933E+02  0.66867988256E+02  0.00000000000E+00 0. -1.
         22    1    1    2    0    0  0.14690899026E+02 -0.14846287539E+02  0.54315158865E+02  0.58192536036E+02  0.00000000000E+00 0. -1.
</event>
<event>
 6    1  0.2809573E-005  0.7579734E+02  0.7818608E-02  0.1355358E+00
          2   -1    0    0  502    0  0.00000000000E+00  0.00000000000E+00  0.16404058381E+03  0.16404058381E+03  0.00000000000E+00 0.  1.
          1   -1    0    0  501    0 -0.00000000000E+00 -0.00000000000E+00 -0.15951744957E+04  0.15951744957E+04  0.00000000000E+00 0.  1.
          2    1    1    2  501    0  0.88857032441E+00 -0.39486307545E+02  0.75785550186E+01  0.40216819081E+02  0.00000000000E+00 0.  1.
          1    1    1    2  502    0 -0.12570942733E+02  0.19800878373E+02 -0.15504794219E+04  0.15506568096E+04  0.00000000000E+00 0.  1.
         22    1    1    2    0    0 -0.37132973380E+02 -0.14223833134E+02 -0.21805215130E+01  0.39823734320E+02  0.00000000000E+00 0. -1.
         22    1    1    2    0    0  0.48815345789E+02  0.33909262307E+02  0.11394747651E+03  0.12851771651E+03  0.00000000000E+00 0.  1.
</event>
<event>
 6    1  0.2809573E-005  0.1211559E+03  0.7818608E-02  0.1293724E+00
          2   -1    0    0  502    0  0.00000000000E+00  0.00000000000E+00  0.29008350750E+02  0.29008350750E+02  0.00000000000E+00 0.  1.
          1   -1    0    0  501    0 -0.00000000000E+00 -0.00000000000E+00 -0.10221808131E+04  0.10221808131E+04  0.00000000000E+00 0. -1.
          2    1    1    2  501    0  0.60300522333E+02 -0.25645288357E+02 -0.15697502652E+03  0.17010288874E+03  0.00000000000E+00 0.  1.
          1    1    1    2  502    0 -0.60150098531E+02  0.43871339068E+02 -0.66824455862E+03  0.67237899943E+03  0.00000000000E+00 0. -1.
         22    1    1    2    0    0  0.34598125151E+02  0.26651254539E+02 -0.16018942101E+02  0.46518019503E+02  0.00000000000E+00 0.  1.
         22    1    1    2    0    0 -0.34748548954E+02 -0.44877305249E+02 -0.15193393512E+03  0.16218925618E+03  0.00000000000E+00 0. -1.
</event>
<event>
 6    1  0.2809573E-005  0.1324801E+03  0.7818608E-02  0.1268323E+00
          2   -1    0    0  502    0  0.00000000000E+00  0.00000000000E+00  0.21741431435E+03  0.21741431435E+03  0.00000000000E+00 0. -1.
          1   -1    0    0  501    0 -0.00000000000E+00 -0.00000000000E+00 -0.14428794881E+04  0.14428794881E+04  0.00000000000E+00 0.  1.
          2    1    1    2  501    0 -0.93454583313E+02 -0.91188558907E+02  0.16000610565E+03  0.20652134578E+03  0.00000000000E+00 0. -1.
          1    1    1    2  502    0  0.55277954663E+02  0.11011814292E+03 -0.12739204963E+04  0.12798652619E+04  0.00000000000E+00 0.  1.
         22    1    1    2    0    0  0.48475393018E+02 -0.24080698809E+02 -0.13627610927E+03  0.14663192607E+03  0.00000000000E+00 0. -1.
         22    1    1    2    0    0 -0.10298764368E+02  0.51511148002E+01  0.24725326155E+02  0.27275268736E+02  0.00000000000E+00 0.  1.
</event>
<event>
 6    1  0.2809573E-005  0.1781318E+03  0.7818608E-02  0.1261828E+00
          2   -1    0    0  502    0  0.00000000000E+00  0.00000000000E+00  0.90162698937E+02  0.90162698937E+02  0.00000000000E+00 0. -1.
          1   -1    0    0  501    0 -0.00000000000E+00 -0.00000000000E+00 -0.61802402291E+03  0.61802402291E+03  0.00000000000E+00 0. -1.
          2    1    1    2  501    0  0.30883093105E+02  0.11421480511E+03 -0.24992305269E+03  0.27651459168E+03  0.00000000000E+00 0. -1.
          1    1    1    2  502    0  0.26763565374E+02 -0.16614017802E+03 -0.21337909269E+03  0.27175261615E+03  0.00000000000E+00 0. -1.
         22    1    1    2    0    0 -0.33050751546E+02  0.46121741084E+02 -0.10083829811E+03  0.11570622085E+03  0.00000000000E+00 0. -1.
         22    1    1    2    0    0 -0.24595906933E+02  0.58036318308E+01  0.36279119514E+02  0.44213293170E+02  0.00000000000E+00 0. -1.
</event>
<event>
 6    1  0.2809573E-005  0.1287388E+03  0.7818608E-02  0.1282900E+00
          2   -1    0    0  502    0  0.00000000000E+00  0.00000000000E+00  0.19575419004E+03  0.19575419004E+03  0.00000000000E+00 0. -1.
          1   -1    0    0  501    0 -0.00000000000E+00 -0.00000000000E+00 -0.18760721624E+04  0.18760721624E+04  0.00000000000E+00 0.  1.
          2    1    1    2  501    0 -0.36117681369E+02 -0.29758949552E+02 -0.88125572029E+01  0.47620826855E+02  0.00000000000E+00 0. -1.
          1    1    1    2  502    0  0.30322263690E+02 -0.46209955745E+02 -0.18171493828E+04  0.18179897357E+04  0.00000000000E+00 0.  1.
         22    1    1    2    0    0  0.44245986461E+02  0.53356552434E+02  0.18892021235E+02  0.71843840876E+02  0.00000000000E+00 0. -1.
         22    1    1    2    0    0 -0.38450568782E+02  0.22612352863E+02  0.12675194644E+03  0.13437194897E+03  0.00000000000E+00 0. -1.
</event>
<event>
 6    1  0.2809573E-005  0.7259112E+02  0.7818608E-02  0.1417099E+00
          2   -1    0    0  502    0  0.00000000000E+00  0.00000000000E+00  0.54765003239E+02  0.54765003239E+02  0.00000000000E+00 0.  1.
          1   -1    0    0  501    0 -0.00000000000E+00 -0.00000000000E+00 -0.13484122066E+03  0.13484122066E+03  0.00000000000E+00 0.  1.
          2    1    1    2  501    0 -0.21879274510E+02  0.16635498823E+01 -0.69201916248E+01  0.23007805271E+02  0.00000000000E+00 0.  1.
          1    1    1    2  502    0  0.18628660998E+02  0.13660891511E+02 -0.53511881353E+01  0.23712489998E+02  0.00000000000E+00 0.  1.
         22    1    1    2    0    0 -0.21846514228E+02  0.12951633481E+02  0.29244010995E+02  0.38732766140E+02  0.00000000000E+00 0.  1.
         22    1    1    2    0    0  0.25097127740E+02 -0.28276074874E+02 -0.97048848651E+02  0.10415316248E+03  0.00000000000E+00 0.  1.
</event>
<event>
 6    1  0.2809573E-005  0.1191857E+03  0.7818608E-02  0.1245370E+00
          2   -1    0    0  502    0  0.00000000000E+00  0.00000000000E+00  0.43131797297E+03  0.43131797297E+03  0.00000000000E+00 0.  1.
          1   -1    0    0  501    0 -0.00000000000E+00 -0.00000000000E+00 -0.42291899595E+03  0.42291899595E+03  0.00000000000E+00 0.  1.
          2    1    1    2  501    0 -0.22363372076E+02 -0.98408769043E+02  0.21921993375E+02  0.10327139017E+03  0.00000000000E+00 0.  1.
          1    1    1    2  502    0 -0.31427422421E+02  0.93450722713E+01 -0.36398051555E+03  0.36545427751E+03  0.00000000000E+00 0.  1.
         22    1    1    2    0    0  0.48127548512E+02  0.10728566816E+03  0.34665436043E+03  0.36605425981E+03  0.00000000000E+00 0.  1.
         22    1    1    2    0    0  0.56632459851E+01 -0.18221971390E+02  0.38031387540E+01  0.19457041420E+02  0.00000000000E+00 0.  1.
</event>
<event>
 6    1  0.2809573E-005  0.1555197E+03  0.7818608E-02  0.1196039E+00
          2   -1    0    0  502    0  0.00000000000E+00  0.00000000000E+00  0.26853469571E+03  0.26853469571E+03  0.00000000000E+00 0.  1.
          1   -1    0    0  501    0 -0.00000000000E+00 -0.00000000000E+00 -0.44854670776E+03  0.44854670776E+03  0.00000000000E+00 0.  1.
          2    1    1    2  501    0 -0.12433496670E+03 -0.10597463630E+02 -0.14640424364E+03  0.19236863761E+03  0.00000000000E+00 0.  1.
          1    1    1    2  502    0 -0.82673449603E+01 -0.40841203994E+02 -0.23930805863E+03  0.24290883035E+03  0.00000000000E+00 0.  1.
         22    1    1    2    0    0 -0.12594604307E+02  0.12634092675E+02 -0.87994615752E+01  0.19891578102E+02  0.00000000000E+00 0.  1.
         22    1    1    2    0    0  0.14519691597E+03  0.38804574949E+02  0.21449975179E+03  0.26191235741E+03  0.00000000000E+00 0.  1.
</event>
<event>
 6    1  0.2809573E-005  0.1347471E+03  0.7818608E-02  0.1323057E+00
          2   -1    0    0  502    0  0.00000000000E+00  0.00000000000E+00  0.11254119665E+03  0.11254119665E+03  0.00000000000E+00 0.  1.
          1   -1    0    0  501    0 -0.00000000000E+00 -0.00000000000E+00 -0.34460176895E+03  0.34460176895E+03  0.00000000000E+00 0.  1.
          2    1    1    2  501    0  0.43865003880E+02 -0.36636594558E+02  0.60668415218E+01  0.57473343319E+02  0.00000000000E+00 0.  1.
          1    1    1    2  502    0 -0.90333572955E+02  0.76736438380E+02 -0.22664220437E+03  0.25576419643E+03  0.00000000000E+00 0.  1.
         22    1    1    2    0    0  0.13145105832E+02  0.13181769467E+02  0.51602666894E+02  0.54857889899E+02  0.00000000000E+00 0. -1.
         22    1    1    2    0    0  0.33323463243E+02 -0.53281613289E+02 -0.63087876350E+02  0.89047535955E+02  0.00000000000E+00 0.  1.
</event>
<event>
 6    1  0.2809573E-005  0.1332387E+03  0.7818608E-02  0.1360386E+00
          2   -1    0    0  502    0  0.00000000000E+00  0.00000000000E+00  0.84216221874E+02  0.84216221874E+02  0.00000000000E+00 0. -1.
          1   -1    0    0  501    0 -0.00000000000E+00 -0.00000000000E+00 -0.11480803398E+04  0.11480803398E+04  0.00000000000E+00 0. -1.
          2    1    1    2  501    0 -0.73133595587E+02 -0.32124232378E+02 -0.93692441492E+02  0.12312092715E+03  0.00000000000E+00 0. -1.
          1    1    1    2  502    0  0.26291110084E+02  0.42718389228E+02 -0.97709381107E+03  0.97838049801E+03  0.00000000000E+00 0. -1.
         22    1    1    2    0    0  0.49946654527E+02 -0.98188739249E+00 -0.51357551070E+02  0.71646566234E+02  0.00000000000E+00 0. -1.
         22    1    1    2    0    0 -0.31041690232E+01 -0.96122694577E+01  0.58279685753E+02  0.59148570236E+02  0.00000000000E+00 0. -1.
</event>
<event>
 6    1  0.2809573E-005  0.8453588E+02  0.7818608E-02  0.1356117E+00
          2   -1    0    0  502    0  0.00000000000E+00  0.00000000000E+00  0.97557309616E+02  0.97557309616E+02  0.00000000000E+00 0.  1.
          1   -1    0    0  501    0 -0.00000000000E+00 -0.00000000000E+00 -0.48714021222E+03  0.48714021222E+03  0.00000000000E+00 0.  1.
          2    1    1    2  501    0 -0.49804004803E+02 -0.26469663281E+02 -0.67655315245E+02  0.88081346774E+02  0.00000000000E+00 0.  1.
          1    1    1    2  502    0  0.34684286856E+02 -0.18844162692E+02 -0.35876259499E+03  0.36092755753E+03  0.00000000000E+00 0.  1.
         22    1    1    2    0    0 -0.25563158768E+02  0.39834799658E+02 -0.30871626597E+02  0.56509677744E+02  0.00000000000E+00 0.  1.
         22    1    1    2    0    0  0.40682876716E+02  0.54790263147E+01  0.67706634227E+02  0.79178939786E+02  0.00000000000E+00 0.  1.
</event>
<event>
 6    1  0.2809573E-005  0.1451551E+03  0.7818608E-02  0.1241487E+00
          2   -1    0    0  502    0  0.00000000000E+00  0.00000000000E+00  0.21225063227E+03  0.21225063227E+03  0.00000000000E+00 0. -1.
          1   -1    0    0  501    0 -0.00000000000E+00 -0.00000000000E+00 -0.23630798187E+03  0.23630798187E+03  0.00000000000E+00 0. -1.
          2    1    1    2  501    0 -0.88247937039E+02 -0.18454688037E+02  0.31466866577E+02  0.95490510493E+02  0.00000000000E+00 0. -1.
          1    1    1    2  502    0  0.11724188386E+03  0.44099269570E+02 -0.14977137519E+03  0.19524822594E+03  0.00000000000E+00 0. -1.
         22    1    1    2    0    0 -0.35036830452E+02  0.44138617402E+02  0.37741954462E+02  0.67825158761E+02  0.00000000000E+00 0. -1.
         22    1    1    2    0    0  0.60428836318E+01 -0.69783198936E+02  0.56505204555E+02  0.89994718945E+02  0.00000000000E+00 0. -1.
</event>
<event>
 6    1  0.2809573E-005  0.1296026E+03  0.7818608E-02  0.1231082E+00
          2   -1    0    0  502    0  0.00000000000E+00  0.00000000000E+00  0.15152070240E+03  0.15152070240E+03  0.00000000000E+00 0. -1.
          1   -1    0    0  501    0 -0.00000000000E+00 -0.00000000000E+00 -0.28047272661E+03  0.28047272661E+03  0.00000000000E+00 0. -1.
          2    1    1    2  501    0 -0.98860519241E+02 -0.23322847333E+02  0.53853478648E+01  0.10171705582E+03  0.00000000000E+00 0. -1.
          1    1    1    2  502    0  0.31061585257E+02 -0.22338258411E+02 -0.17019947765E+03  0.17444678862E+03  0.00000000000E+00 0. -1.
         22    1    1    2    0    0 -0.27585737107E+02 -0.16328152407E+02  0.26671703944E+02  0.41700854236E+02  0.00000000000E+00 0.  1.
         22    1    1    2    0    0  0.95384671091E+02  0.61989258151E+02  0.91904016399E+01  0.11412873033E+03  0.00000000000E+00 0. -1.
</event>
<event>
 6    1  0.2809573E-005  0.9610135E+02  0.7818608E-02  0.1349214E+00
          2   -1    0    0  502    0  0.00000000000E+00  0.00000000000E+00  0.85093487873E+02  0.85093487873E+02  0.00000000000E+00 0. -1.
          1   -1    0    0  501    0 -0.00000000000E+00 -0.00000000000E+00 -0.30221425357E+03  0.30221425357E+03  0.00000000000E+00 0. -1.
          2    1    1    2  501    0  0.95531417485E+01 -0.42786922601E+02 -0.10702132165E+03  0.11565269798E+03  0.00000000000E+00 0. -1.
          1    1    1    2  502    0  0.48099795783E+02  0.88350200938E+02 -0.25331085954E+02  0.10373529908E+03  0.00000000000E+00 0. -1.
         22    1    1    2    0    0 -0.25166315411E+02 -0.43922892294E+02 -0.11365374532E+03  0.12441759411E+03  0.00000000000E+00 0. -1.
         22    1    1    2    0    0 -0.32486622120E+02 -0.16403860437E+01  0.28885387224E+02  0.43502150271E+02  0.00000000000E+00 0. -1.
</event>
<event>
 6    1  0.2809573E-005  0.8802963E+02  0.7818608E-02  0.1360228E+00
          2   -1    0    0  502    0  0.00000000000E+00  0.00000000000E+00  0.15399285914E+03  0.15399285914E+03  0.00000000000E+00 0. -1.
          1   -1    0    0  501    0 -0.00000000000E+00 -0.00000000000E+00 -0.45612496174E+03  0.45612496174E+03  0.00000000000E+00 0. -1.
          2    1    1    2  501    0 -0.86803726987E+02  0.22643157967E+02 -0.10767045350E+03  0.14014466161E+03  0.00000000000E+00 0. -1.
          1    1    1    2  502    0  0.76796127583E+02 -0.79794365294E+00 -0.29475027562E+03  0.30459154109E+03  0.00000000000E+00 0. -1.
         22    1    1    2    0    0  0.32623505663E+02 -0.12997491275E+02  0.12553302208E+03  0.13035247422E+03  0.00000000000E+00 0. -1.
         22    1    1    2    0    0 -0.22615906259E+02 -0.88477230393E+01 -0.25244395568E+02  0.35029143959E+02  0.00000000000E+00 0. -1.
</event>
<event>
 6    1  0.2809573E-005  0.2892489E+03  0.7818608E-02  0.1157287E+00
          2   -1    0    0  502    0  0.00000000000E+00  0.00000000000E+00  0.12254964590E+03  0.12254964590E+03  0.00000000000E+00 0.  1.
          1   -1    0    0  501    0 -0.00000000000E+00 -0.00000000000E+00 -0.84784769956E+03  0.84784769956E+03  0.00000000000E+00 0.  1.
          2    1    1    2  501    0 -0.35569415154E+02  0.37357421114E+02 -0.53766440599E+03  0.54013310736E+03  0.00000000000E+00 0.  1.
          1    1    1    2  502    0 -0.77546859632E+01 -0.15154918173E+03 -0.20734713253E+03  0.25694381294E+03  0.00000000000E+00 0.  1.
         22    1    1    2    0    0  0.50572935146E+02  0.22493366548E+02  0.51891312239E+02  0.75870162738E+02  0.00000000000E+00 0.  1.
         22    1    1    2    0    0 -0.72488340291E+01  0.91698394071E+02 -0.32177827384E+02  0.97450262417E+02  0.00000000000E+00 0. -1.
</event>
<event>
 6    1  0.2809573E-005  0.1426764E+03  0.7818608E-02  0.1265594E+00
          2   -1    0    0  502    0  0.00000000000E+00  0.00000000000E+00  0.22804994560E+03  0.22804994560E+03  0.00000000000E+00 0. -1.
          1   -1    0    0  501    0 -0.00000000000E+00 -0.00000000000E+00 -0.36167159787E+03  0.36167159787E+03  0.00000000000E+00 0.  1.
          2    1    1    2  501    0  0.15591005858E+02  0.55404947964E+02  0.89962732025E+01  0.58255649117E+02  0.00000000000E+00 0. -1.
          1    1    1    2  502    0 -0.35368636659E+02 -0.11101409018E+03 -0.30115944559E+03  0.32291187706E+03  0.00000000000E+00 0.  1.
         22    1    1    2    0    0 -0.45549957180E+02 -0.36037932479E+01  0.39383940129E+02  0.60323135404E+02  0.00000000000E+00 0. -1.
         22    1    1    2    0    0  0.65327587980E+02  0.59212935468E+02  0.11915757999E+03  0.14823088189E+03  0.00000000000E+00 0. -1.
</event>
<event>
 6    1  0.2809573E-005  0.1059864E+03  0.7818608E-02  0.1359202E+00
          2   -1    0    0  502    0  0.00000000000E+00  0.00000000000E+00  0.18687802074E+02  0.18687802074E+02  0.00000000000E+00 0. -1.
          1   -1    0    0  501    0 -0.00000000000E+00 -0.00000000000E+00 -0.10835606995E+04  0.10835606995E+04  0.00000000000E+00 0.  1.
          2    1    1    2  501    0  0.14578515216E+02 -0.18399129996E+02 -0.17108317499E+03  0.17268617158E+03  0.00000000000E+00 0. -1.
          1    1    1    2  502    0 -0.61244970827E+02  0.78020986551E+02 -0.46078688173E+03  0.47134145921E+03  0.00000000000E+00 0.  1.
         22    1    1    2    0    0  0.90631911087E+01  0.18355895997E+02 -0.43695391204E+01  0.20932587586E+02  0.00000000000E+00 0. -1.
         22    1    1    2    0    0  0.37603264502E+02 -0.77977752552E+02 -0.42863330158E+03  0.43728828320E+03  0.00000000000E+00 0. -1.
</event>
<event>
 6    1  0.2809573E-005  0.5197711E+02  0.7818608E-02  0.1444110E+00
          2   -1    0    0  502    0  0.00000000000E+00  0.00000000000E+00  0.19703945910E+03  0.19703945910E+03  0.00000000000E+00 0.  1.
          1   -1    0    0  501    0 -0.00000000000E+00 -0.00000000000E+00 -0.16388124936E+03  0.16388124936E+03  0.00000000000E+00 0.  1.
          2    1    1    2  501    0  0.10206342885E+02  0.19003766930E+02 -0.17190811003E+02  0.27583266224E+02  0.00000000000E+00 0.  1.
          1    1    1    2  502    0 -0.20867176213E+02 -0.12218974415E+02 -0.11809594125E+03  0.12054623063E+03  0.00000000000E+00 0.  1.
         22    1    1    2    0    0 -0.51613160344E+01  0.35378346825E+02 -0.26671173706E+01  0.35852198292E+02  0.00000000000E+00 0. -1.
         22    1    1    2    0    0  0.15822149362E+02 -0.42163139341E+02  0.17111207936E+03  0.17693901332E+03  0.00000000000E+00 0.  1.
</event>
<event>
 6    1  0.2809573E-005  0.7957678E+02  0.7818608E-02  0.1336393E+00
          2   -1    0    0  502    0  0.00000000000E+00  0.00000000000E+00  0.11898059279E+03  0.11898059279E+03  0.00000000000E+00 0. -1.
          1   -1    0    0  501    0 -0.00000000000E+00 -0.00000000000E+00 -0.14885639047E+03  0.14885639047E+03  0.00000000000E+00 0.  1.
          2    1    1    2  501    0  0.28051240087E+02 -0.32741015585E+02 -0.14314016276E+02  0.45428374766E+02  0.00000000000E+00 0. -1.
          1    1    1    2  502    0 -0.51932155757E+02  0.27652278947E+02 -0.64303121158E+02  0.87157837991E+02  0.00000000000E+00 0.  1.
         22    1    1    2    0    0 -0.14857059703E+02  0.58251436198E+02  0.27674920134E+02  0.66180535254E+02  0.00000000000E+00 0. -1.
         22    1    1    2    0    0  0.38737975373E+02 -0.53162699559E+02  0.21066419620E+02  0.69070235239E+02  0.00000000000E+00 0. -1.
</event>
<event>
 6    1  0.2809573E-005  0.8574918E+02  0.7818608E-02  0.1371672E+00
          2   -1    0    0  502    0  0.00000000000E+00  0.00000000000E+00  0.10871227962E+03  0.10871227962E+03  0.00000000000E+00 0. -1.
          1   -1    0    0  501    0 -0.00000000000E+00 -0.00000000000E+00 -0.14638313323E+03  0.14638313323E+03  0.00000000000E+00 0. -1.
          2    1    1    2  501    0  0.13736424899E+02 -0.27362004443E+02 -0.23968094695E+02  0.38882363861E+02  0.00000000000E+00 0. -1.
          1    1    1    2  502    0  0.39760046878E+02  0.62290581698E+02 -0.28028355511E+02  0.79035223848E+02  0.00000000000E+00 0. -1.
         22    1    1    2    0    0 -0.27670284403E+02 -0.52788129127E+02 -0.41847208664E+02  0.72824584370E+02  0.00000000000E+00 0. -1.
         22    1    1    2    0    0 -0.25826187374E+02  0.17859551872E+02  0.56172805260E+02  0.64353240774E+02  0.00000000000E+00 0. -1.
</event>
<event>
 6    1  0.2809573E-005  0.8540228E+02  0.7818608E-02  0.1320772E+00
          2   -1    0    0  502    0  0.00000000000E+00  0.00000000000E+00  0.28343793823E+03  0.28343793823E+03  0.00000000000E+00 0. -1.
          1   -1    0    0  501    0 -0.00000000000E+00 -0.00000000000E+00 -0.19585287231E+03  0.19585287231E+03  0.00000000000E+00 0.  1.
          2    1    1    2  501    0  0.11631458796E+02  0.46909921253E+02 -0.44314287855E+01  0.48533175322E+02  0.00000000000E+00 0. -1.
          1    1    1    2  502    0  0.13484600615E+02  0.25111247729E+02 -0.14753695923E+03  0.15026497781E+03  0.00000000000E+00 0.  1.
         22    1    1    2    0    0 -0.38783608774E+02 -0.69895128454E+02  0.25044203476E+03  0.26288915928E+03  0.00000000000E+00 0. -1.
         22    1    1    2    0    0  0.13667549362E+02 -0.21260405286E+01 -0.10888580822E+02  0.17603498125E+02  0.00000000000E+00 0. -1.
</event>
<event>
 6    1  0.2809573E-005  0.1294970E+03  0.7818608E-02  0.1255463E+00
          2   -1    0    0  502    0  0.00000000000E+00  0.00000000000E+00  0.39308831894E+03  0.39308831894E+03  0.00000000000E+00 0. -1.
          1   -1    0    0  501    0 -0.00000000000E+00 -0.00000000000E+00 -0.67999589375E+02  0.67999589375E+02  0.00000000000E+00 0. -1.
          2    1    1    2  501    0 -0.67906286483E+02 -0.41371950256E+02  0.13082580364E+03  0.15309569854E+03  0.00000000000E+00 0. -1.
          1    1    1    2  502    0  0.31991080435E+02 -0.13056120525E+02 -0.29191561218E+02  0.45233159926E+02  0.00000000000E+00 0. -1.
         22    1    1    2    0    0 -0.15449109913E+00  0.79571104170E+02  0.80473942008E+02  0.11317084354E+03  0.00000000000E+00 0. -1.
         22    1    1    2    0    0  0.36069697146E+02 -0.25143033389E+02  0.14298054513E+03  0.14958820630E+03  0.00000000000E+00 0. -1.
</event>
<event>
 6    1  0.2809573E-005  0.1415152E+03  0.7818608E-02  0.1236187E+00
          2   -1    0    0  502    0  0.00000000000E+00  0.00000000000E+00  0.61743792338E+02  0.61743792338E+02  0.00000000000E+00 0.  1.
          1   -1    0    0  501    0 -0.00000000000E+00 -0.00000000000E+00 -0.11331143679E+04  0.11331143679E+04  0.00000000000E+00 0. -1.
          2    1    1    2  501    0 -0.18689565274E+02  0.74217238972E+01 -0.15917638837E+03  0.16044159202E+03  0.00000000000E+00 0.  1.
          1    1    1    2  502    0 -0.28715149136E+02  0.65700501676E+01 -0.89956870567E+03  0.90005087722E+03  0.00000000000E+00 0. -1.
         22    1    1    2    0    0 -0.40801027758E+02  0.86365918638E+01  0.36352270749E+01  0.41863223252E+02  0.00000000000E+00 0.  1.
         22    1    1    2    0    0  0.88205742168E+02 -0.22628365929E+02 -0.16260708595E+02  0.92502467751E+02  0.00000000000E+00 0.  1.
</event>
<event>
 6    1  0.2809573E-005  0.1144815E+03  0.7818608E-02  0.1257285E+00
          2   -1    0    0  502    0  0.00000000000E+00  0.00000000000E+00  0.38352278214E+03  0.38352278214E+03  0.00000000000E+00 0.  1.
          1   -1    0    0  501    0 -0.00000000000E+00 -0.00000000000E+00 -0.78458252691E+03  0.78458252691E+03  0.00000000000E+00 0. -1.
          2    1    1    2  501    0  0.66792656512E+02  0.62818273716E+02  0.18926943530E+03  0.21031004164E+03  0.00000000000E+00 0.  1.
          1    1    1    2  502    0 -0.27014956786E+02  0.10406149877E+02 -0.74275740860E+03  0.74332137321E+03  0.00000000000E+00 0. -1.
         22    1    1    2    0    0 -0.58437121024E+02 -0.76429690717E+02  0.46483669200E+02  0.10685095338E+03  0.00000000000E+00 0.  1.
         22    1    1    2    0    0  0.18659421298E+02  0.32052671246E+01  0.10594455932E+03  0.10762294082E+03  0.00000000000E+00 0.  1.
</event>
<event>
 6    1  0.2809573E-005  0.1000414E+03  0.7818608E-02  0.1287154E+00
          2   -1    0    0  502    0  0.00000000000E+00  0.00000000000E+00  0.48128090421E+03  0.48128090421E+03  0.00000000000E+00 0.  1.
          1   -1    0    0  501    0 -0.00000000000E+00 -0.00000000000E+00 -0.40308756773E+03  0.40308756773E+03  0.00000000000E+00 0.  1.
          2    1    1    2  501    0  0.52834375563E+02  0.12191798030E+02  0.93370369912E+02  0.10797285380E+03  0.00000000000E+00 0.  1.
          1    1    1    2  502    0 -0.93520849777E+01  0.37143969683E+02 -0.38148221680E+03  0.38340033609E+03  0.00000000000E+00 0.  1.
         22    1    1    2    0    0  0.41096726802E+02 -0.34137734640E+02  0.10315275780E+03  0.11616719555E+03  0.00000000000E+00 0.  1.
         22    1    1    2    0    0 -0.84579017387E+02 -0.15198033073E+02  0.26315242557E+03  0.27682808650E+03  0.00000000000E+00 0.  1.
</event>
<event>
 6    1  0.2809573E-005  0.1310327E+03  0.7818608E-02  0.1240800E+00
          2   -1    0    0  502    0  0.00000000000E+00  0.00000000000E+00  0.11966393263E+03  0.11966393263E+03  0.00000000000E+00 0. -1.
          1   -1    0    0  501    0 -0.00000000000E+00 -0.00000000000E+00 -0.38428116513E+03  0.38428116513E+03  0.00000000000E+00 0. -1.
          2    1    1    2  501    0 -0.63777232892E+02 -0.54204771065E+02 -0.17707857399E+02  0.85552678831E+02  0.00000000000E+00 0. -1.
          1    1    1    2  502    0  0.19821819470E+02  0.30886288946E+01 -0.27407841723E+03  0.27481161356E+03  0.00000000000E+00 0. -1.
         22    1    1    2    0    0  0.31238572546E+02  0.86343839578E+02 -0.80455454214E+01  0.92172869376E+02  0.00000000000E+00 0. -1.
         22    1    1    2    0    0  0.12716840876E+02 -0.35227697408E+02  0.35214587556E+02  0.51407935996E+02  0.00000000000E+00 0. -1.
</event>
<event>
 6    1  0.2809573E-005  0.1835407E+03  0.7818608E-02  0.1297780E+00
          2   -1    0    0  502    0  0.00000000000E+00  0.00000000000E+00  0.64562138981E+02  0.64562138981E+02  0.00000000000E+00 0. -1.
          1   -1    0    0  501    0 -0.00000000000E+00 -0.00000000000E+00 -0.50887680004E+03  0.50887680004E+03  0.00000000000E+00 0. -1.
          2    1    1    2  501    0  0.25934014031E+02 -0.45003932563E+00 -0.14828195711E+02  0.29877265725E+02  0.00000000000E+00 0. -1.
          1    1    1    2  502    0  0.50430481469E+02 -0.12673484332E+03 -0.20407448691E+03  0.24546150447E+03  0.00000000000E+00 0. -1.
         22    1    1    2    0    0 -0.88010179538E+02  0.12753501718E+03 -0.23602164554E+03  0.28234232675E+03  0.00000000000E+00 0. -1.
         22    1    1    2    0    0  0.11645684038E+02 -0.35013453589E+00  0.10609667096E+02  0.15757842073E+02  0.00000000000E+00 0. -1.
</event>
<event>
 6    1  0.2809573E-005  0.1460138E+03  0.7818608E-02  0.1266073E+00
          2   -1    0    0  502    0  0.00000000000E+00  0.00000000000E+00  0.43554899319E+03  0.43554899319E+03  0.00000000000E+00 0. -1.
          1   -1    0    0  501    0 -0.00000000000E+00 -0.00000000000E+00 -0.38746436660E+02  0.38746436660E+02  0.00000000000E+00 0. -1.
          2    1    1    2  501    0 -0.33292581163E+02  0.58693839909E+02  0.37280061577E+02  0.77091930803E+02  0.00000000000E+00 0. -1.
          1    1    1    2  502    0 -0.89196035811E+01 -0.20215064385E+02  0.17618204921E+02  0.28259676233E+02  0.00000000000E+00 0. -1.
         22    1    1    2    0    0  0.10683915153E+02 -0.68250404643E+02  0.90635814692E+02  0.11396102264E+03  0.00000000000E+00 0. -1.
         22    1    1    2    0    0  0.31528269591E+02  0.29771629119E+02  0.25126847534E+03  0.25498280017E+03  0.00000000000E+00 0. -1.
</event>
<event>
 6    1  0.2809573E-005  0.1953692E+03  0.7818608E-02  0.1219621E+00
          2   -1    0    0  502    0  0.00000000000E+00  0.00000000000E+00  0.13486725983E+03  0.13486725983E+03  0.00000000000E+00 0.  1.
          1   -1    0    0  501    0 -0.00000000000E+00 -0.00000000000E+00 -0.10507690530E+04  0.10507690530E+04  0.00000000000E+00 0. -1.
          2    1    1    2  501    0  0.93734645848E+02  0.19455272045E+02 -0.18200474203E+02  0.97447158521E+02  0.00000000000E+00 0.  1.
          1    1    1    2  502    0 -0.16623688384E+02 -0.30561677052E+02 -0.93626789616E+03  0.93691404968E+03  0.00000000000E+00 0. -1.
         22    1    1    2    0    0  0.49924121169E+00 -0.36383307630E+02 -0.21486212689E+02  0.42256971633E+02  0.00000000000E+00 0.  1.
         22    1    1    2    0    0 -0.77610198676E+02  0.47489712637E+02  0.60052789891E+02  0.10901813298E+03  0.00000000000E+00 0.  1.
</event>
<event>
 6    1  0.2809573E-005  0.5243072E+02  0.7818608E-02  0.1461808E+00
          2   -1    0    0  502    0  0.00000000000E+00  0.00000000000E+00  0.22690173157E+03  0.22690173157E+03  0.00000000000E+00 0. -1.
          1   -1    0    0  501    0 -0.00000000000E+00 -0.00000000000E+00 -0.45744178193E+03  0.45744178193E+03  0.00000000000E+00 0. -1.
          2    1    1    2  501    0 -0.29482236839E+02 -0.18786016984E+02 -0.80258361626E+01  0.35868241793E+02  0.00000000000E+00 0. -1.
          1    1    1    2  502    0  0.49035352940E+02 -0.88623514817E+01 -0.41461727191E+03  0.41760087317E+03  0.00000000000E+00 0. -1.
         22    1    1    2    0    0  0.12370191305E+02  0.31737479597E+02  0.19556066466E+03  0.19850506998E+03  0.00000000000E+00 0. -1.
         22    1    1    2    0    0 -0.31923307405E+02 -0.40891111312E+01 -0.34576069553E+01  0.32369328559E+02  0.00000000000E+00 0. -1.
</event>
<event>
 6    1  0.2809573E-005  0.9087416E+02  0.7818608E-02  0.1316361E+00
          2   -1    0    0  502    0  0.00000000000E+00  0.00000000000E+00  0.41016580752E+03  0.41016580752E+03  0.00000000000E+00 0. -1.
          1   -1    0    0  501    0 -0.00000000000E+00 -0.00000000000E+00 -0.13299440831E+03  0.13299440831E+03  0.00000000000E+00 0. -1.
          2    1    1    2  501    0  0.17686762976E+02  0.28134959050E+02  0.55507040762E+02  0.64694892221E+02  0.00000000000E+00 0. -1.
          1    1    1    2  502    0  0.82812377433E+01 -0.19757430236E+02 -0.11541390057E+03  0.11738527758E+03  0.00000000000E+00 0. -1.
         22    1    1    2    0    0 -0.49027701600E+00 -0.57550331877E+02  0.82776870054E+02  0.10081810991E+03  0.00000000000E+00 0. -1.
         22    1    1    2    0    0 -0.25477723703E+02  0.49172803063E+02  0.25430138896E+03  0.26026193612E+03  0.00000000000E+00 0. -1.
</event>
<event>
 6    1  0.2809573E-005  0.1407843E+03  0.7818608E-02  0.1274768E+00
          2   -1    0    0  502    0  0.00000000000E+00  0.00000000000E+00  0.20076293311E+03  0.20076293311E+03  0.00000000000E+00 0. -1.
          1   -1    0    0  501    0 -0.00000000000E+00 -0.00000000000E+00 -0.21499513451E+03  0.21499513451E+03  0.00000000000E+00 0. -1.
          2    1    1    2  501    0 -0.10427539861E+02  0.19268095811E+02 -0.16188576913E+02  0.27240835637E+02  0.00000000000E+00 0. -1.
          1    1    1    2  502    0 -0.22881368451E+02 -0.93521807572E+02 -0.14989975049E+03  0.17815673075E+03  0.00000000000E+00 0. -1.
         22    1    1    2    0    0 -0.38833902112E+01  0.88505415797E+02  0.14503497381E+03  0.16995126646E+03  0.00000000000E+00 0. -1.
         22    1    1    2    0    0  0.37192298522E+02 -0.14251704036E+02  0.68211521891E+01  0.40409234767E+02  0.00000000000E+00 0.  1.
</event>
<event>
 6    1  0.2809573E-005  0.1643055E+03  0.7818608E-02  0.1265057E+00
          2   -1    0    0  502    0  0.00000000000E+00  0.00000000000E+00  0.13402032418E+03  0.13402032418E+03  0.00000000000E+00 0.  1.
          1   -1    0    0  501    0 -0.00000000000E+00 -0.00000000000E+00 -0.72941114812E+03  0.72941114812E+03  0.00000000000E+00 0. -1.
          2    1    1    2  501    0  0.29598699941E+02 -0.76174934267E+02 -0.41101792423E+01  0.81826629053E+02  0.00000000000E+00 0.  1.
          1    1    1    2  502    0 -0.41552760366E+01  0.29586990814E+02 -0.63686576067E+03  0.63756619535E+03  0.00000000000E+00 0. -1.
         22    1    1    2    0    0 -0.58405118049E+01 -0.30970052489E+02  0.55101322700E+02  0.63477645613E+02  0.00000000000E+00 0.  1.
         22    1    1    2    0    0 -0.19602912100E+02  0.77557995942E+02 -0.95162067230E+01  0.80561002276E+02  0.00000000000E+00 0. -1.
</event>
<event>
 6    1  0.2809573E-005  0.1372487E+03  0.7818608E-02  0.1263746E+00
          2   -1    0    0  502    0  0.00000000000E+00  0.00000000000E+00  0.18964509708E+03  0.18964509708E+03  0.00000000000E+00 0. -1.
          1   -1    0    0  501    0 -0.00000000000E+00 -0.00000000000E+00 -0.26054621536E+03  0.26054621536E+03  0.00000000000E+00 0. -1.
          2    1    1    2  501    0  0.55294877778E+02 -0.82428368327E+02 -0.12169908015E+03  0.15704338739E+03  0.00000000000E+00 0. -1.
          1    1    1    2  502    0 -0.12696238117E+03  0.40217185248E+02 -0.10676018965E+02  0.13360705671E+03  0.00000000000E+00 0. -1.
         22    1    1    2    0    0  0.36425886018E+02  0.23392817719E+01 -0.34228326701E+02  0.50038942436E+02  0.00000000000E+00 0.  1.
         22    1    1    2    0    0  0.35241617375E+02  0.39871901308E+02  0.95702307532E+02  0.10950192590E+03  0.00000000000E+00 0. -1.
</event>
<event>
 6    1  0.2809573E-005  0.1671123E+03  0.7818608E-02  0.1230957E+00
          2   -1    0    0  502    0  0.00000000000E+00  0.00000000000E+00  0.12530113925E+04  0.12530113925E+04  0.00000000000E+00 0.  1.
          1   -1    0    0  501    0 -0.00000000000E+00 -0.00000000000E+00 -0.63039748202E+02  0.63039748202E+02  0.00000000000E+00 0. -1.
          2    1    1    2  501    0  0.87422746921E+02  0.96735899940E+02  0.55616176023E+03  0.57124117022E+03  0.00000000000E+00 0.  1.
          1    1    1    2  502    0 -0.27805029071E+02 -0.11306663211E+03  0.22497706840E+02  0.11858891074E+03  0.00000000000E+00 0. -1.
         22    1    1    2    0    0 -0.23277772161E+02 -0.51948606595E+02  0.30698574670E+03  0.31221909148E+03  0.00000000000E+00 0. -1.
         22    1    1    2    0    0 -0.36339945688E+02  0.68279338763E+02  0.30432643052E+03  0.31400196826E+03  0.00000000000E+00 0. -1.
</event>
<event>
 6    1  0.2809573E-005  0.1065949E+03  0.7818608E-02  0.1338837E+00
          2   -1    0    0  502    0  0.00000000000E+00  0.00000000000E+00  0.21982390073E+03  0.21982390073E+03  0.00000000000E+00 0. -1.
          1   -1    0    0  501    0 -0.00000000000E+00 -0.00000000000E+00 -0.52307633903E+02  0.52307633903E+02  0.00000000000E+00 0. -1.
          2    1    1    2  501    0  0.28578644806E+01 -0.35123606722E+02  0.96773545645E+01  0.36544306395E+02  0.00000000000E+00 0. -1.
          1    1    1    2  502    0 -0.40599309805E+02  0.21853695782E+01  0.22149800842E+02  0.46300037518E+02  0.00000000000E+00 0. -1.
         22    1    1    2    0    0 -0.21135468001E+02  0.19118171918E+02 -0.11055840586E+02  0.30568678679E+02  0.00000000000E+00 0. -1.
         22    1    1    2    0    0  0.58876913325E+02  0.13820065225E+02  0.14674495201E+03  0.15871851205E+03  0.00000000000E+00 0.  1.
</event>
<event>
 6    1  0.3325428E-005  0.3509096E+03  0.7818608E-02  0.1159038E+00
          2   -1    0    0  502    0  0.00000000000E+00  0.00000000000E+00  0.29840077091E+03  0.29840077091E+03  0.00000000000E+00 0. -1.
          1   -1    0    0  501    0 -0.00000000000E+00 -0.00000000000E+00 -0.12092752630E+04  0.12092752630E+04  0.00000000000E+00 0. -1.
          2    1    1    2  501    0 -0.30352294869E+02  0.31089953878E+01 -0.10881217168E+03  0.11300892160E+03  0.00000000000E+00 0. -1.
          1    1    1    2  502    0  0.11608592051E+03  0.34404045543E+02 -0.10738184144E+04  0.10806227678E+04  0.00000000000E+00 0. -1.
         22    1    1    2    0    0  0.26167347176E+02  0.14168224528E+02  0.27821250708E+02  0.40736846165E+02  0.00000000000E+00 0.  1.
         22    1    1    2    0    0 -0.11190097281E+03 -0.51681265459E+02  0.24393484322E+03  0.27330749835E+03  0.00000000000E+00 0. -1.
</event>
<event>
 6    1  0.2809573E-005  0.6501806E+02  0.7818608E-02  0.1380467E+00
          2   -1    0    0  502    0  0.00000000000E+00  0.00000000000E+00  0.52509730775E+03  0.52509730775E+03  0.00000000000E+00 0.  1.
          1   -1    0    0  501    0 -0.00000000000E+00 -0.00000000000E+00 -0.23555758722E+02  0.23555758722E+02  0.00000000000E+00 0. -1.
          2    1    1    2  501    0 -0.25702915409E+02  0.15268766348E+02  0.80705332791E+02  0.86064660734E+02  0.00000000000E+00 0.  1.
          1    1    1    2  502    0  0.54792891862E+02  0.27307433783E+01  0.69623072258E+02  0.88640228727E+02  0.00000000000E+00 0. -1.
         22    1    1    2    0    0  0.17531449140E+02 -0.55067556145E+02  0.24926037057E+03  0.25587207700E+03  0.00000000000E+00 0. -1.
         22    1    1    2    0    0 -0.46621425593E+02  0.37068046418E+02  0.10195277341E+03  0.11807610002E+03  0.00000000000E+00 0.  1.
</event>
<event>
 6    1  0.2809573E-005  0.4107071E+03  0.7818608E-02  0.1134214E+00
          2   -1    0    0  502    0  0.00000000000E+00  0.00000000000E+00  0.16809649149E+03  0.16809649149E+03  0.00000000000E+00 0.  1.
          1   -1    0    0  501    0 -0.00000000000E+00 -0.00000000000E+00 -0.95672065430E+03  0.95672065430E+03  0.00000000000E+00 0.  1.
          2    1    1    2  501    0 -0.60324327058E+01 -0.35237984480E+02 -0.47818451976E+03  0.47951907234E+03  0.00000000000E+00 0.  1.
          1    1    1    2  502    0 -0.13203941223E+02 -0.10280731038E+03 -0.41732048967E+03  0.43000009097E+03  0.00000000000E+00 0.  1.
         22    1    1    2    0    0 -0.11811434744E+02  0.12535197240E+03  0.27153265427E+02  0.12880188973E+03  0.00000000000E+00 0.  1.
         22    1    1    2    0    0  0.31047808673E+02  0.12693322455E+02  0.79727581194E+02  0.86496092752E+02  0.00000000000E+00 0. -1.
</event>
<event>
 6    1  0.2809573E-005  0.4850906E+02  0.7818608E-02  0.1538287E+00
          2   -1    0    0  502    0  0.00000000000E+00  0.00000000000E+00  0.53255366541E+02  0.53255366541E+02  0.00000000000E+00 0.  1.
          1   -1    0    0  501    0 -0.00000000000E+00 -0.00000000000E+00 -0.13850629614E+04  0.13850629614E+04  0.00000000000E+00 0.  1.
          2    1    1    2  501    0  0.19277333821E+02 -0.11858177753E+02 -0.80623961032E+02  0.83740402862E+02  0.00000000000E+00 0.  1.
          1    1    1    2  502    0 -0.56975494071E+01  0.40783509591E+02 -0.12192899553E+04  0.12199851441E+04  0.00000000000E+00 0.  1.
         22    1    1    2    0    0 -0.15005053249E+02  0.79667511219E+00  0.47492611483E+02  0.49812994888E+02  0.00000000000E+00 0.  1.
         22    1    1    2    0    0  0.14252688350E+01 -0.29722006950E+02 -0.79386289977E+02  0.84779786062E+02  0.00000000000E+00 0.  1.
</event>
<event>
 6    1  0.2809573E-005  0.1159247E+03  0.7818608E-02  0.1252066E+00
          2   -1    0    0  502    0  0.00000000000E+00  0.00000000000E+00  0.16460070221E+03  0.16460070221E+03  0.00000000000E+00 0. -1.
          1   -1    0    0  501    0 -0.00000000000E+00 -0.00000000000E+00 -0.44423763044E+03  0.44423763044E+03  0.00000000000E+00 0. -1.
          2    1    1    2  501    0  0.31438313440E+02 -0.63451483088E+02 -0.39206619530E+01  0.70921293334E+02  0.00000000000E+00 0. -1.
          1    1    1    2  502    0 -0.20751323304E+01 -0.36427160048E+02 -0.35384546155E+03  0.35572159736E+03  0.00000000000E+00 0. -1.
         22    1    1    2    0    0 -0.31199324666E+02  0.11867057244E+03  0.96308117407E+02  0.15598511500E+03  0.00000000000E+00 0. -1.
         22    1    1    2    0    0  0.18361435568E+01 -0.18791929301E+02 -0.18178922128E+02  0.26210326968E+02  0.00000000000E+00 0. -1.
</event>
<event>
 6    1  0.2809573E-005  0.2052723E+03  0.7818608E-02  0.1278469E+00
          2   -1    0    0  502    0  0.00000000000E+00  0.00000000000E+00  0.66695684407E+02  0.66695684407E+02  0.00000000000E+00 0. -1.
          1   -1    0    0  501    0 -0.00000000000E+00 -0.00000000000E+00 -0.82756498941E+03  0.82756498941E+03  0.00000000000E+00 0. -1.
          2    1    1    2  501    0 -0.16894181590E+02  0.65605294624E+02 -0.61908165405E+03  0.62277729763E+03  0.00000000000E+00 0. -1.
          1    1    1    2  502    0 -0.54744158740E+02 -0.65297751141E+02 -0.31091306131E+02  0.90704953212E+02  0.00000000000E+00 0. -1.
         22    1    1    2    0    0  0.83265674589E+02 -0.31550184955E+01 -0.13214087979E+03  0.15621888112E+03  0.00000000000E+00 0. -1.
         22    1    1    2    0    0 -0.11627334258E+02  0.28474750126E+01  0.21444534974E+02  0.24559541855E+02  0.00000000000E+00 0. -1.
</event>
<event>
 6    1  0.2809573E-005  0.1066214E+03  0.7818608E-02  0.1315998E+00
          2   -1    0    0  502    0  0.00000000000E+00  0.00000000000E+00  0.40615147770E+03  0.40615147770E+03  0.00000000000E+00 0.  1.
          1   -1    0    0  501    0 -0.00000000000E+00 -0.00000000000E+00 -0.61788960488E+02  0.61788960488E+02  0.00000000000E+00 0.  1.
          2    1    1    2  501    0  0.93494848316E+01  0.33250365370E+02  0.86828811527E+01  0.35614492682E+02  0.00000000000E+00 0.  1.
          1    1    1    2  502    0 -0.78599988891E+02 -0.74736052330E+02  0.72746577785E+02  0.13059670881E+03  0.00000000000E+00 0.  1.
         22    1    1    2    0    0  0.37449702785E+02 -0.20369859955E+02  0.21011369982E+03  0.21439491198E+03  0.00000000000E+00 0.  1.
         22    1    1    2    0    0  0.31800801275E+02  0.61855546915E+02  0.52819358455E+02  0.87334324715E+02  0.00000000000E+00 0.  1.
</event>
<event>
 6    1  0.2809573E-005  0.1533826E+03  0.7818608E-02  0.1235227E+00
          2   -1    0    0  502    0  0.00000000000E+00  0.00000000000E+00  0.52556986902E+03  0.52556986902E+03  0.00000000000E+00 0. -1.
          1   -1    0    0  501    0 -0.00000000000E+00 -0.00000000000E+00 -0.13716568340E+03  0.13716568340E+03  0.00000000000E+00 0. -1.
          2    1    1    2  501    0  0.12253099398E+03 -0.11560610165E+03  0.66630106700E+02  0.18115790444E+03  0.00000000000E+00 0. -1.
          1    1    1    2  502    0 -0.10745828548E+03  0.69631594478E+02 -0.57525809470E+01  0.12817540425E+03  0.00000000000E+00 0. -1.
         22    1    1    2    0    0 -0.16163270499E+01 -0.20108397123E+02  0.12315369813E+01  0.20210809765E+02  0.00000000000E+00 0. -1.
         22    1    1    2    0    0 -0.13456381453E+02  0.66082904292E+02  0.32629512289E+03  0.33319143395E+03  0.00000000000E+00 0. -1.
</event>
<event>
 6    1  0.2809573E-005  0.6186604E+02  0.7818608E-02  0.1395588E+00
          2   -1    0    0  502    0  0.00000000000E+00  0.00000000000E+00  0.39223892601E+02  0.39223892601E+02  0.00000000000E+00 0. -1.
          1   -1    0    0  501    0 -0.00000000000E+00 -0.00000000000E+00 -0.46077370240E+03  0.46077370240E+03  0.00000000000E+00 0. -1.
          2    1    1    2  501    0 -0.33487725157E+00 -0.43063490889E+02  0.26992961209E+01  0.43149305786E+02  0.00000000000E+00 0. -1.
          1    1    1    2  502    0 -0.21812493100E+02 -0.10857053692E+02 -0.12126117566E+03  0.12368481391E+03  0.00000000000E+00 0. -1.
         22    1    1    2    0    0  0.80731428037E+01  0.65423056906E+02 -0.30745802708E+03  0.31444521053E+03  0.00000000000E+00 0. -1.
         22    1    1    2    0    0  0.14074227548E+02 -0.11502512326E+02  0.44700968118E+01  0.18718264780E+02  0.00000000000E+00 0. -1.
</event>
<event>
 6    1  0.2809573E-005  0.1244553E+03  0.7818608E-02  0.1251321E+00
          2   -1    0    0  502    0  0.00000000000E+00  0.00000000000E+00  0.57262405957E+03  0.57262405957E+03  0.00000000000E+00 0. -1.
          1   -1    0    0  501    0 -0.00000000000E+00 -0.00000000000E+00 -0.57417398287E+02  0.57417398287E+02  0.00000000000E+00 0. -1.
          2    1    1    2  501    0 -0.50669603185E+01  0.72070875459E+02  0.95506633661E+02  0.11975559381E+03  0.00000000000E+00 0. -1.
          1    1    1    2  502    0  0.98808557267E+02 -0.61975096630E+02  0.10113737993E+03  0.15437879780E+03  0.00000000000E+00 0. -1.
         22    1    1    2    0    0 -0.32480970392E+02  0.57467009974E+02  0.15829170394E+03  0.17150432709E+03  0.00000000000E+00 0. -1.
         22    1    1    2    0    0 -0.61260626557E+02 -0.67562788804E+02  0.16027094374E+03  0.18440273915E+03  0.00000000000E+00 0. -1.
</event>
<event>
 6    1  0.2809573E-005  0.1214310E+03  0.7818608E-02  0.1243861E+00
          2   -1    0    0  502    0  0.00000000000E+00  0.00000000000E+00  0.60293562389E+02  0.60293562389E+02  0.00000000000E+00 0. -1.
          1   -1    0    0  501    0 -0.00000000000E+00 -0.00000000000E+00 -0.78550836310E+03  0.78550836310E+03  0.00000000000E+00 0. -1.
          2    1    1    2  501    0  0.76879368119E+02  0.38075608722E+02 -0.53781717543E+02  0.10125543128E+03  0.00000000000E+00 0. -1.
          1    1    1    2  502    0  0.21896649489E+02 -0.62444783217E+02 -0.52620923883E+03  0.53035363414E+03  0.00000000000E+00 0. -1.
         22    1    1    2    0    0  0.26001126652E+02  0.94032823383E+00 -0.46822477889E+02  0.53565728222E+02  0.00000000000E+00 0. -1.
         22    1    1    2    0    0 -0.12477714426E+03  0.23428846261E+02 -0.98401366441E+02  0.16062713184E+03  0.00000000000E+00 0. -1.
</event>
<event>
 6    1  0.2809573E-005  0.1261809E+03  0.7818608E-02  0.1356390E+00
          2   -1    0    0  502    0  0.00000000000E+00  0.00000000000E+00  0.85164216139E+02  0.85164216139E+02  0.00000000000E+00 0.  1.
          1   -1    0    0  501    0 -0.00000000000E+00 -0.00000000000E+00 -0.41922825246E+03  0.41922825246E+03  0.00000000000E+00 0.  1.
          2    1    1    2  501    0  0.50588022151E+02  0.27909710269E+02 -0.17846321260E+02  0.60469753555E+02  0.00000000000E+00 0.  1.
          1    1    1    2  502    0 -0.33149761250E+02  0.26136077795E+02 -0.29919196055E+03  0.30215530856E+03  0.00000000000E+00 0.  1.
         22    1    1    2    0    0  0.12121853826E+02 -0.38574366765E+01  0.50797287524E+02  0.52365862713E+02  0.00000000000E+00 0.  1.
         22    1    1    2    0    0 -0.29560114727E+02 -0.50188351388E+02 -0.67823042038E+02  0.89401543773E+02  0.00000000000E+00 0. -1.
</event>
<event>
 6    1  0.2809573E-005  0.7326826E+02  0.7818608E-02  0.1423860E+00
          2   -1    0    0  502    0  0.00000000000E+00  0.00000000000E+00  0.10940406543E+03  0.10940406543E+03  0.00000000000E+00 0. -1.
          1   -1    0    0  501    0 -0.00000000000E+00 -0.00000000000E+00 -0.44038664788E+03  0.44038664788E+03  0.00000000000E+00 0. -1.
          2    1    1    2  501    0  0.95014308229E+01 -0.59795662242E+02 -0.22838102795E+03  0.23627037973E+03  0.00000000000E+00 0. -1.
          1    1    1    2  502    0 -0.27492662654E+02  0.61374805090E+02 -0.15891839511E+03  0.17256236410E+03  0.00000000000E+00 0. -1.
         22    1    1    2    0    0  0.17746358288E+01 -0.16388155312E+02 -0.39423638081E+02  0.42731068398E+02  0.00000000000E+00 0.  1.
         22    1    1    2    0    0  0.16216596003E+02  0.14809012464E+02  0.95740478691E+02  0.98226901082E+02  0.00000000000E+00 0. -1.
</event>
<event>
 6    1  0.2809573E-005  0.1029755E+03  0.7818608E-02  0.1356982E+00
          2   -1    0    0  502    0  0.00000000000E+00  0.00000000000E+00  0.30234566269E+02  0.30234566269E+02  0.00000000000E+00 0. -1.
          1   -1    0    0  501    0 -0.00000000000E+00 -0.00000000000E+00 -0.68549850094E+03  0.68549850094E+03  0.00000000000E+00 0.  1.
          2    1    1    2  501    0  0.50396088517E+02 -0.22103887201E+02 -0.66241899301E+02  0.86118155985E+02  0.00000000000E+00 0. -1.
          1    1    1    2  502    0 -0.41959160467E+02  0.11367942815E+02 -0.41718634803E+03  0.41944516954E+03  0.00000000000E+00 0.  1.
         22    1    1    2    0    0  0.37183204771E+01  0.30463046937E+02 -0.18221406996E+03  0.18478038431E+03  0.00000000000E+00 0. -1.
         22    1    1    2    0    0 -0.12155248527E+02 -0.19727102551E+02  0.10378382618E+02  0.25389357368E+02  0.00000000000E+00 0. -1.
</event>
<event>
 6    1  0.2809573E-005  0.1677579E+03  0.7818608E-02  0.1248313E+00
          2   -1    0    0  502    0  0.00000000000E+00  0.00000000000E+00  0.64381817555E+03  0.64381817555E+03  0.00000000000E+00 0. -1.
          1   -1    0    0  501    0 -0.00000000000E+00 -0.00000000000E+00 -0.48383621505E+03  0.48383621505E+03  0.00000000000E+00 0. -1.
          2    1    1    2  501    0 -0.69994089898E+01  0.22024304064E+02  0.49780257774E+00  0.23115135801E+02  0.00000000000E+00 0. -1.
          1    1    1    2  502    0 -0.47892801956E+02 -0.10269135011E+03 -0.45564843458E+03  0.46952606935E+03  0.00000000000E+00 0. -1.
         22    1    1    2    0    0  0.31351265106E+02  0.11244244609E+03  0.42037463389E+03  0.43628091675E+03  0.00000000000E+00 0. -1.
         22    1    1    2    0    0  0.23540945840E+02 -0.31775400036E+02  0.19475795861E+03  0.19873226870E+03  0.00000000000E+00 0. -1.
</event>
<event>
 6    1  0.2809573E-005  0.1825750E+03  0.7818608E-02  0.1210112E+00
          2   -1    0    0  502    0  0.00000000000E+00  0.00000000000E+00  0.56502774022E+03  0.56502774022E+03  0.00000000000E+00 0.  1.
          1   -1    0    0  501    0 -0.00000000000E+00 -0.00000000000E+00 -0.10099152064E+03  0.10099152064E+03  0.00000000000E+00 0.  1.
          2    1    1    2  501    0 -0.27424934457E+02  0.33518892148E+02  0.14036598478E+02  0.45526577486E+02  0.00000000000E+00 0.  1.
          1    1    1    2  502    0  0.14942154740E+03 -0.13260346183E+03  0.11936917902E+03  0.23272188943E+03  0.00000000000E+00 0.  1.
         22    1    1    2    0    0 -0.10860401589E+03  0.32826151117E+02  0.11399217247E+03  0.16083097913E+03  0.00000000000E+00 0.  1.
         22    1    1    2    0    0 -0.13392597052E+02  0.66258418566E+02  0.21663826961E+03  0.22693981481E+03  0.00000000000E+00 0.  1.
</event>
<event>
 6    1  0.2809573E-005  0.5347158E+02  0.7818608E-02  0.1437444E+00
          2   -1    0    0  502    0  0.00000000000E+00  0.00000000000E+00  0.22923158718E+03  0.22923158718E+03  0.00000000000E+00 0.  1.
          1   -1    0    0  501    0 -0.00000000000E+00 -0.00000000000E+00 -0.32812895964E+03  0.32812895964E+03  0.00000000000E+00 0.  1.
          2    1    1    2  501    0 -0.44119705267E+02  0.46966912225E+02 -0.53864586520E+02  0.83987099710E+02  0.00000000000E+00 0.  1.
          1    1    1    2  502    0  0.35008561827E+02 -0.16091504526E+02 -0.23887201548E+03  0.24195945052E+03  0.00000000000E+00 0.  1.
         22    1    1    2    0    0 -0.20769997874E+02  0.27714459610E+01 -0.96063105769E+01  0.23051137224E+02  0.00000000000E+00 0.  1.
         22    1    1    2    0    0  0.29881141314E+02 -0.33646853660E+02  0.20344554012E+03  0.20836285936E+03  0.00000000000E+00 0.  1.
</event>
<event>
 6    1  0.2809573E-005  0.2630065E+03  0.7818608E-02  0.1208497E+00
          2   -1    0    0  502    0  0.00000000000E+00  0.00000000000E+00  0.44760962412E+03  0.44760962412E+03  0.00000000000E+00 0. -1.
          1   -1    0    0  501    0 -0.00000000000E+00 -0.00000000000E+00 -0.10772529221E+03  0.10772529221E+03  0.00000000000E+00 0.  1.
          2    1    1    2  501    0 -0.10872953610E+03 -0.15009940724E+02  0.10474056427E+03  0.15171682881E+03  0.00000000000E+00 0. -1.
          1    1    1    2  502    0 -0.24651428541E+02  0.90599520376E+01 -0.54176462752E+02  0.60206849912E+02  0.00000000000E+00 0.  1.
         22    1    1    2    0    0  0.15215084923E+03  0.19935892313E+02  0.20604197308E+03  0.25690584928E+03  0.00000000000E+00 0.  1.
         22    1    1    2    0    0 -0.18769884594E+02 -0.13985903626E+02  0.83278257313E+02  0.86505388324E+02  0.00000000000E+00 0.  1.
</event>
<event>
 6    1  0.2809573E-005  0.2435953E+03  0.7818608E-02  0.1236712E+00
          2   -1    0    0  502    0  0.00000000000E+00  0.00000000000E+00  0.66941532199E+02  0.66941532199E+02  0.00000000000E+00 0. -1.
          1   -1    0    0  501    0 -0.00000000000E+00 -0.00000000000E+00 -0.12258309053E+04  0.12258309053E+04  0.00000000000E+00 0.  1.
          2    1    1    2  501    0  0.53619963663E+02  0.48070731727E+02 -0.48286360633E+02  0.86703335432E+02  0.00000000000E+00 0. -1.
          1    1    1    2  502    0 -0.68902844683E+02 -0.20814347359E+03 -0.83545511353E+03  0.86374565372E+03  0.00000000000E+00 0.  1.
         22    1    1    2    0    0  0.83952789088E+01  0.14526401535E+03 -0.28724671710E+03  0.32199812321E+03  0.00000000000E+00 0. -1.
         22    1    1    2    0    0  0.68876021113E+01  0.14808726510E+02  0.12098818121E+02  0.20325325178E+02  0.00000000000E+00 0.  1.
</event>
<event>
 6    1  0.2809573E-005  0.1321638E+03  0.7818608E-02  0.1326609E+00
          2   -1    0    0  502    0  0.00000000000E+00  0.00000000000E+00  0.12862783550E+03  0.12862783550E+03  0.00000000000E+00 0. -1.
          1   -1    0    0  501    0 -0.00000000000E+00 -0.00000000000E+00 -0.33620163951E+03  0.33620163951E+03  0.00000000000E+00 0. -1.
          2    1    1    2  501    0 -0.17418143025E+02  0.81545361188E+02 -0.15075581268E+03  0.17227986735E+03  0.00000000000E+00 0. -1.
          1    1    1    2  502    0  0.11203139572E+02 -0.12326656480E+03 -0.89432402684E+02  0.15270334307E+03  0.00000000000E+00 0. -1.
         22    1    1    2    0    0  0.18140837974E+02 -0.37503614692E+01  0.74570370987E+02  0.76836810467E+02  0.00000000000E+00 0. -1.
         22    1    1    2    0    0 -0.11925834520E+02  0.45471565081E+02 -0.41955959632E+02  0.63009454121E+02  0.00000000000E+00 0. -1.
</event>
<event>
 6    1  0.2809573E-005  0.9950156E+02  0.7818608E-02  0.1337609E+00
          2   -1    0    0  502    0  0.00000000000E+00  0.00000000000E+00  0.18997470514E+03  0.18997470514E+03  0.00000000000E+00 0. -1.
          1   -1    0    0  501    0 -0.00000000000E+00 -0.00000000000E+00 -0.88909225779E+03  0.88909225779E+03  0.00000000000E+00 0. -1.
          2    1    1    2  501    0  0.25717800371E+02 -0.30178366384E+02  0.10520922862E+03  0.11243273918E+03  0.00000000000E+00 0. -1.
          1    1    1    2  502    0 -0.27655452887E+02  0.73202538294E+02 -0.83160502242E+03  0.83527860562E+03  0.00000000000E+00 0. -1.
         22    1    1    2    0    0 -0.31926059561E+02 -0.31426077991E+02  0.65265401346E+02  0.79160875879E+02  0.00000000000E+00 0. -1.
         22    1    1    2    0    0  0.33863712077E+02 -0.11598093918E+02 -0.37987160196E+02  0.52194742245E+02  0.00000000000E+00 0.  1.
</event>
<event>
 6    1  0.2809573E-005  0.1981691E+03  0.7818608E-02  0.1221782E+00
          2   -1    0    0  502    0  0.00000000000E+00  0.00000000000E+00  0.73349822194E+02  0.73349822194E+02  0.00000000000E+00 0.  1.
          1   -1    0    0  501    0 -0.00000000000E+00 -0.00000000000E+00 -0.84477592159E+03  0.84477592159E+03  0.00000000000E+00 0.  1.
          2    1    1    2  501    0 -0.55389587756E+02 -0.37779440027E+02  0.22481799213E+02  0.70715796088E+02  0.00000000000E+00 0.  1.
          1    1    1    2  502    0  0.32859805712E+02 -0.64836264907E+01 -0.64326142944E+03  0.64413280529E+03  0.00000000000E+00 0.  1.
         22    1    1    2    0    0 -0.13880870463E+01 -0.40156572831E+02 -0.17515030128E+02  0.43832104759E+02  0.00000000000E+00 0.  1.
         22    1    1    2    0    0  0.23917869090E+02  0.84419639349E+02 -0.13313143905E+03  0.15944503765E+03  0.00000000000E+00 0.  1.
</event>
<event>
 6    1  0.2809573E-005  0.7565990E+03  0.7818608E-02  0.1055664E+00
          2   -1    0    0  502    0  0.00000000000E+00  0.00000000000E+00  0.10479675790E+04  0.10479675790E+04  0.00000000000E+00 0.  1.
          1   -1    0    0  501    0 -0.00000000000E+00 -0.00000000000E+00 -0.80708056852E+03  0.80708056852E+03  0.00000000000E+00 0. -1.
          2    1    1    2  501    0 -0.68131937726E+03 -0.86347656811E+02  0.59864310565E+03  0.91105739644E+03  0.00000000000E+00 0.  1.
          1    1    1    2  502    0  0.66649664045E+03  0.13216509695E+03 -0.41362456649E+03  0.79546883446E+03  0.00000000000E+00 0. -1.
         22    1    1    2    0    0  0.30527790239E+02 -0.28992548006E+02  0.94556272731E+02  0.10350556763E+03  0.00000000000E+00 0. -1.
         22    1    1    2    0    0 -0.15705053433E+02 -0.16824892134E+02 -0.38687801420E+02  0.45016349001E+02  0.00000000000E+00 0. -1.
</event>
<event>
 6    1  0.2809573E-005  0.7435762E+02  0.7818608E-02  0.1369191E+00
          2   -1    0    0  502    0  0.00000000000E+00  0.00000000000E+00  0.84161792669E+02  0.84161792669E+02  0.00000000000E+00 0. -1.
          1   -1    0    0  501    0 -0.00000000000E+00 -0.00000000000E+00 -0.35153158122E+03  0.35153158122E+03  0.00000000000E+00 0.  1.
          2    1    1    2  501    0  0.30160185547E+02  0.25461387216E+02 -0.21643227583E+02  0.45014978967E+02  0.00000000000E+00 0. -1.
          1    1    1    2  502    0 -0.52175397117E+02 -0.40607958560E+02 -0.25309369091E+03  0.26158687800E+03  0.00000000000E+00 0.  1.
         22    1    1    2    0    0  0.59050666447E+02  0.48995728423E+02 -0.65896699057E+01  0.77012897367E+02  0.00000000000E+00 0. -1.
         22    1    1    2    0    0 -0.37035454877E+02 -0.33849157079E+02  0.13956799848E+02  0.52078619556E+02  0.00000000000E+00 0.  1.
</event>
<event>
 6    1  0.2809573E-005  0.1141430E+03  0.7818608E-02  0.1316564E+00
          2   -1    0    0  502    0  0.00000000000E+00  0.00000000000E+00  0.52994178381E+03  0.52994178381E+03  0.00000000000E+00 0.  1.
          1   -1    0    0  501    0 -0.00000000000E+00 -0.00000000000E+00 -0.16399908014E+04  0.16399908014E+04  0.00000000000E+00 0.  1.
          2    1    1    2  501    0 -0.30848319275E+02  0.36367272039E+02  0.95839177518E+02  0.10704833126E+03  0.00000000000E+00 0.  1.
          1    1    1    2  502    0  0.62065914080E+02 -0.85829092167E+02 -0.16221037636E+04  0.16255581905E+04  0.00000000000E+00 0.  1.
         22    1    1    2    0    0 -0.58321349330E+02  0.70636852616E+02  0.35958244462E+03  0.37106667758E+03  0.00000000000E+00 0.  1.
         22    1    1    2    0    0  0.27103754525E+02 -0.21175032488E+02  0.56633123828E+02  0.66259385936E+02  0.00000000000E+00 0. -1.
</event>
<event>
 6    1  0.2809573E-005  0.4207247E+03  0.7818608E-02  0.1158920E+00
          2   -1    0    0  502    0  0.00000000000E+00  0.00000000000E+00  0.24499913945E+04  0.24499913945E+04  0.00000000000E+00 0. -1.
          1   -1    0    0  501    0 -0.00000000000E+00 -0.00000000000E+00 -0.83124423426E+02  0.83124423426E+02  0.00000000000E+00 0.  1.
          2    1    1    2  501    0 -0.54614375044E+02  0.10699907555E+02  0.47416182663E+02  0.73113010891E+02  0.00000000000E+00 0. -1.
          1    1    1    2  502    0  0.41048190479E+03 -0.47468130910E+01  0.15399716096E+04  0.15937473090E+04  0.00000000000E+00 0.  1.
         22    1    1    2    0    0 -0.18501821926E+01 -0.17213971719E+02  0.84130853287E+02  0.85893797630E+02  0.00000000000E+00 0. -1.
         22    1    1    2    0    0 -0.35401734755E+03  0.11260877255E+02  0.69534832545E+03  0.78036170039E+03  0.00000000000E+00 0. -1.
</event>
<event>
 6    1  0.2809573E-005  0.8861418E+02  0.7818608E-02  0.1406389E+00
          2   -1    0    0  502    0  0.00000000000E+00  0.00000000000E+00  0.36885211273E+02  0.36885211273E+02  0.00000000000E+00 0.  1.
          1   -1    0    0  501    0 -0.00000000000E+00 -0.00000000000E+00 -0.35165892974E+04  0.35165892974E+04  0.00000000000E+00 0.  1.
          2    1    1    2  501    0  0.40907216982E+02 -0.32232390941E+01 -0.13008121550E+03  0.13639982514E+03  0.00000000000E+00 0.  1.
          1    1    1    2  502    0 -0.46184752890E+02  0.45725844016E+02 -0.32587411453E+04  0.32593891661E+04  0.00000000000E+00 0.  1.
         22    1    1    2    0    0 -0.98220626878E+01  0.12972617650E+02  0.24130266986E+02  0.29103805747E+02  0.00000000000E+00 0. -1.
         22    1    1    2    0    0  0.15099598596E+02 -0.55475222572E+02 -0.11501199229E+03  0.12858171164E+03  0.00000000000E+00 0.  1.
</event>
<event>
 6    1  0.2809573E-005  0.1395421E+03  0.7818608E-02  0.1318009E+00
          2   -1    0    0  502    0  0.00000000000E+00  0.00000000000E+00  0.17149739194E+03  0.17149739194E+03  0.00000000000E+00 0. -1.
          1   -1    0    0  501    0 -0.00000000000E+00 -0.00000000000E+00 -0.66088209560E+03  0.66088209560E+03  0.00000000000E+00 0.  1.
          2    1    1    2  501    0  0.13491036814E+02 -0.17752593622E+02  0.17274125723E+02  0.28205639048E+02  0.00000000000E+00 0. -1.
          1    1    1    2  502    0 -0.12528613467E+03  0.30403854203E+02 -0.60073051162E+03  0.61440878695E+03  0.00000000000E+00 0.  1.
         22    1    1    2    0    0 -0.17978343846E+01 -0.18254347909E+02  0.71500611774E+02  0.73815925857E+02  0.00000000000E+00 0. -1.
         22    1    1    2    0    0  0.11359293224E+03  0.56030873271E+01  0.22571070464E+02  0.11594913568E+03  0.00000000000E+00 0. -1.
</event>
<event>
 6    1  0.2809573E-005  0.2080981E+03  0.7818608E-02  0.1211177E+00
          2   -1    0    0  502    0  0.00000000000E+00  0.00000000000E+00  0.31153200792E+03  0.31153200792E+03  0.00000000000E+00 0. -1.
          1   -1    0    0  501    0 -0.00000000000E+00 -0.00000000000E+00 -0.12265784997E+03  0.12265784997E+03  0.00000000000E+00 0. -1.
          2    1    1    2  501    0 -0.40713917872E+02 -0.35508860498E+02 -0.17906905269E+02  0.56913614704E+02  0.00000000000E+00 0. -1.
          1    1    1    2  502    0 -0.86994829011E+02 -0.34522172077E+02 -0.39738259718E+01  0.93678556417E+02  0.00000000000E+00 0. -1.
         22    1    1    2    0    0 -0.14087546733E+01  0.44604204143E+02  0.10727852231E+03  0.11619036520E+03  0.00000000000E+00 0.  1.
         22    1    1    2    0    0  0.12911750156E+03  0.25426828432E+02  0.10347636689E+03  0.16740732157E+03  0.00000000000E+00 0. -1.
</event>
<event>
 6    1  0.2809573E-005  0.2259379E+03  0.7818608E-02  0.1197886E+00
          2   -1    0    0  502    0  0.00000000000E+00  0.00000000000E+00  0.22710992309E+03  0.22710992309E+03  0.00000000000E+00 0. -1.
          1   -1    0    0  501    0 -0.00000000000E+00 -0.00000000000E+00 -0.21918081172E+03  0.21918081172E+03  0.00000000000E+00 0. -1.
          2    1    1    2  501    0  0.43878624237E+02 -0.83146923255E+02 -0.52061938990E+02  0.10746715779E+03  0.00000000000E+00 0. -1.
          1    1    1    2  502    0 -0.47129993293E+02  0.90179251216E+02 -0.95506808018E+02  0.13955315831E+03  0.00000000000E+00 0. -1.
         22    1    1    2    0    0  0.16879983653E+02  0.43257378030E+02  0.14022258517E+02  0.48505240295E+02  0.00000000000E+00 0. -1.
         22    1    1    2    0    0 -0.13628614598E+02 -0.50289705991E+02  0.14147559986E+03  0.15076517841E+03  0.00000000000E+00 0. -1.
</event>
<event>
 6    1  0.2809573E-005  0.7831782E+02  0.7818608E-02  0.1338095E+00
          2   -1    0    0  502    0  0.00000000000E+00  0.00000000000E+00  0.18906836041E+03  0.18906836041E+03  0.00000000000E+00 0. -1.
          1   -1    0    0  501    0 -0.00000000000E+00 -0.00000000000E+00 -0.17463383904E+03  0.17463383904E+03  0.00000000000E+00 0. -1.
          2    1    1    2  501    0  0.69960324655E+01 -0.32400001590E+02  0.13914473451E+02  0.35948812842E+02  0.00000000000E+00 0. -1.
          1    1    1    2  502    0  0.36178166417E+01  0.20328615712E+02 -0.13795109019E+03  0.13948779336E+03  0.00000000000E+00 0. -1.
         22    1    1    2    0    0 -0.51663001703E+02  0.46317794540E+02  0.10270177547E+03  0.12394377161E+03  0.00000000000E+00 0. -1.
         22    1    1    2    0    0  0.41049152596E+02 -0.34246408662E+02  0.35769362624E+02  0.64321821629E+02  0.00000000000E+00 0.  1.
</event>
<event>
 6    1  0.2809573E-005  0.8895524E+02  0.7818608E-02  0.1317817E+00
          2   -1    0    0  502    0  0.00000000000E+00  0.00000000000E+00  0.21446566802E+03  0.21446566802E+03  0.00000000000E+00 0. -1.
          1   -1    0    0  501    0 -0.00000000000E+00 -0.00000000000E+00 -0.54142653281E+03  0.54142653281E+03  0.00000000000E+00 0.  1.
          2    1    1    2  501    0  0.30168124039E+01  0.31634006347E+02  0.14852317764E+02  0.35077098762E+02  0.00000000000E+00 0. -1.
          1    1    1    2  502    0 -0.23642928992E+01 -0.33900224885E+02 -0.50916383280E+03  0.51029660371E+03  0.00000000000E+00 0.  1.
         22    1    1    2    0    0  0.45776425433E+02 -0.42005034416E+02  0.66622205788E+02  0.91095676878E+02  0.00000000000E+00 0. -1.
         22    1    1    2    0    0 -0.46428944938E+02  0.44271252955E+02  0.10072844446E+03  0.11942282148E+03  0.00000000000E+00 0. -1.
</event>
<event>
 6    1  0.2809573E-005  0.3442245E+03  0.7818608E-02  0.1180224E+00
          2   -1    0    0  502    0  0.00000000000E+00  0.00000000000E+00  0.28214298103E+03  0.28214298103E+03  0.00000000000E+00 0. -1.
          1   -1    0    0  501    0 -0.00000000000E+00 -0.00000000000E+00 -0.55267564491E+03  0.55267564491E+03  0.00000000000E+00 0. -1.
          2    1    1    2  501    0 -0.10865083197E+03  0.58314900794E+02 -0.40717517941E+02  0.12985972128E+03  0.00000000000E+00 0. -1.
          1    1    1    2  502    0 -0.20285714947E+02  0.31751191485E+02 -0.42500837086E+03  0.42667524382E+03  0.00000000000E+00 0. -1.
         22    1    1    2    0    0  0.14784302350E+03 -0.94459509326E+02  0.15696802301E+03  0.23541265630E+03  0.00000000000E+00 0. -1.
         22    1    1    2    0    0 -0.18906476580E+02  0.43934170474E+01  0.38225201903E+02  0.42871004544E+02  0.00000000000E+00 0. -1.
</event>
<event>
 6    1  0.2809573E-005  0.1010257E+03  0.7818608E-02  0.1369392E+00
          2   -1    0    0  502    0  0.00000000000E+00  0.00000000000E+00  0.11868420037E+03  0.11868420037E+03  0.00000000000E+00 0.  1.
          1   -1    0    0  501    0 -0.00000000000E+00 -0.00000000000E+00 -0.22953288202E+03  0.22953288202E+03  0.00000000000E+00 0.  1.
          2    1    1    2  501    0 -0.44191125661E+02 -0.42262594187E+01 -0.45233156232E+02  0.63377876886E+02  0.00000000000E+00 0.  1.
          1    1    1    2  502    0  0.18895670271E+02 -0.30378550398E+02 -0.13475696066E+03  0.13942503765E+03  0.00000000000E+00 0.  1.
         22    1    1    2    0    0  0.22291961598E+02  0.54316597856E+02 -0.13630474869E+02  0.60274490455E+02  0.00000000000E+00 0.  1.
         22    1    1    2    0    0  0.30034937924E+01 -0.19711788039E+02  0.82771910113E+02  0.85139677392E+02  0.00000000000E+00 0.  1.
</event>
<event>
 6    1  0.2809573E-005  0.1483059E+03  0.7818608E-02  0.1305189E+00
          2   -1    0    0  502    0  0.00000000000E+00  0.00000000000E+00  0.77039464095E+02  0.77039464095E+02  0.00000000000E+00 0. -1.
          1   -1    0    0  501    0 -0.00000000000E+00 -0.00000000000E+00 -0.42647696284E+03  0.42647696284E+03  0.00000000000E+00 0. -1.
          2    1    1    2  501    0 -0.59149836706E+01 -0.57455391531E+02 -0.11898668046E+03  0.13226465581E+03  0.00000000000E+00 0. -1.
          1    1    1    2  502    0 -0.70190944662E+02  0.10711816414E+03 -0.59149069632E+02  0.14106623352E+03  0.00000000000E+00 0. -1.
         22    1    1    2    0    0  0.10232555715E+02  0.16329531835E+02  0.13270330859E+02  0.23397873568E+02  0.00000000000E+00 0.  1.
         22    1    1    2    0    0  0.65873372618E+02 -0.65992304443E+02 -0.18457207951E+03  0.20678766404E+03  0.00000000000E+00 0. -1.
</event>
<event>
 6    1  0.2809573E-005  0.1818879E+03  0.7818608E-02  0.1246218E+00
          2   -1    0    0  502    0  0.00000000000E+00  0.00000000000E+00  0.13487102286E+03  0.13487102286E+03  0.00000000000E+00 0.  1.
          1   -1    0    0  501    0 -0.00000000000E+00 -0.00000000000E+00 -0.51915377164E+03  0.51915377164E+03  0.00000000000E+00 0.  1.
          2    1    1    2  501    0 -0.36938538345E+02 -0.16805177160E+02 -0.55877817995E+02  0.69059395728E+02  0.00000000000E+00 0.  1.
          1    1    1    2  502    0  0.15814984678E+02  0.41856876060E+02 -0.42289259289E+03  0.42525316805E+03  0.00000000000E+00 0.  1.
         22    1    1    2    0    0  0.45928979035E+02 -0.45831487731E+02  0.10690317004E+03  0.12505312530E+03  0.00000000000E+00 0.  1.
         22    1    1    2    0    0 -0.24805425367E+02  0.20779788830E+02 -0.12415507926E+02  0.34659105420E+02  0.00000000000E+00 0.  1.
</event>
<event>
 6    1  0.2809573E-005  0.4707647E+03  0.7818608E-02  0.1149373E+00
          2   -1    0    0  502    0  0.00000000000E+00  0.00000000000E+00  0.10559329496E+04  0.10559329496E+04  0.00000000000E+00 0. -1.
          1   -1    0    0  501    0 -0.00000000000E+00 -0.00000000000E+00 -0.25992621078E+03  0.25992621078E+03  0.00000000000E+00 0. -1.
          2    1    1    2  501    0  0.11704980661E+03  0.62424080082E+02  0.12298431772E+03  0.18089379593E+03  0.00000000000E+00 0. -1.
          1    1    1    2  502    0 -0.25479968792E+03 -0.35372882493E+03  0.72703119740E+02  0.44196459833E+03  0.00000000000E+00 0. -1.
         22    1    1    2    0    0  0.83472215304E+01 -0.13024094266E+02  0.24458525163E+02  0.28939982582E+02  0.00000000000E+00 0. -1.
         22    1    1    2    0    0  0.12940265978E+03  0.30432883912E+03  0.57586077616E+03  0.66406078351E+03  0.00000000000E+00 0. -1.
</event>
<event>
 6    1  0.2809573E-005  0.1820462E+03  0.7818608E-02  0.1166791E+00
          2   -1    0    0  502    0  0.00000000000E+00  0.00000000000E+00  0.44483235633E+03  0.44483235633E+03  0.00000000000E+00 0. -1.
          1   -1    0    0  501    0 -0.00000000000E+00 -0.00000000000E+00 -0.85180715704E+03  0.85180715704E+03  0.00000000000E+00 0. -1.
          2    1    1    2  501    0 -0.18854740415E+03  0.27525585770E+02  0.27662829879E+03  0.33590325568E+03  0.00000000000E+00 0. -1.
          1    1    1    2  502    0  0.91778623573E+02  0.41011339283E+02 -0.76353509172E+03  0.77012406921E+03  0.00000000000E+00 0. -1.
         22    1    1    2    0    0 -0.19055774398E+02 -0.32928404863E+01  0.51028379836E+02  0.54569779962E+02  0.00000000000E+00 0. -1.
         22    1    1    2    0    0  0.11582455497E+03 -0.65244084567E+02  0.28903612380E+02  0.13604240851E+03  0.00000000000E+00 0.  1.
</event>
<event>
 6    1  0.2809573E-005  0.1717193E+03  0.7818608E-02  0.1288734E+00
          2   -1    0    0  502    0  0.00000000000E+00  0.00000000000E+00  0.10426966239E+03  0.10426966239E+03  0.00000000000E+00 0.  1.
          1   -1    0    0  501    0 -0.00000000000E+00 -0.00000000000E+00 -0.79514497732E+03  0.79514497732E+03  0.00000000000E+00 0.  1.
          2    1    1    2  501    0  0.73269641083E+02  0.27914637718E+02 -0.14478222448E+02  0.79732592009E+02  0.00000000000E+00 0.  1.
          1    1    1    2  502    0 -0.15482814013E+03 -0.50116599624E+02 -0.64314287234E+03  0.66341252685E+03  0.00000000000E+00 0.  1.
         22    1    1    2    0    0  0.68175716074E+02  0.11982690723E+02 -0.80467204912E+02  0.10614369602E+03  0.00000000000E+00 0.  1.
         22    1    1    2    0    0  0.13382782973E+02  0.10219271183E+02  0.47212984778E+02  0.50125824833E+02  0.00000000000E+00 0.  1.
</event>
<event>
 6    1  0.2809573E-005  0.3024001E+03  0.7818608E-02  0.1175634E+00
          2   -1    0    0  502    0  0.00000000000E+00  0.00000000000E+00  0.43886441642E+03  0.43886441642E+03  0.00000000000E+00 0.  1.
          1   -1    0    0  501    0 -0.00000000000E+00 -0.00000000000E+00 -0.75916925455E+03  0.75916925455E+03  0.00000000000E+00 0. -1.
          2    1    1    2  501    0  0.19720470516E+02 -0.88856392321E+01  0.31037306518E+02  0.37830753863E+02  0.00000000000E+00 0.  1.
          1    1    1    2  502    0 -0.28996831569E+03  0.84821074745E+02 -0.65836684613E+03  0.72437776257E+03  0.00000000000E+00 0. -1.
         22    1    1    2    0    0  0.25878218273E+03 -0.46324989423E+02  0.21871451257E+03  0.34197991279E+03  0.00000000000E+00 0.  1.
         22    1    1    2    0    0  0.11465662438E+02 -0.29610446090E+02  0.88310188913E+02  0.93845241748E+02  0.00000000000E+00 0.  1.
</event>
<event>
 6    1  0.2809573E-005  0.6250447E+03  0.7818608E-02  0.1118339E+00
          2   -1    0    0  502    0  0.00000000000E+00  0.00000000000E+00  0.91562573368E+03  0.91562573368E+03  0.00000000000E+00 0.  1.
          1   -1    0    0  501    0 -0.00000000000E+00 -0.00000000000E+00 -0.28846282462E+03  0.28846282462E+03  0.00000000000E+00 0.  1.
          2    1    1    2  501    0  0.17444183245E+03  0.11060487770E+03  0.34500309293E+02  0.20941266251E+03  0.00000000000E+00 0.  1.
          1    1    1    2  502    0  0.16631315042E+02  0.81810209510E+02 -0.16276974640E+03  0.18293031833E+03  0.00000000000E+00 0.  1.
         22    1    1    2    0    0 -0.20509744416E+03 -0.19378189839E+03  0.70463772231E+03  0.75903274333E+03  0.00000000000E+00 0.  1.
         22    1    1    2    0    0  0.14024296676E+02  0.13668111857E+01  0.50794623860E+02  0.52712834141E+02  0.00000000000E+00 0. -1.
</event>
<event>
 6    1  0.2809573E-005  0.9276547E+02  0.7818608E-02  0.1304444E+00
          2   -1    0    0  502    0  0.00000000000E+00  0.00000000000E+00  0.54411792432E+02  0.54411792432E+02  0.00000000000E+00 0. -1.
          1   -1    0    0  501    0 -0.00000000000E+00 -0.00000000000E+00 -0.42227874347E+03  0.42227874347E+03  0.00000000000E+00 0. -1.
          2    1    1    2  501    0 -0.65868382703E+01  0.61426631680E+02 -0.27444204674E+02  0.67600309822E+02  0.00000000000E+00 0. -1.
          1    1    1    2  502    0 -0.12119166377E+02 -0.29452924083E+02 -0.23982481107E+03  0.24193033902E+03  0.00000000000E+00 0. -1.
         22    1    1    2    0    0  0.15616303502E+02 -0.58917007075E+02 -0.11946994142E+03  0.13411990740E+03  0.00000000000E+00 0. -1.
         22    1    1    2    0    0  0.30897011453E+01  0.26943299478E+02  0.18872006137E+02  0.33039979655E+02  0.00000000000E+00 0. -1.
</event>
<event>
 6    1  0.2809573E-005  0.1629597E+03  0.7818608E-02  0.1310672E+00
          2   -1    0    0  502    0  0.00000000000E+00  0.00000000000E+00  0.13223547533E+03  0.13223547533E+03  0.00000000000E+00 0. -1.
          1   -1    0    0  501    0 -0.00000000000E+00 -0.00000000000E+00 -0.26558052263E+03  0.26558052263E+03  0.00000000000E+00 0. -1.
          2    1    1    2  501    0 -0.27408207016E+02 -0.22398915363E+01 -0.93938840937E+02  0.97881217619E+02  0.00000000000E+00 0. -1.
          1    1    1    2  502    0  0.20244645316E+02 -0.12046617264E+03  0.38110369202E+01  0.12221484532E+03  0.00000000000E+00 0. -1.
         22    1    1    2    0    0 -0.28186807065E+01  0.11415257233E+03 -0.79495069079E+02  0.13913382313E+03  0.00000000000E+00 0.  1.
         22    1    1    2    0    0  0.99822424065E+01  0.85534918402E+01  0.36277825796E+02  0.38586111887E+02  0.00000000000E+00 0. -1.
</event>
<event>
 6    1  0.2809573E-005  0.1582300E+03  0.7818608E-02  0.1193225E+00
          2   -1    0    0  502    0  0.00000000000E+00  0.00000000000E+00  0.10122911620E+03  0.10122911620E+03  0.00000000000E+00 0. -1.
          1   -1    0    0  501    0 -0.00000000000E+00 -0.00000000000E+00 -0.17102364691E+04  0.17102364691E+04  0.00000000000E+00 0.  1.
          2    1    1    2  501    0  0.15498484368E+03  0.31040999611E+02 -0.10712107607E+03  0.19094179837E+03  0.00000000000E+00 0. -1.
          1    1    1    2  502    0 -0.53772937765E+02  0.13720401218E+02 -0.14375062022E+04  0.14385770260E+04  0.00000000000E+00 0.  1.
         22    1    1    2    0    0  0.29258653732E+02 -0.16401033293E+02 -0.27650145694E+02  0.43469452127E+02  0.00000000000E+00 0.  1.
         22    1    1    2    0    0 -0.13047055965E+03 -0.28360367535E+02 -0.36729928916E+02  0.13847730882E+03  0.00000000000E+00 0.  1.
</event>
<event>
 6    1  0.2809573E-005  0.1338280E+03  0.7818608E-02  0.1222861E+00
          2   -1    0    0  502    0  0.00000000000E+00  0.00000000000E+00  0.32450816149E+02  0.32450816149E+02  0.00000000000E+00 0.  1.
          1   -1    0    0  501    0 -0.00000000000E+00 -0.00000000000E+00 -0.11598142627E+04  0.11598142627E+04  0.00000000000E+00 0. -1.
          2    1    1    2  501    0  0.10988655486E+03  0.51198832705E+02 -0.41752105655E+03  0.43476454325E+03  0.00000000000E+00 0.  1.
          1    1    1    2  502    0 -0.38429742252E+02  0.14601562710E+02 -0.47147220845E+03  0.47326112672E+03  0.00000000000E+00 0. -1.
         22    1    1    2    0    0 -0.95237608228E+02 -0.81013175845E+02 -0.17722360098E+03  0.21689062088E+03  0.00000000000E+00 0.  1.
         22    1    1    2    0    0  0.23780795624E+02  0.15212780430E+02 -0.61146580559E+02  0.67348787984E+02  0.00000000000E+00 0. -1.
</event>
<event>
 6    1  0.2809573E-005  0.5405997E+03  0.7818608E-02  0.1147407E+00
          2   -1    0    0  502    0  0.00000000000E+00  0.00000000000E+00  0.10736875729E+04  0.10736875729E+04  0.00000000000E+00 0.  1.
          1   -1    0    0  501    0 -0.00000000000E+00 -0.00000000000E+00 -0.18758135998E+03  0.18758135998E+03  0.00000000000E+00 0.  1.
          2    1    1    2  501    0  0.25607567368E+02 -0.15894412704E+03  0.59776208499E+02  0.17173286852E+03  0.00000000000E+00 0.  1.
          1    1    1    2  502    0 -0.32923113308E+03 -0.27499254379E+02  0.40616176959E+03  0.52356158287E+03  0.00000000000E+00 0.  1.
         22    1    1    2    0    0 -0.84955295638E+00 -0.10670286620E+02  0.36332319220E+02  0.37876300990E+02  0.00000000000E+00 0.  1.
         22    1    1    2    0    0  0.30447311867E+03  0.19711366804E+03  0.38383591559E+03  0.52809818047E+03  0.00000000000E+00 0.  1.
</event>
<event>
 6    1  0.2809573E-005  0.1291571E+03  0.7818608E-02  0.1305069E+00
          2   -1    0    0  502    0  0.00000000000E+00  0.00000000000E+00  0.14501190698E+02  0.14501190698E+02  0.00000000000E+00 0. -1.
          1   -1    0    0  501    0 -0.00000000000E+00 -0.00000000000E+00 -0.20773461737E+04  0.20773461737E+04  0.00000000000E+00 0.  1.
          2    1    1    2  501    0  0.93133120139E+01 -0.40469765985E+02 -0.13159412609E+03  0.13799113653E+03  0.00000000000E+00 0. -1.
          1    1    1    2  502    0  0.56326077794E+02  0.22479161523E+02 -0.14448913099E+04  0.14461634890E+04  0.00000000000E+00 0.  1.
         22    1    1    2    0    0 -0.69047458471E+02  0.47031017240E+02 -0.46241128446E+03  0.46989750383E+03  0.00000000000E+00 0.  1.
         22    1    1    2    0    0  0.34080686627E+01 -0.29040412779E+02 -0.23948262555E+02  0.37795234961E+02  0.00000000000E+00 0. -1.
</event>
<event>
 6    1  0.2809573E-005  0.2809098E+03  0.7818608E-02  0.1179946E+00
          2   -1    0    0  502    0  0.00000000000E+00  0.00000000000E+00  0.34536049981E+03  0.34536049981E+03  0.00000000000E+00 0. -1.
          1   -1    0    0  501    0 -0.00000000000E+00 -0.00000000000E+00 -0.12952225600E+04  0.12952225600E+04  0.00000000000E+00 0. -1.
          2    1    1    2  501    0  0.11828661943E+02 -0.33612010149E+02 -0.11959428286E+03  0.12478973100E+03  0.00000000000E+00 0. -1.
          1    1    1    2  502    0 -0.70176924669E+00 -0.22109985398E+02 -0.11597229132E+04  0.11599338685E+04  0.00000000000E+00 0. -1.
         22    1    1    2    0    0 -0.44191049198E+02  0.69560687885E+02  0.13529091677E+03  0.15841455201E+03  0.00000000000E+00 0. -1.
         22    1    1    2    0    0  0.33064156502E+02 -0.13838692338E+02  0.19416421907E+03  0.19744490831E+03  0.00000000000E+00 0. -1.
</event>
<event>
 6    1  0.2809573E-005  0.1507204E+03  0.7818608E-02  0.1210053E+00
          2   -1    0    0  502    0  0.00000000000E+00  0.00000000000E+00  0.64546274597E+03  0.64546274597E+03  0.00000000000E+00 0. -1.
          1   -1    0    0  501    0 -0.00000000000E+00 -0.00000000000E+00 -0.36857795942E+03  0.36857795942E+03  0.00000000000E+00 0.  1.
          2    1    1    2  501    0  0.81342010607E+02 -0.10683919568E+03  0.19633232249E+03  0.23786028941E+03  0.00000000000E+00 0. -1.
          1    1    1    2  502    0 -0.24210499044E+02  0.69177892915E+02 -0.33124202179E+03  0.33925360150E+03  0.00000000000E+00 0.  1.
         22    1    1    2    0    0  0.10692598483E+01 -0.42102160602E+02  0.18213309252E+03  0.18693902384E+03  0.00000000000E+00 0.  1.
         22    1    1    2    0    0 -0.58200771411E+02  0.79763463371E+02  0.22966139334E+03  0.24998779065E+03  0.00000000000E+00 0. -1.
</event>
<event>
 6    1  0.2809573E-005  0.1625465E+03  0.7818608E-02  0.1223230E+00
          2   -1    0    0  502    0  0.00000000000E+00  0.00000000000E+00  0.21907002275E+03  0.21907002275E+03  0.00000000000E+00 0. -1.
          1   -1    0    0  501    0 -0.00000000000E+00 -0.00000000000E+00 -0.31122231043E+03  0.31122231043E+03  0.00000000000E+00 0.  1.
          2    1    1    2  501    0  0.67324041973E+02  0.22686742677E+02 -0.17209360840E+02  0.73098406422E+02  0.00000000000E+00 0. -1.
          1    1    1    2  502    0 -0.50171323278E+02  0.15736188113E+02 -0.24125698041E+03  0.24692047281E+03  0.00000000000E+00 0.  1.
         22    1    1    2    0    0  0.10589336520E+02  0.24825693364E+02  0.12895950371E+03  0.13175356805E+03  0.00000000000E+00 0. -1.
         22    1    1    2    0    0 -0.27742055215E+02 -0.63248624155E+02  0.37354549872E+02  0.78519885896E+02  0.00000000000E+00 0. -1.
</event>
<event>
 6    1  0.2809573E-005  0.1797745E+03  0.7818608E-02  0.1182910E+00
          2   -1    0    0  502    0  0.00000000000E+00  0.00000000000E+00  0.48281988099E+03  0.48281988099E+03  0.00000000000E+00 0.  1.
          1   -1    0    0  501    0 -0.00000000000E+00 -0.00000000000E+00 -0.14984057080E+03  0.14984057080E+03  0.00000000000E+00 0.  1.
          2    1    1    2  501    0 -0.93627694036E+02 -0.93404558835E+02  0.74027277766E+02  0.15156053099E+03  0.00000000000E+00 0.  1.
          1    1    1    2  502    0  0.42777913809E+02  0.20661702704E+03  0.71092727203E+02  0.22265381567E+03  0.00000000000E+00 0.  1.
         22    1    1    2    0    0 -0.28162289422E+02 -0.12127832204E+02 -0.35165994175E+00  0.30664678771E+02  0.00000000000E+00 0.  1.
         22    1    1    2    0    0  0.79012069648E+02 -0.10108463600E+03  0.18821096516E+03  0.22778142635E+03  0.00000000000E+00 0.  1.
</event>
<event>
 6    1  0.2809573E-005  0.2027882E+03  0.7818608E-02  0.1214498E+00
          2   -1    0    0  502    0  0.00000000000E+00  0.00000000000E+00  0.61337205372E+03  0.61337205372E+03  0.00000000000E+00 0. -1.
          1   -1    0    0  501    0 -0.00000000000E+00 -0.00000000000E+00 -0.72618894307E+02  0.72618894307E+02  0.00000000000E+00 0. -1.
          2    1    1    2  501    0 -0.47898962573E+02 -0.48974132855E+02  0.14164016086E+01  0.68518482893E+02  0.00000000000E+00 0. -1.
          1    1    1    2  502    0 -0.59975649089E+02  0.10657451053E+03  0.26945735647E+03  0.29590956681E+03  0.00000000000E+00 0. -1.
         22    1    1    2    0    0 -0.31967402916E+01 -0.44824079051E+02  0.15449004397E+03  0.16089310395E+03  0.00000000000E+00 0.  1.
         22    1    1    2    0    0  0.11107135195E+03 -0.12776298623E+02  0.11538935737E+03  0.16066979438E+03  0.00000000000E+00 0. -1.
</event>
<event>
 6    1  0.2809573E-005  0.7572013E+02  0.7818608E-02  0.1403047E+00
          2   -1    0    0  502    0  0.00000000000E+00  0.00000000000E+00  0.41768265334E+02  0.41768265334E+02  0.00000000000E+00 0. -1.
          1   -1    0    0  501    0 -0.00000000000E+00 -0.00000000000E+00 -0.14229156467E+04  0.14229156467E+04  0.00000000000E+00 0. -1.
          2    1    1    2  501    0 -0.27581235553E+02  0.39752629678E+02 -0.84640532749E+02  0.97493671102E+02  0.00000000000E+00 0. -1.
          1    1    1    2  502    0  0.58857782457E+02 -0.40742188333E+02 -0.12088096231E+04  0.12109272766E+04  0.00000000000E+00 0. -1.
         22    1    1    2    0    0 -0.31149635059E+02  0.28476403970E+02 -0.11192792581E+03  0.11962050796E+03  0.00000000000E+00 0. -1.
         22    1    1    2    0    0 -0.12691184491E+00 -0.27486845316E+02  0.24230700259E+02  0.36642456346E+02  0.00000000000E+00 0. -1.
</event>
<event>
 6    1  0.3224819E-005  0.1071448E+03  0.7818608E-02  0.1303454E+00
          2   -1    0    0  502    0  0.00000000000E+00  0.00000000000E+00  0.20885646684E+03  0.20885646684E+03  0.00000000000E+00 0. -1.
          1   -1    0    0  501    0 -0.00000000000E+00 -0.00000000000E+00 -0.10461739020E+04  0.10461739020E+04  0.00000000000E+00 0. -1.
          2    1    1    2  501    0  0.82786086455E+02  0.32747812572E+02 -0.28558507009E+02  0.93496222712E+02  0.00000000000E+00 0. -1.
          1    1    1    2  502    0 -0.78143051438E+02 -0.67690380941E+02 -0.95905699208E+03  0.96461320654E+03  0.00000000000E+00 0. -1.
         22    1    1    2    0    0 -0.34723197697E+02  0.39715841550E+02  0.15709406153E+03  0.16571539668E+03  0.00000000000E+00 0. -1.
         22    1    1    2    0    0  0.30080162680E+02 -0.47732731803E+01 -0.67959975930E+01  0.31205542889E+02  0.00000000000E+00 0. -1.
</event>
<event>
 6    1  0.2809573E-005  0.8308423E+02  0.7818608E-02  0.1326415E+00
          2   -1    0    0  502    0  0.00000000000E+00  0.00000000000E+00  0.19049973888E+03  0.19049973888E+03  0.00000000000E+00 0.  1.
          1   -1    0    0  501    0 -0.00000000000E+00 -0.00000000000E+00 -0.24726461309E+03  0.24726461309E+03  0.00000000000E+00 0. -1.
          2    1    1    2  501    0 -0.55911336744E+02 -0.58964389239E+01 -0.47812776168E+02  0.73803164792E+02  0.00000000000E+00 0.  1.
          1    1    1    2  502    0  0.54629515043E+01 -0.21950943119E+02 -0.15825656572E+03  0.15986503162E+03  0.00000000000E+00 0. -1.
         22    1    1    2    0    0 -0.23390646804E+02  0.17459071776E+02 -0.77843290653E+01  0.30208232722E+02  0.00000000000E+00 0.  1.
         22    1    1    2    0    0  0.73839032044E+02  0.10388310266E+02  0.15708879675E+03  0.17388792283E+03  0.00000000000E+00 0.  1.
</event>
<event>
 6    1  0.2809573E-005  0.1659441E+03  0.7818608E-02  0.1294089E+00
          2   -1    0    0  502    0  0.00000000000E+00  0.00000000000E+00  0.13233077176E+03  0.13233077176E+03  0.00000000000E+00 0. -1.
          1   -1    0    0  501    0 -0.00000000000E+00 -0.00000000000E+00 -0.12844409812E+04  0.12844409812E+04  0.00000000000E+00 0. -1.
          2    1    1    2  501    0 -0.12256246403E+03  0.31211312284E+02 -0.78584323291E+02  0.14889996464E+03  0.00000000000E+00 0. -1.
          1    1    1    2  502    0  0.13762775971E+03 -0.76845089086E+02 -0.11185112765E+04  0.11295636519E+04  0.00000000000E+00 0. -1.
         22    1    1    2    0    0  0.14204163481E+02  0.91231941028E+01  0.78791461407E+02  0.80579683056E+02  0.00000000000E+00 0. -1.
         22    1    1    2    0    0 -0.29269459163E+02  0.36510582699E+02 -0.33806070990E+02  0.57728453335E+02  0.00000000000E+00 0. -1.
</event>
<event>
 6    1  0.2809573E-005  0.1293968E+03  0.7818608E-02  0.1315621E+00
          2   -1    0    0  502    0  0.00000000000E+00  0.00000000000E+00  0.26747260057E+02  0.26747260057E+02  0.00000000000E+00 0.  1.
          1   -1    0    0  501    0 -0.00000000000E+00 -0.00000000000E+00 -0.92631188325E+03  0.92631188325E+03  0.00000000000E+00 0. -1.
          2    1    1    2  501    0  0.22704616571E+02  0.52819666207E+02 -0.14635807939E+03  0.15724536290E+03  0.00000000000E+00 0.  1.
          1    1    1    2  502    0  0.13491983603E+02  0.22773775684E+02 -0.49797595370E+03  0.49867898386E+03  0.00000000000E+00 0. -1.
         22    1    1    2    0    0 -0.14045360567E+02 -0.66325070894E+02 -0.26323382770E+03  0.27182408876E+03  0.00000000000E+00 0. -1.
         22    1    1    2    0    0 -0.22151239607E+02 -0.92683709967E+01  0.80032375903E+01  0.25310707793E+02  0.00000000000E+00 0.  1.
</event>
<event>
 6    1  0.2809573E-005  0.1915663E+03  0.7818608E-02  0.1217943E+00
          2   -1    0    0  502    0  0.00000000000E+00  0.00000000000E+00  0.23922879807E+03  0.23922879807E+03  0.00000000000E+00 0.  1.
          1   -1    0    0  501    0 -0.00000000000E+00 -0.00000000000E+00 -0.65824084149E+03  0.65824084149E+03  0.00000000000E+00 0.  1.
          2    1    1    2  501    0  0.42469253614E+02  0.19016855319E+02 -0.38988798646E+02  0.60707534200E+02  0.00000000000E+00 0.  1.
          1    1    1    2  502    0 -0.78258242496E+02  0.38453099319E+02 -0.58143328415E+03  0.58793507914E+03  0.00000000000E+00 0.  1.
         22    1    1    2    0    0  0.82674752691E+02 -0.41395161054E+02  0.15738000568E+03  0.18252983394E+03  0.00000000000E+00 0.  1.
         22    1    1    2    0    0 -0.46885763809E+02 -0.16074793584E+02  0.44030033689E+02  0.66297192273E+02  0.00000000000E+00 0. -1.
</event>
<event>
 6    1  0.2809573E-005  0.1116233E+03  0.7818608E-02  0.1311045E+00
          2   -1    0    0  502    0  0.00000000000E+00  0.00000000000E+00  0.21489694677E+03  0.21489694677E+03  0.00000000000E+00 0.  1.
          1   -1    0    0  501    0 -0.00000000000E+00 -0.00000000000E+00 -0.51628104368E+03  0.51628104368E+03  0.00000000000E+00 0.  1.
          2    1    1    2  501    0 -0.21643208638E+02 -0.14947874418E+02  0.11158197664E+03  0.11464032860E+03  0.00000000000E+00 0.  1.
          1    1    1    2  502    0 -0.43523810437E+02 -0.13891448403E+02 -0.46482363024E+03  0.46706348781E+03  0.00000000000E+00 0.  1.
         22    1    1    2    0    0  0.73092504834E+02 -0.11007426653E+02  0.72816757736E+02  0.10375913411E+03  0.00000000000E+00 0.  1.
         22    1    1    2    0    0 -0.79254857584E+01  0.39846749474E+02 -0.20959201042E+02  0.45715039938E+02  0.00000000000E+00 0.  1.
</event>
<event>
 6    1  0.2809573E-005  0.1311542E+03  0.7818608E-02  0.1241541E+00
          2   -1    0    0  502    0  0.00000000000E+00  0.00000000000E+00  0.45473301942E+03  0.45473301942E+03  0.00000000000E+00 0. -1.
          1   -1    0    0  501    0 -0.00000000000E+00 -0.00000000000E+00 -0.32110472162E+03  0.32110472162E+03  0.00000000000E+00 0. -1.
          2    1    1    2  501    0 -0.34483295448E+02 -0.15280662243E+03 -0.26125171459E+03  0.30461684113E+03  0.00000000000E+00 0. -1.
          1    1    1    2  502    0  0.71710680763E+02  0.55168379148E+02  0.11048313177E+03  0.14280229059E+03  0.00000000000E+00 0. -1.
         22    1    1    2    0    0 -0.17087713242E+02  0.59169333779E+01 -0.91149381802E+01  0.20250484994E+02  0.00000000000E+00 0. -1.
         22    1    1    2    0    0 -0.20139672072E+02  0.91721309905E+02  0.29351181880E+03  0.30816812433E+03  0.00000000000E+00 0. -1.
</event>
<event>
 6    1  0.2809573E-005  0.2823841E+03  0.7818608E-02  0.1192104E+00
          2   -1    0    0  502    0  0.00000000000E+00  0.00000000000E+00  0.30521176964E+03  0.30521176964E+03  0.00000000000E+00 0. -1.
          1   -1    0    0  501    0 -0.00000000000E+00 -0.00000000000E+00 -0.32289483491E+03  0.32289483491E+03  0.00000000000E+00 0. -1.
          2    1    1    2  501    0  0.11721462373E+03  0.23484951290E+02 -0.17096890153E+03  0.20861729613E+03  0.00000000000E+00 0. -1.
          1    1    1    2  502    0 -0.12448537837E+03 -0.16179114720E+03  0.73138791928E+02  0.21684618425E+03  0.00000000000E+00 0. -1.
         22    1    1    2    0    0 -0.16973528850E+02  0.20991900161E+02  0.78313548886E+02  0.82835816487E+02  0.00000000000E+00 0. -1.
         22    1    1    2    0    0  0.24244283486E+02  0.11731429575E+03  0.18334954467E+01  0.11980730768E+03  0.00000000000E+00 0.  1.
</event>
<event>
 6    1  0.2809573E-005  0.8657181E+02  0.7818608E-02  0.1315960E+00
          2   -1    0    0  502    0  0.00000000000E+00  0.00000000000E+00  0.57683127916E+02  0.57683127916E+02  0.00000000000E+00 0.  1.
          1   -1    0    0  501    0 -0.00000000000E+00 -0.00000000000E+00 -0.20415099188E+03  0.20415099188E+03  0.00000000000E+00 0.  1.
          2    1    1    2  501    0 -0.92954098945E+01 -0.35896341783E+02  0.12150451480E+01  0.37100247078E+02  0.00000000000E+00 0.  1.
          1    1    1    2  502    0  0.14448549001E+02  0.40278505224E+02 -0.35973500568E+02  0.55903589280E+02  0.00000000000E+00 0.  1.
         22    1    1    2    0    0  0.11854388328E+02 -0.61034401781E+02 -0.33051912982E+02  0.70414158201E+02  0.00000000000E+00 0.  1.
         22    1    1    2    0    0 -0.17007527434E+02  0.56652238340E+02 -0.78657495558E+02  0.98416125233E+02  0.00000000000E+00 0.  1.
</event>
<event>
 6    1  0.2809573E-005  0.8574925E+02  0.7818608E-02  0.1334941E+00
          2   -1    0    0  502    0  0.00000000000E+00  0.00000000000E+00  0.10840670662E+03  0.10840670662E+03  0.00000000000E+00 0.  1.
          1   -1    0    0  501    0 -0.00000000000E+00 -0.00000000000E+00 -0.78624809403E+02  0.78624809403E+02  0.00000000000E+00 0.  1.
          2    1    1    2  501    0 -0.64980995246E+01  0.26460062719E+02  0.21206823500E+02  0.34526650279E+02  0.00000000000E+00 0.  1.
          1    1    1    2  502    0 -0.22080381306E+02 -0.10362355875E+02  0.65811098738E+01  0.25263267110E+02  0.00000000000E+00 0.  1.
         22    1    1    2    0    0 -0.17447664469E+01 -0.55935841385E+02  0.36160051286E+02  0.66628911671E+02  0.00000000000E+00 0.  1.
         22    1    1    2    0    0  0.30323247277E+02  0.39838134540E+02 -0.34166087447E+02  0.60612686960E+02  0.00000000000E+00 0.  1.
</event>
<event>
 6    1  0.2809573E-005  0.7359925E+02  0.7818608E-02  0.1352190E+00
          2   -1    0    0  502    0  0.00000000000E+00  0.00000000000E+00  0.83899180093E+03  0.83899180093E+03  0.00000000000E+00 0. -1.
          1   -1    0    0  501    0 -0.00000000000E+00 -0.00000000000E+00 -0.39289788595E+03  0.39289788595E+03  0.00000000000E+00 0. -1.
          2    1    1    2  501    0 -0.25129235769E+02  0.41917396043E+01  0.14812858205E+03  0.15030344637E+03  0.00000000000E+00 0. -1.
          1    1    1    2  502    0  0.48646312833E+02 -0.38521330258E+02 -0.38301051771E+03  0.38800439857E+03  0.00000000000E+00 0. -1.
         22    1    1    2    0    0  0.31735122340E+02  0.61426306611E+02  0.40165291023E+03  0.40756026478E+03  0.00000000000E+00 0. -1.
         22    1    1    2    0    0 -0.55252199404E+02 -0.27096715957E+02  0.27932294041E+03  0.28602157715E+03  0.00000000000E+00 0. -1.
</event>
<event>
 6    1  0.2809573E-005  0.2094124E+03  0.7818608E-02  0.1243592E+00
          2   -1    0    0  502    0  0.00000000000E+00  0.00000000000E+00  0.12671232107E+02  0.12671232107E+02  0.00000000000E+00 0. -1.
          1   -1    0    0  501    0 -0.00000000000E+00 -0.00000000000E+00 -0.18027548144E+04  0.18027548144E+04  0.00000000000E+00 0. -1.
          2    1    1    2  501    0 -0.47314584736E+02  0.56979260145E+02 -0.64268526848E+03  0.64693868360E+03  0.00000000000E+00 0. -1.
          1    1    1    2  502    0 -0.39390795074E+02  0.11061168449E+02 -0.46477588463E+03  0.46657326019E+03  0.00000000000E+00 0. -1.
         22    1    1    2    0    0  0.99872367165E+02 -0.86106667737E+02 -0.64334489897E+03  0.65672026539E+03  0.00000000000E+00 0. -1.
         22    1    1    2    0    0 -0.13166987356E+02  0.18066239143E+02 -0.39277530201E+02  0.45193837318E+02  0.00000000000E+00 0. -1.
</event>
<event>
 6    1  0.2809573E-005  0.1443498E+03  0.7818608E-02  0.1307863E+00
          2   -1    0    0  502    0  0.00000000000E+00  0.00000000000E+00  0.84105878048E+02  0.84105878048E+02  0.00000000000E+00 0.  1.
          1   -1    0    0  501    0 -0.00000000000E+00 -0.00000000000E+00 -0.62346751487E+03  0.62346751487E+03  0.00000000000E+00 0.  1.
          2    1    1    2  501    0  0.69473441924E+02  0.24585099567E+02 -0.90998008584E+02  0.11709664308E+03  0.00000000000E+00 0.  1.
          1    1    1    2  502    0 -0.18264663125E+02 -0.25908721798E+02 -0.45745393384E+03  0.45855093650E+03  0.00000000000E+00 0.  1.
         22    1    1    2    0    0 -0.62845185908E+02 -0.14824310981E+02 -0.42045736098E+02  0.77052719043E+02  0.00000000000E+00 0. -1.
         22    1    1    2    0    0  0.11636407109E+02  0.16147933212E+02  0.51136041696E+02  0.54873094297E+02  0.00000000000E+00 0. -1.
</event>
<event>
 6    1  0.2809573E-005  0.2171644E+03  0.7818608E-02  0.1205114E+00
          2   -1    0    0  502    0  0.00000000000E+00  0.00000000000E+00  0.27072522506E+03  0.27072522506E+03  0.00000000000E+00 0.  1.
          1   -1    0    0  501    0 -0.00000000000E+00 -0.00000000000E+00 -0.15784674892E+03  0.15784674892E+03  0.00000000000E+00 0. -1.
          2    1    1    2  501    0 -0.12454481090E+03 -0.16841096505E+02  0.31564676807E+02  0.12958148508E+03  0.00000000000E+00 0.  1.
          1    1    1    2  502    0  0.10886205694E+03 -0.19159421628E+02 -0.43511339047E+02  0.11879085615E+03  0.00000000000E+00 0. -1.
         22    1    1    2    0    0  0.57578580495E+02  0.51620750330E+02  0.47140303695E+02  0.90566014756E+02  0.00000000000E+00 0.  1.
         22    1    1    2    0    0 -0.41895826536E+02 -0.15620232197E+02  0.77684834686E+02  0.89633617997E+02  0.00000000000E+00 0.  1.
</event>
<event>
 6    1  0.2809573E-005  0.2000191E+03  0.7818608E-02  0.1194033E+00
          2   -1    0    0  502    0  0.00000000000E+00  0.00000000000E+00  0.50437526808E+03  0.50437526808E+03  0.00000000000E+00 0.  1.
          1   -1    0    0  501    0 -0.00000000000E+00 -0.00000000000E+00 -0.15597803011E+03  0.15597803011E+03  0.00000000000E+00 0.  1.
          2    1    1    2  501    0  0.31085430793E+02 -0.19370332308E+02  0.38074042732E+01  0.36824042535E+02  0.00000000000E+00 0.  1.
          1    1    1    2  502    0 -0.18509878110E+03 -0.99626984489E+02  0.74472756634E+00  0.21020858551E+03  0.00000000000E+00 0.  1.
         22    1    1    2    0    0  0.51242466970E+02  0.51722125908E+02  0.24520028890E+03  0.25578145047E+03  0.00000000000E+00 0.  1.
         22    1    1    2    0    0  0.10277088334E+03  0.67275190889E+02  0.98644817222E+02  0.15753921967E+03  0.00000000000E+00 0.  1.
</event>
<event>
 6    1  0.2809573E-005  0.9217852E+02  0.7818608E-02  0.1324491E+00
          2   -1    0    0  502    0  0.00000000000E+00  0.00000000000E+00  0.71015191448E+02  0.71015191448E+02  0.00000000000E+00 0. -1.
          1   -1    0    0  501    0 -0.00000000000E+00 -0.00000000000E+00 -0.15782686676E+04  0.15782686676E+04  0.00000000000E+00 0.  1.
          2    1    1    2  501    0 -0.32538132039E+02  0.51203684218E+02 -0.59113147639E+02  0.84704849554E+02  0.00000000000E+00 0. -1.
          1    1    1    2  502    0  0.20077283849E+02 -0.72279543689E+01 -0.14277991285E+04  0.14279585750E+04  0.00000000000E+00 0.  1.
         22    1    1    2    0    0  0.29678978611E+02  0.99142817790E+01 -0.59904939305E+02  0.67585031684E+02  0.00000000000E+00 0.  1.
         22    1    1    2    0    0 -0.17218130421E+02 -0.53890011628E+02  0.39563739302E+02  0.69035402773E+02  0.00000000000E+00 0. -1.
</event>
<event>
 6    1  0.2809573E-005  0.2141787E+03  0.7818608E-02  0.1218420E+00
          2   -1    0    0  502    0  0.00000000000E+00  0.00000000000E+00  0.51042520452E+03  0.51042520452E+03  0.00000000000E+00 0. -1.
          1   -1    0    0  501    0 -0.00000000000E+00 -0.00000000000E+00 -0.60712496848E+03  0.60712496848E+03  0.00000000000E+00 0. -1.
          2    1    1    2  501    0 -0.30458568685E+02  0.92035035443E+02  0.32186581035E+03  0.33614843749E+03  0.00000000000E+00 0. -1.
          1    1    1    2  502    0  0.42574425045E+02 -0.16849925832E+03 -0.55458708669E+03  0.58118105479E+03  0.00000000000E+00 0. -1.
         22    1    1    2    0    0 -0.27720031162E+02  0.10791623731E+03  0.96981187903E+02  0.14771481039E+03  0.00000000000E+00 0. -1.
         22    1    1    2    0    0  0.15604174803E+02 -0.31452014426E+02  0.39040324481E+02  0.52505870322E+02  0.00000000000E+00 0.  1.
</event>
<event>
 6    1  0.2809573E-005  0.2512576E+03  0.7818608E-02  0.1239924E+00
          2   -1    0    0  502    0  0.00000000000E+00  0.00000000000E+00  0.37218658407E+02  0.37218658407E+02  0.00000000000E+00 0.  1.
          1   -1    0    0  501    0 -0.00000000000E+00 -0.00000000000E+00 -0.32844710942E+04  0.32844710942E+04  0.00000000000E+00 0. -1.
          2    1    1    2  501    0 -0.10349488472E+03  0.17628812042E+03 -0.12041117896E+04  0.12213410229E+04  0.00000000000E+00 0.  1.
          1    1    1    2  502    0  0.10176330183E+03 -0.22293528728E+03 -0.18322993850E+04  0.18486148728E+04  0.00000000000E+00 0. -1.
         22    1    1    2    0    0 -0.11107237782E+02  0.84244491149E+01  0.16066472983E+02  0.21271427506E+02  0.00000000000E+00 0.  1.
         22    1    1    2    0    0  0.12838820674E+02  0.38222717752E+02 -0.22690773426E+03  0.23046242933E+03  0.00000000000E+00 0. -1.
</event>
<event>
 6    1  0.2809573E-005  0.2654639E+03  0.7818608E-02  0.1187865E+00
          2   -1    0    0  502    0  0.00000000000E+00  0.00000000000E+00  0.15031265328E+03  0.15031265328E+03  0.00000000000E+00 0. -1.
          1   -1    0    0  501    0 -0.00000000000E+00 -0.00000000000E+00 -0.18331638714E+03  0.18331638714E+03  0.00000000000E+00 0. -1.
          2    1    1    2  501    0  0.45607984851E+02 -0.52311668263E+02 -0.10416981537E+03  0.12517167951E+03  0.00000000000E+00 0. -1.
          1    1    1    2  502    0  0.15698045683E+02 -0.23358579590E+02 -0.10312869683E+02  0.29973440908E+02  0.00000000000E+00 0. -1.
         22    1    1    2    0    0 -0.95325388484E+02  0.71673986242E+02  0.81103612083E+02  0.14422858900E+03  0.00000000000E+00 0. -1.
         22    1    1    2    0    0  0.34019357949E+02  0.39962616116E+01  0.37533910415E+00  0.34255330995E+02  0.00000000000E+00 0. -1.
</event>
<event>
 6    1  0.2809573E-005  0.1394182E+03  0.7818608E-02  0.1272992E+00
          2   -1    0    0  502    0  0.00000000000E+00  0.00000000000E+00  0.20311512846E+03  0.20311512846E+03  0.00000000000E+00 0.  1.
          1   -1    0    0  501    0 -0.00000000000E+00 -0.00000000000E+00 -0.17104791220E+03  0.17104791220E+03  0.00000000000E+00 0. -1.
          2    1    1    2  501    0 -0.20448321667E+02 -0.47147675330E+02 -0.26090957170E+01  0.51457210656E+02  0.00000000000E+00 0.  1.
          1    1    1    2  502    0  0.62223555900E+02  0.56570625351E+02 -0.10089064079E+03  0.13134278801E+03  0.00000000000E+00 0. -1.
         22    1    1    2    0    0  0.41932197116E+02 -0.65214343302E+01  0.15944945446E+02  0.45332985187E+02  0.00000000000E+00 0. -1.
         22    1    1    2    0    0 -0.83707431349E+02 -0.29015156907E+01  0.11962200732E+03  0.14603005681E+03  0.00000000000E+00 0.  1.
</event>
<event>
 6    1  0.2809573E-005  0.3659308E+03  0.7818608E-02  0.1098737E+00
          2   -1    0    0  502    0  0.00000000000E+00  0.00000000000E+00  0.10066761630E+04  0.10066761630E+04  0.00000000000E+00 0. -1.
          1   -1    0    0  501    0 -0.00000000000E+00 -0.00000000000E+00 -0.85316645344E+03  0.85316645344E+03  0.00000000000E+00 0. -1.
          2    1    1    2  501    0 -0.18428570468E+02  0.13832467471E+03  0.51430827501E+02  0.14872275502E+03  0.00000000000E+00 0. -1.
          1    1    1    2  502    0 -0.87524261243E+02 -0.25858599155E+03 -0.76900480555E+03  0.81602426575E+03  0.00000000000E+00 0. -1.
         22    1    1    2    0    0  0.86554192515E+02  0.60422877898E+01  0.29582255779E+03  0.30828415980E+03  0.00000000000E+00 0. -1.
         22    1    1    2    0    0  0.19398639195E+02  0.11421902905E+03  0.57526112985E+03  0.58681143591E+03  0.00000000000E+00 0. -1.
</event>
<event>
 6    1  0.2809573E-005  0.1496789E+03  0.7818608E-02  0.1201531E+00
          2   -1    0    0  502    0  0.00000000000E+00  0.00000000000E+00  0.12028002921E+04  0.12028002921E+04  0.00000000000E+00 0. -1.
          1   -1    0    0  501    0 -0.00000000000E+00 -0.00000000000E+00 -0.94542342295E+02  0.94542342295E+02  0.00000000000E+00 0.  1.
          2    1    1    2  501    0  0.10562482825E+03 -0.53672202508E+02  0.23499293152E+03  0.26317102335E+03  0.00000000000E+00 0. -1.
          1    1    1    2  502    0 -0.10203847556E+01 -0.31629813874E+02 -0.68385169496E+02  0.75352622501E+02  0.00000000000E+00 0.  1.
         22    1    1    2    0    0  0.21405838014E+02  0.24103383358E-01  0.51709887487E+02  0.55965372741E+02  0.00000000000E+00 0. -1.
         22    1    1    2    0    0 -0.12601028150E+03  0.85277912999E+02  0.88994030025E+03  0.90285361577E+03  0.00000000000E+00 0. -1.
</event>
<event>
 6    1  0.2809573E-005  0.8501547E+02  0.7818608E-02  0.1316836E+00
          2   -1    0    0  502    0  0.00000000000E+00  0.00000000000E+00  0.31129670696E+03  0.31129670696E+03  0.00000000000E+00 0.  1.
          1   -1    0    0  501    0 -0.00000000000E+00 -0.00000000000E+00 -0.52832846715E+02  0.52832846715E+02  0.00000000000E+00 0.  1.
          2    1    1    2  501    0  0.41549891661E+02 -0.14355708349E+02  0.83796070106E+02  0.94626958233E+02  0.00000000000E+00 0.  1.
          1    1    1    2  502    0  0.32778618104E+01  0.33046988210E+02 -0.16011305024E+02  0.36867461214E+02  0.00000000000E+00 0.  1.
         22    1    1    2    0    0  0.34450285095E+02 -0.27716000611E+02  0.11272149736E+03  0.12108317306E+03  0.00000000000E+00 0.  1.
         22    1    1    2    0    0 -0.79278038566E+02  0.90247207497E+01  0.77957597804E+02  0.11155196116E+03  0.00000000000E+00 0.  1.
</event>
<event>
 6    1  0.2809573E-005  0.3643579E+03  0.7818608E-02  0.1169334E+00
          2   -1    0    0  502    0  0.00000000000E+00  0.00000000000E+00  0.54793142895E+02  0.54793142895E+02  0.00000000000E+00 0.  1.
          1   -1    0    0  501    0 -0.00000000000E+00 -0.00000000000E+00 -0.16656599352E+04  0.16656599352E+04  0.00000000000E+00 0. -1.
          2    1    1    2  501    0  0.13213518811E+03  0.97780217064E+02 -0.40891477757E+03  0.44071756727E+03  0.00000000000E+00 0.  1.
          1    1    1    2  502    0 -0.24720823202E+02  0.24759434232E+02 -0.96540439117E+03  0.96603819136E+03  0.00000000000E+00 0. -1.
         22    1    1    2    0    0 -0.12012137503E+03 -0.13920072540E+03 -0.22166866540E+03  0.28799823595E+03  0.00000000000E+00 0.  1.
         22    1    1    2    0    0  0.12707010116E+02  0.16661074106E+02 -0.14878958140E+02  0.25699083482E+02  0.00000000000E+00 0.  1.
</event>
<event>
 6    1  0.2809573E-005  0.1590806E+03  0.7818608E-02  0.1244376E+00
          2   -1    0    0  502    0  0.00000000000E+00  0.00000000000E+00  0.12888150127E+03  0.12888150127E+03  0.00000000000E+00 0. -1.
          1   -1    0    0  501    0 -0.00000000000E+00 -0.00000000000E+00 -0.81462855793E+03  0.81462855793E+03  0.00000000000E+00 0. -1.
          2    1    1    2  501    0  0.10691297977E+02  0.88884850917E+02 -0.26106774188E+02  0.93254405973E+02  0.00000000000E+00 0. -1.
          1    1    1    2  502    0 -0.14439860644E+01 -0.15031975952E+03 -0.69350289227E+03  0.70960860817E+03  0.00000000000E+00 0. -1.
         22    1    1    2    0    0 -0.48249850644E+02 -0.13838878378E+02  0.22867888559E+02  0.55158888396E+02  0.00000000000E+00 0. -1.
         22    1    1    2    0    0  0.39002538731E+02  0.75273786986E+02  0.10994721231E+02  0.85488156663E+02  0.00000000000E+00 0. -1.
</event>
<event>
 6    1  0.2809573E-005  0.1931029E+03  0.7818608E-02  0.1226712E+00
          2   -1    0    0  502    0  0.00000000000E+00  0.00000000000E+00  0.52875814970E+03  0.52875814970E+03  0.00000000000E+00 0. -1.
          1   -1    0    0  501    0 -0.00000000000E+00 -0.00000000000E+00 -0.10785991333E+03  0.10785991333E+03  0.00000000000E+00 0. -1.
          2    1    1    2  501    0  0.92128347065E+02  0.12146650426E+03  0.12806567153E+03  0.19910439527E+03  0.00000000000E+00 0. -1.
          1    1    1    2  502    0 -0.94459881634E+02 -0.13751203420E+03  0.67556756427E+02  0.17998928892E+03  0.00000000000E+00 0. -1.
         22    1    1    2    0    0  0.17832573783E+02 -0.36119564237E+02  0.18625447793E+03  0.19056063119E+03  0.00000000000E+00 0. -1.
         22    1    1    2    0    0 -0.15501039214E+02  0.52165094168E+02  0.39021330480E+02  0.66963747645E+02  0.00000000000E+00 0.  1.
</event>
<event>
 6    1  0.2809573E-005  0.1569383E+03  0.7818608E-02  0.1267433E+00
          2   -1    0    0  502    0  0.00000000000E+00  0.00000000000E+00  0.25719338934E+03  0.25719338934E+03  0.00000000000E+00 0.  1.
          1   -1    0    0  501    0 -0.00000000000E+00 -0.00000000000E+00 -0.16207933244E+03  0.16207933244E+03  0.00000000000E+00 0.  1.
          2    1    1    2  501    0  0.66972299136E+02 -0.15882340987E+02  0.68709736023E+01  0.69171872065E+02  0.00000000000E+00 0.  1.
          1    1    1    2  502    0 -0.17086462626E+03 -0.12044421083E+01  0.16231462729E+02  0.17163808310E+03  0.00000000000E+00 0.  1.
         22    1    1    2    0    0  0.72306729599E+02  0.70995541534E+01 -0.24302243260E+02  0.76611133930E+02  0.00000000000E+00 0.  1.
         22    1    1    2    0    0  0.31585597527E+02  0.99872289415E+01  0.96313863832E+02  0.10185163268E+03  0.00000000000E+00 0.  1.
</event>
<event>
 6    1  0.2809573E-005  0.6171169E+02  0.7818608E-02  0.1396841E+00
          2   -1    0    0  502    0  0.00000000000E+00  0.00000000000E+00  0.91639320289E+02  0.91639320289E+02  0.00000000000E+00 0. -1.
          1   -1    0    0  501    0 -0.00000000000E+00 -0.00000000000E+00 -0.23234047668E+03  0.23234047668E+03  0.00000000000E+00 0. -1.
          2    1    1    2  501    0 -0.38004665099E+02 -0.46182261261E+02 -0.10267957753E+03  0.11882866433E+03  0.00000000000E+00 0. -1.
          1    1    1    2  502    0  0.29520072393E+02  0.96739389414E+01 -0.64811617562E+02  0.71871868904E+02  0.00000000000E+00 0. -1.
         22    1    1    2    0    0  0.12964286182E+01 -0.18218426539E+02 -0.41576793834E+02  0.45411689885E+02  0.00000000000E+00 0.  1.
         22    1    1    2    0    0  0.71881640881E+01  0.54726748858E+02  0.68366832535E+02  0.87867573851E+02  0.00000000000E+00 0. -1.
</event>
<event>
 6    1  0.2809573E-005  0.2633799E+03  0.7818608E-02  0.1193411E+00
          2   -1    0    0  502    0  0.00000000000E+00  0.00000000000E+00  0.98724738400E+02  0.98724738400E+02  0.00000000000E+00 0. -1.
          1   -1    0    0  501    0 -0.00000000000E+00 -0.00000000000E+00 -0.11448420059E+04  0.11448420059E+04  0.00000000000E+00 0. -1.
          2    1    1    2  501    0  0.76460268897E+02  0.10566514939E+03 -0.46628054543E+03  0.48417852448E+03  0.00000000000E+00 0. -1.
          1    1    1    2  502    0 -0.76587509968E+02 -0.22617449158E+03 -0.52056607390E+03  0.57272121021E+03  0.00000000000E+00 0. -1.
         22    1    1    2    0    0  0.14404779842E+02  0.91505391893E+02 -0.98912084192E+02  0.13551507232E+03  0.00000000000E+00 0. -1.
         22    1    1    2    0    0 -0.14277538772E+02  0.29003950294E+02  0.39641435986E+02  0.51151937334E+02  0.00000000000E+00 0. -1.
</event>
<event>
 6    1  0.2809573E-005  0.1381218E+03  0.7818608E-02  0.1256117E+00
          2   -1    0    0  502    0  0.00000000000E+00  0.00000000000E+00  0.56915498570E+02  0.56915498570E+02  0.00000000000E+00 0. -1.
          1   -1    0    0  501    0 -0.00000000000E+00 -0.00000000000E+00 -0.86223656776E+03  0.86223656776E+03  0.00000000000E+00 0. -1.
          2    1    1    2  501    0 -0.35913389912E+02  0.33167410926E+02 -0.34981186597E+03  0.35321125449E+03  0.00000000000E+00 0. -1.
          1    1    1    2  502    0  0.15083868660E+03 -0.62643340928E+02 -0.19936833041E+03  0.25772898306E+03  0.00000000000E+00 0. -1.
         22    1    1    2    0    0 -0.58272548886E+02 -0.16845427585E+02 -0.24730204336E+02  0.65506040872E+02  0.00000000000E+00 0. -1.
         22    1    1    2    0    0 -0.56652747804E+02  0.46321357586E+02 -0.23141066847E+03  0.24270578791E+03  0.00000000000E+00 0. -1.
</event>
<event>
 6    1  0.2809573E-005  0.1840270E+03  0.7818608E-02  0.1237242E+00
          2   -1    0    0  502    0  0.00000000000E+00  0.00000000000E+00  0.14468621679E+02  0.14468621679E+02  0.00000000000E+00 0. -1.
          1   -1    0    0  501    0 -0.00000000000E+00 -0.00000000000E+00 -0.22716215020E+04  0.22716215020E+04  0.00000000000E+00 0. -1.
          2    1    1    2  501    0  0.42707767400E+02 -0.22316496017E+02 -0.79400844872E+03  0.79546929295E+03  0.00000000000E+00 0. -1.
          1    1    1    2  502    0  0.20078139292E+02 -0.12218901969E+02 -0.10902099810E+04  0.10904633125E+04  0.00000000000E+00 0. -1.
         22    1    1    2    0    0 -0.66704535214E+02  0.71158004210E+02 -0.32724710777E+03  0.34147273116E+03  0.00000000000E+00 0. -1.
         22    1    1    2    0    0  0.39186285218E+01 -0.36622606224E+02 -0.45687342760E+02  0.58684786994E+02  0.00000000000E+00 0. -1.
</event>
<event>
 6    1  0.2809573E-005  0.2133102E+03  0.7818608E-02  0.1265325E+00
          2   -1    0    0  502    0  0.00000000000E+00  0.00000000000E+00  0.53118353354E+02  0.53118353354E+02  0.00000000000E+00 0.  1.
          1   -1    0    0  501    0 -0.00000000000E+00 -0.00000000000E+00 -0.13781080112E+04  0.13781080112E+04  0.00000000000E+00 0.  1.
          2    1    1    2  501    0 -0.98271896107E+02 -0.91489417364E+01 -0.30704807399E+03  0.32252067909E+03  0.00000000000E+00 0.  1.
          1    1    1    2  502    0  0.17727792282E+03  0.79812635340E+02 -0.85193444708E+03  0.87383626658E+03  0.00000000000E+00 0.  1.
         22    1    1    2    0    0 -0.68000866155E+02 -0.78898332360E+02 -0.18447428517E+03  0.21184859343E+03  0.00000000000E+00 0.  1.
         22    1    1    2    0    0 -0.11005160562E+02  0.82346387560E+01  0.18467148398E+02  0.23020825450E+02  0.00000000000E+00 0.  1.
</event>
<event>
 6    1  0.2809573E-005  0.2100585E+03  0.7818608E-02  0.1211023E+00
          2   -1    0    0  502    0  0.00000000000E+00  0.00000000000E+00  0.71751661596E+03  0.71751661596E+03  0.00000000000E+00 0.  1.
          1   -1    0    0  501    0 -0.00000000000E+00 -0.00000000000E+00 -0.10204814275E+03  0.10204814275E+03  0.00000000000E+00 0.  1.
          2    1    1    2  501    0  0.87588620702E+02 -0.15089146257E+03  0.66685178970E+02  0.18678038721E+03  0.00000000000E+00 0.  1.
          1    1    1    2  502    0 -0.84398467427E+02  0.16706524653E+03  0.32162915773E+03  0.37212795246E+03  0.00000000000E+00 0.  1.
         22    1    1    2    0    0 -0.43515749680E+02 -0.11364675146E+01  0.20977161324E+03  0.21424061648E+03  0.00000000000E+00 0. -1.
         22    1    1    2    0    0  0.40325596405E+02 -0.15037316454E+02  0.17382523285E+02  0.46415802560E+02  0.00000000000E+00 0. -1.
</event>
<event>
 6    1  0.2809573E-005  0.1264957E+03  0.7818608E-02  0.1324863E+00
          2   -1    0    0  502    0  0.00000000000E+00  0.00000000000E+00  0.12137724937E+03  0.12137724937E+03  0.00000000000E+00 0.  1.
          1   -1    0    0  501    0 -0.00000000000E+00 -0.00000000000E+00 -0.19503997852E+03  0.19503997852E+03  0.00000000000E+00 0. -1.
          2    1    1    2  501    0 -0.62778531935E+01 -0.41605840364E+02  0.41915248365E+02  0.59391459307E+02  0.00000000000E+00 0.  1.
          1    1    1    2  502    0  0.12308381358E+02  0.23398389316E+02 -0.12300894875E+03  0.12581805255E+03  0.00000000000E+00 0. -1.
         22    1    1    2    0    0  0.10072951063E+02 -0.19323683945E+02  0.60464476680E+02  0.64271471467E+02  0.00000000000E+00 0.  1.
         22    1    1    2    0    0 -0.16103479228E+02  0.37531134993E+02 -0.53033505440E+02  0.66936244564E+02  0.00000000000E+00 0. -1.
</event>
<event>
 6    1  0.2809573E-005  0.6104907E+02  0.7818608E-02  0.1405538E+00
          2   -1    0    0  502    0  0.00000000000E+00  0.00000000000E+00  0.49083588025E+03  0.49083588025E+03  0.00000000000E+00 0. -1.
          1   -1    0    0  501    0 -0.00000000000E+00 -0.00000000000E+00 -0.37970836605E+03  0.37970836605E+03  0.00000000000E+00 0.  1.
          2    1    1    2  501    0  0.18863004073E+01  0.40415429360E+02  0.70975078679E+02  0.81697165515E+02  0.00000000000E+00 0. -1.
          1    1    1    2  502    0 -0.31653214727E+02 -0.39843423791E+02 -0.36309011979E+03  0.36663859523E+03  0.00000000000E+00 0.  1.
         22    1    1    2    0    0 -0.10696803616E+02 -0.49284131938E+02  0.27016887721E+03  0.27483553169E+03  0.00000000000E+00 0. -1.
         22    1    1    2    0    0  0.40463717936E+02  0.48712126369E+02  0.13307367811E+03  0.14737295386E+03  0.00000000000E+00 0. -1.
</event>
<event>
 6    1  0.2809573E-005  0.1385027E+03  0.7818608E-02  0.1251392E+00
          2   -1    0    0  502    0  0.00000000000E+00  0.00000000000E+00  0.11166163324E+03  0.11166163324E+03  0.00000000000E+00 0. -1.
          1   -1    0    0  501    0 -0.00000000000E+00 -0.00000000000E+00 -0.31490190428E+03  0.31490190428E+03  0.00000000000E+00 0. -1.
          2    1    1    2  501    0  0.31672335730E+01 -0.28025567987E+02 -0.20658290418E+03  0.20849930486E+03  0.00000000000E+00 0. -1.
          1    1    1    2  502    0  0.11275991736E+02  0.53906054625E+02  0.59527911293E+02  0.81096133926E+02  0.00000000000E+00 0. -1.
         22    1    1    2    0    0  0.53697865816E+02 -0.14934012320E+02 -0.21629570432E+02  0.59785649066E+02  0.00000000000E+00 0.  1.
         22    1    1    2    0    0 -0.68141091125E+02 -0.10946474317E+02 -0.34555707724E+02  0.77182449664E+02  0.00000000000E+00 0. -1.
</event>
<event>
 6    1  0.2809573E-005  0.1669731E+03  0.7818608E-02  0.1247683E+00
          2   -1    0    0  502    0  0.00000000000E+00  0.00000000000E+00  0.46440995461E+03  0.46440995461E+03  0.00000000000E+00 0.  1.
          1   -1    0    0  501    0 -0.00000000000E+00 -0.00000000000E+00 -0.95201312348E+02  0.95201312348E+02  0.00000000000E+00 0.  1.
          2    1    1    2  501    0 -0.46952867256E+01  0.27692071788E+02 -0.47981992015E+01  0.28494197180E+02  0.00000000000E+00 0.  1.
          1    1    1    2  502    0  0.78962275976E+02 -0.15895104637E+03  0.14741684259E+03  0.23072104726E+03  0.00000000000E+00 0.  1.
         22    1    1    2    0    0 -0.38164472716E+02  0.13896386036E+02  0.15063089366E+03  0.15601058505E+03  0.00000000000E+00 0.  1.
         22    1    1    2    0    0 -0.36102516534E+02  0.11736258854E+03  0.75959105223E+02  0.14438543748E+03  0.00000000000E+00 0.  1.
</event>
<event>
 6    1  0.2809573E-005  0.7664689E+02  0.7818608E-02  0.1341789E+00
          2   -1    0    0  502    0  0.00000000000E+00  0.00000000000E+00  0.23790628809E+03  0.23790628809E+03  0.00000000000E+00 0. -1.
          1   -1    0    0  501    0 -0.00000000000E+00 -0.00000000000E+00 -0.14465288945E+03  0.14465288945E+03  0.00000000000E+00 0.  1.
          2    1    1    2  501    0  0.23992146562E+02  0.17492752642E+02  0.61538504616E+02  0.68327205724E+02  0.00000000000E+00 0. -1.
          1    1    1    2  502    0  0.18373972736E+02  0.87164801228E+01 -0.11385237921E+03  0.11565441691E+03  0.00000000000E+00 0.  1.
         22    1    1    2    0    0  0.10762986941E+02  0.40866058858E+02  0.81075525855E+02  0.91428209800E+02  0.00000000000E+00 0. -1.
         22    1    1    2    0    0 -0.53129106238E+02 -0.67075291622E+02  0.64491747376E+02  0.10714934510E+03  0.00000000000E+00 0.  1.
</event>
<event>
 6    1  0.2809573E-005  0.6094291E+03  0.7818608E-02  0.1116750E+00
          2   -1    0    0  502    0  0.00000000000E+00  0.00000000000E+00  0.13604601388E+04  0.13604601388E+04  0.00000000000E+00 0. -1.
          1   -1    0    0  501    0 -0.00000000000E+00 -0.00000000000E+00 -0.19722910876E+03  0.19722910876E+03  0.00000000000E+00 0. -1.
          2    1    1    2  501    0 -0.91938916700E+02  0.33674553520E+03  0.54749182192E+03  0.64930548662E+03  0.00000000000E+00 0. -1.
          1    1    1    2  502    0  0.13484243065E+03 -0.10551236665E+03 -0.60414283136E+02  0.18156328436E+03  0.00000000000E+00 0. -1.
         22    1    1    2    0    0 -0.53054578203E+02 -0.24336818981E+03  0.61205008356E+03  0.66079359022E+03  0.00000000000E+00 0. -1.
         22    1    1    2    0    0  0.10151064254E+02  0.12135021261E+02  0.64103407674E+02  0.66026886356E+02  0.00000000000E+00 0.  1.
</event>
<event>
 6    1  0.2809573E-005  0.9799091E+02  0.7818608E-02  0.1363599E+00
          2   -1    0    0  502    0  0.00000000000E+00  0.00000000000E+00  0.45021186363E+02  0.45021186363E+02  0.00000000000E+00 0.  1.
          1   -1    0    0  501    0 -0.00000000000E+00 -0.00000000000E+00 -0.66907534349E+03  0.66907534349E+03  0.00000000000E+00 0.  1.
          2    1    1    2  501    0  0.11371192285E+01 -0.30066009340E+02 -0.12356438847E+03  0.12717474614E+03  0.00000000000E+00 0.  1.
          1    1    1    2  502    0 -0.61195920506E+02  0.30538796389E+02 -0.42705818283E+03  0.43250000034E+03  0.00000000000E+00 0.  1.
         22    1    1    2    0    0 -0.39001131189E+01  0.23742852718E+02  0.24913128255E+02  0.34635211808E+02  0.00000000000E+00 0.  1.
         22    1    1    2    0    0  0.63958914396E+02 -0.24215639766E+02 -0.98344714091E+02  0.11978657157E+03  0.00000000000E+00 0.  1.
</event>
<event>
 6    1  0.2809573E-005  0.2742132E+03  0.7818608E-02  0.1185973E+00
          2   -1    0    0  502    0  0.00000000000E+00  0.00000000000E+00  0.22031474287E+03  0.22031474287E+03  0.00000000000E+00 0.  1.
          1   -1    0    0  501    0 -0.00000000000E+00 -0.00000000000E+00 -0.28528517499E+03  0.28528517499E+03  0.00000000000E+00 0. -1.
          2    1    1    2  501    0 -0.81477440433E+02 -0.12570197476E+03  0.33528821287E+02  0.15350485861E+03  0.00000000000E+00 0.  1.
          1    1    1    2  502    0  0.10435094300E+03  0.12069687094E+02 -0.14127179498E+03  0.17604691621E+03  0.00000000000E+00 0. -1.
         22    1    1    2    0    0 -0.54536142869E+02  0.12536192609E+03  0.30115648076E+02  0.13998841256E+03  0.00000000000E+00 0.  1.
         22    1    1    2    0    0  0.31662640307E+02 -0.11729638423E+02  0.12656893502E+02  0.36059730474E+02  0.00000000000E+00 0. -1.
</event>
<event>
 6    1  0.2809573E-005  0.2843162E+03  0.7818608E-02  0.1180355E+00
          2   -1    0    0  502    0  0.00000000000E+00  0.00000000000E+00  0.45288971229E+03  0.45288971229E+03  0.00000000000E+00 0.  1.
          1   -1    0    0  501    0 -0.00000000000E+00 -0.00000000000E+00 -0.18312001541E+03  0.18312001541E+03  0.00000000000E+00 0. -1.
          2    1    1    2  501    0 -0.24235346122E+02 -0.78065089237E+02 -0.52861293945E+01  0.81911252727E+02  0.00000000000E+00 0.  1.
          1    1    1    2  502    0 -0.28697034713E+02  0.37893642518E+02 -0.12261513898E+03  0.13150635062E+03  0.00000000000E+00 0. -1.
         22    1    1    2    0    0  0.60742562128E+02  0.73617392539E+02  0.35609965034E+03  0.36866806250E+03  0.00000000000E+00 0.  1.
         22    1    1    2    0    0 -0.78101812927E+01 -0.33445945819E+02  0.41571314919E+02  0.53924061861E+02  0.00000000000E+00 0.  1.
</event>
<event>
 6    1  0.2809573E-005  0.1488690E+03  0.7818608E-02  0.1304421E+00
          2   -1    0    0  502    0  0.00000000000E+00  0.00000000000E+00  0.12351552890E+03  0.12351552890E+03  0.00000000000E+00 0.  1.
          1   -1    0    0  501    0 -0.00000000000E+00 -0.00000000000E+00 -0.64754095172E+03  0.64754095172E+03  0.00000000000E+00 0. -1.
          2    1    1    2  501    0 -0.76789973477E+02  0.24306694688E+02 -0.29389201289E+02  0.85739375934E+02  0.00000000000E+00 0.  1.
          1    1    1    2  502    0  0.13643953790E+03 -0.53164261499E+02 -0.52245946147E+03  0.54259199689E+03  0.00000000000E+00 0. -1.
         22    1    1    2    0    0 -0.15324883184E+02 -0.11768869762E+02  0.67814588497E+02  0.70513663592E+02  0.00000000000E+00 0.  1.
         22    1    1    2    0    0 -0.44324681238E+02  0.40626436572E+02 -0.39991348556E+02  0.72211444209E+02  0.00000000000E+00 0.  1.
</event>
<event>
 6    1  0.2809573E-005  0.1371298E+03  0.7818608E-02  0.1268176E+00
          2   -1    0    0  502    0  0.00000000000E+00  0.00000000000E+00  0.93208075647E+01  0.93208075647E+01  0.00000000000E+00 0.  1.
          1   -1    0    0  501    0 -0.00000000000E+00 -0.00000000000E+00 -0.26807411084E+04  0.26807411084E+04  0.00000000000E+00 0.  1.
          2    1    1    2  501    0 -0.40326146213E+01  0.58694417051E+02 -0.68810866611E+03  0.69061916636E+03  0.00000000000E+00 0.  1.
          1    1    1    2  502    0 -0.21199714468E+02 -0.54698855298E+02 -0.14531694529E+04  0.14543530697E+04  0.00000000000E+00 0.  1.
         22    1    1    2    0    0  0.67148852411E+02 -0.29267022283E+02 -0.38530485767E+03  0.39220576273E+03  0.00000000000E+00 0.  1.
         22    1    1    2    0    0 -0.41916523322E+02  0.25271460530E+02 -0.14483732416E+03  0.15288391712E+03  0.00000000000E+00 0.  1.
</event>
<event>
 6    1  0.2809573E-005  0.6146684E+03  0.7818608E-02  0.1107728E+00
          2   -1    0    0  502    0  0.00000000000E+00  0.00000000000E+00  0.33210486101E+03  0.33210486101E+03  0.00000000000E+00 0. -1.
          1   -1    0    0  501    0 -0.00000000000E+00 -0.00000000000E+00 -0.68291905444E+03  0.68291905444E+03  0.00000000000E+00 0. -1.
          2    1    1    2  501    0  0.97655195343E+02  0.48354707213E+02 -0.33504308674E+03  0.35231886816E+03  0.00000000000E+00 0. -1.
          1    1    1    2  502    0  0.60486654659E+02 -0.18745508522E+02 -0.30350360868E+03  0.31003946517E+03  0.00000000000E+00 0. -1.
         22    1    1    2    0    0 -0.17396663917E+03 -0.18412300397E+02  0.21388150747E+03  0.27631269169E+03  0.00000000000E+00 0. -1.
         22    1    1    2    0    0  0.15824789171E+02 -0.11196898294E+02  0.73850994525E+02  0.76352890424E+02  0.00000000000E+00 0. -1.
</event>
<event>
 6    1  0.2809573E-005  0.1506929E+03  0.7818608E-02  0.1256396E+00
          2   -1    0    0  502    0  0.00000000000E+00  0.00000000000E+00  0.17115743902E+02  0.17115743902E+02  0.00000000000E+00 0. -1.
          1   -1    0    0  501    0 -0.00000000000E+00 -0.00000000000E+00 -0.98230119116E+03  0.98230119116E+03  0.00000000000E+00 0. -1.
          2    1    1    2  501    0 -0.21159254017E+02 -0.44631543379E+01 -0.42550067129E+03  0.42604982695E+03  0.00000000000E+00 0. -1.
          1    1    1    2  502    0 -0.87332171620E+01 -0.27554382317E+02 -0.28765171836E+03  0.28910037036E+03  0.00000000000E+00 0. -1.
         22    1    1    2    0    0 -0.34005855961E+02 -0.27427201579E+02 -0.72514340642E+02  0.84658013352E+02  0.00000000000E+00 0.  1.
         22    1    1    2    0    0  0.63898327140E+02  0.59444738234E+02 -0.17951871698E+03  0.19960872441E+03  0.00000000000E+00 0. -1.
</event>
<event>
 6    1  0.2809573E-005  0.1345615E+03  0.7818608E-02  0.1305279E+00
          2   -1    0    0  502    0  0.00000000000E+00  0.00000000000E+00  0.93109407816E+02  0.93109407816E+02  0.00000000000E+00 0. -1.
          1   -1    0    0  501    0 -0.00000000000E+00 -0.00000000000E+00 -0.21465553075E+04  0.21465553075E+04  0.00000000000E+00 0.  1.
          2    1    1    2  501    0  0.18584132942E+02  0.29248946430E+02 -0.36644776966E+03  0.36808265206E+03  0.00000000000E+00 0. -1.
          1    1    1    2  502    0  0.50045768354E+02 -0.16496171076E+02 -0.17226432967E+04  0.17234490507E+04  0.00000000000E+00 0.  1.
         22    1    1    2    0    0 -0.24606019256E+02 -0.76138232842E+01  0.80832390417E+02  0.84836913129E+02  0.00000000000E+00 0. -1.
         22    1    1    2    0    0 -0.44023882039E+02 -0.51389520696E+01 -0.45187223799E+02  0.63296099507E+02  0.00000000000E+00 0. -1.
</event>
<event>
 6    1  0.2809573E-005  0.2062442E+03  0.7818608E-02  0.1211592E+00
          2   -1    0    0  502    0  0.00000000000E+00  0.00000000000E+00  0.68066903548E+03  0.68066903548E+03  0.00000000000E+00 0. -1.
          1   -1    0    0  501    0 -0.00000000000E+00 -0.00000000000E+00 -0.57867223198E+02  0.57867223198E+02  0.00000000000E+00 0. -1.
          2    1    1    2  501    0  0.71248497196E+02 -0.10304980494E+03  0.17940231952E+03  0.21881682499E+03  0.00000000000E+00 0. -1.
          1    1    1    2  502    0 -0.93676896730E+02  0.71668704209E+02  0.10673179165E+03  0.15907054879E+03  0.00000000000E+00 0. -1.
         22    1    1    2    0    0  0.61395518017E+02  0.54749718121E+02  0.24291959437E+03  0.25647001890E+03  0.00000000000E+00 0. -1.
         22    1    1    2    0    0 -0.38967118483E+02 -0.23368617385E+02  0.93748106742E+02  0.10417886599E+03  0.00000000000E+00 0.  1.
</event>
<event>
 6    1  0.2809573E-005  0.1777249E+03  0.7818608E-02  0.1248616E+00
          2   -1    0    0  502    0  0.00000000000E+00  0.00000000000E+00  0.73123924201E+02  0.73123924201E+02  0.00000000000E+00 0. -1.
          1   -1    0    0  501    0 -0.00000000000E+00 -0.00000000000E+00 -0.13669695113E+04  0.13669695113E+04  0.00000000000E+00 0. -1.
          2    1    1    2  501    0  0.59305244771E+01  0.36704814764E+02 -0.63658421895E+02  0.73721158602E+02  0.00000000000E+00 0. -1.
          1    1    1    2  502    0  0.83391512866E+02 -0.10451683918E+03 -0.11804593015E+04  0.11880076080E+04  0.00000000000E+00 0. -1.
         22    1    1    2    0    0  0.32732504186E+02  0.46250634234E+01 -0.16583917688E+02  0.36984244859E+02  0.00000000000E+00 0.  1.
         22    1    1    2    0    0 -0.12205454153E+03  0.63186960989E+02 -0.33143945985E+02  0.14138042404E+03  0.00000000000E+00 0. -1.
</event>
<event>
 6    1  0.2809573E-005  0.1113344E+03  0.7818608E-02  0.1323447E+00
          2   -1    0    0  502    0  0.00000000000E+00  0.00000000000E+00  0.78374687859E+02  0.78374687859E+02  0.00000000000E+00 0. -1.
          1   -1    0    0  501    0 -0.00000000000E+00 -0.00000000000E+00 -0.18015800585E+04  0.18015800585E+04  0.00000000000E+00 0. -1.
          2    1    1    2  501    0 -0.74986970418E+02 -0.15618451344E+01 -0.87571017530E+02  0.11530033913E+03  0.00000000000E+00 0. -1.
          1    1    1    2  502    0  0.10514681614E+03 -0.88439908381E+01 -0.16363492055E+04  0.16397477829E+04  0.00000000000E+00 0. -1.
         22    1    1    2    0    0 -0.62709478436E+02  0.65682238150E+01 -0.38438963454E+02  0.73845610305E+02  0.00000000000E+00 0. -1.
         22    1    1    2    0    0  0.32549632717E+02  0.38376121575E+01  0.39153815859E+02  0.51061014027E+02  0.00000000000E+00 0. -1.
</event>
<event>
 6    1  0.2809573E-005  0.1533972E+03  0.7818608E-02  0.1270590E+00
          2   -1    0    0  502    0  0.00000000000E+00  0.00000000000E+00  0.63460281973E+02  0.63460281973E+02  0.00000000000E+00 0.  1.
          1   -1    0    0  501    0 -0.00000000000E+00 -0.00000000000E+00 -0.16082223621E+04  0.16082223621E+04  0.00000000000E+00 0. -1.
          2    1    1    2  501    0 -0.42888895209E+02  0.18793172125E+02 -0.71000770525E+02  0.85051455402E+02  0.00000000000E+00 0.  1.
          1    1    1    2  502    0  0.78129461982E+01  0.58615466699E+02 -0.14304042150E+04  0.14316260103E+04  0.00000000000E+00 0. -1.
         22    1    1    2    0    0  0.17105663233E+01 -0.76842424789E+02  0.23423342414E+02  0.80351336358E+02  0.00000000000E+00 0.  1.
         22    1    1    2    0    0  0.33365382688E+02 -0.56621403481E+00 -0.66780437021E+02  0.74653842024E+02  0.00000000000E+00 0.  1.
</event>
<event>
 6    1  0.2809573E-005  0.2588140E+03  0.7818608E-02  0.1197677E+00
          2   -1    0    0  502    0  0.00000000000E+00  0.00000000000E+00  0.36069974578E+03  0.36069974578E+03  0.00000000000E+00 0. -1.
          1   -1    0    0  501    0 -0.00000000000E+00 -0.00000000000E+00 -0.35603972255E+03  0.35603972255E+03  0.00000000000E+00 0. -1.
          2    1    1    2  501    0 -0.13846721810E+03 -0.37049982745E+02  0.43613450245E+02  0.14982658226E+03  0.00000000000E+00 0. -1.
          1    1    1    2  502    0  0.84834559303E+02  0.90973577245E+02 -0.26858021026E+03  0.29598720167E+03  0.00000000000E+00 0. -1.
         22    1    1    2    0    0  0.83036542805E+02 -0.44001990414E+02  0.98343786544E+02  0.13602478801E+03  0.00000000000E+00 0. -1.
         22    1    1    2    0    0 -0.29403884011E+02 -0.99216040864E+01  0.13128299670E+03  0.13490089639E+03  0.00000000000E+00 0. -1.
</event>
<event>
 6    1  0.2809573E-005  0.1292224E+03  0.7818608E-02  0.1338727E+00
          2   -1    0    0  502    0  0.00000000000E+00  0.00000000000E+00  0.33537534161E+02  0.33537534161E+02  0.00000000000E+00 0. -1.
          1   -1    0    0  501    0 -0.00000000000E+00 -0.00000000000E+00 -0.86090380186E+03  0.86090380186E+03  0.00000000000E+00 0. -1.
          2    1    1    2  501    0 -0.47618427595E+02 -0.21560438311E+02 -0.37564919110E+03  0.37926861447E+03  0.00000000000E+00 0. -1.
          1    1    1    2  502    0  0.74540677054E+02 -0.19577497939E+02 -0.32052363945E+03  0.32965890616E+03  0.00000000000E+00 0. -1.
         22    1    1    2    0    0 -0.21699198313E+01 -0.15879609927E+02  0.17873211686E+02  0.24006712800E+02  0.00000000000E+00 0. -1.
         22    1    1    2    0    0 -0.24752329628E+02  0.57017546177E+02 -0.14906664883E+03  0.16150710259E+03  0.00000000000E+00 0. -1.
</event>
<event>
 6    1  0.2809573E-005  0.1038790E+03  0.7818608E-02  0.1315676E+00
          2   -1    0    0  502    0  0.00000000000E+00  0.00000000000E+00  0.54752844705E+02  0.54752844705E+02  0.00000000000E+00 0. -1.
          1   -1    0    0  501    0 -0.00000000000E+00 -0.00000000000E+00 -0.10569382021E+04  0.10569382021E+04  0.00000000000E+00 0. -1.
          2    1    1    2  501    0  0.49276737154E+02  0.27015272018E+02 -0.77594584229E+03  0.77797813074E+03  0.00000000000E+00 0. -1.
          1    1    1    2  502    0 -0.38099798411E+02 -0.33692080059E+02  0.21379309401E+02  0.55170877899E+02  0.00000000000E+00 0. -1.
         22    1    1    2    0    0 -0.80486517478E+01  0.45661124452E+02 -0.25318271827E+02  0.52827397905E+02  0.00000000000E+00 0.  1.
         22    1    1    2    0    0 -0.31282869942E+01 -0.38984316411E+02 -0.22230055269E+03  0.22571464026E+03  0.00000000000E+00 0. -1.
</event>
<event>
 6    1  0.2809573E-005  0.3951427E+03  0.7818608E-02  0.1142657E+00
          2   -1    0    0  502    0  0.00000000000E+00  0.00000000000E+00  0.13535536039E+03  0.13535536039E+03  0.00000000000E+00 0. -1.
          1   -1    0    0  501    0 -0.00000000000E+00 -0.00000000000E+00 -0.98786083240E+03  0.98786083240E+03  0.00000000000E+00 0. -1.
          2    1    1    2  501    0  0.32911075064E+02 -0.13075590639E+03 -0.31435864429E+03  0.34205497096E+03  0.00000000000E+00 0. -1.
          1    1    1    2  502    0  0.68852940918E+02  0.13766071135E+02 -0.57228249754E+03  0.57657392343E+03  0.00000000000E+00 0. -1.
         22    1    1    2    0    0  0.26406087992E+02  0.15672458016E+02  0.27263696930E+02  0.41063567717E+02  0.00000000000E+00 0.  1.
         22    1    1    2    0    0 -0.12817010397E+03  0.10131737724E+03  0.68719728934E+01  0.16352373068E+03  0.00000000000E+00 0. -1.
</event>
<event>
 6    1  0.2809573E-005  0.1072488E+03  0.7818608E-02  0.1307044E+00
          2   -1    0    0  502    0  0.00000000000E+00  0.00000000000E+00  0.44035024109E+02  0.44035024109E+02  0.00000000000E+00 0. -1.
          1   -1    0    0  501    0 -0.00000000000E+00 -0.00000000000E+00 -0.12506356964E+04  0.12506356964E+04  0.00000000000E+00 0. -1.
          2    1    1    2  501    0  0.11867321321E+02 -0.40180116432E+02 -0.11225102601E+03  0.11981472327E+03  0.00000000000E+00 0. -1.
          1    1    1    2  502    0 -0.35650839665E+02  0.45036335302E+02 -0.10362044259E+04  0.10377951947E+04  0.00000000000E+00 0. -1.
         22    1    1    2    0    0 -0.49059443718E+02  0.44305865292E+01 -0.13320912948E+02  0.51028480642E+02  0.00000000000E+00 0.  1.
         22    1    1    2    0    0  0.72842962062E+02 -0.92868053994E+01 -0.44824307441E+02  0.86032321915E+02  0.00000000000E+00 0. -1.
</event>
<event>
 6    1  0.2809573E-005  0.1423119E+03  0.7818608E-02  0.1332295E+00
          2   -1    0    0  502    0  0.00000000000E+00  0.00000000000E+00  0.41619686608E+02  0.41619686608E+02  0.00000000000E+00 0.  1.
          1   -1    0    0  501    0 -0.00000000000E+00 -0.00000000000E+00 -0.11614158004E+04  0.11614158004E+04  0.00000000000E+00 0.  1.
          2    1    1    2  501    0 -0.16465630852E+02  0.44448684490E+02 -0.50903818510E+02  0.69555742330E+02  0.00000000000E+00 0.  1.
          1    1    1    2  502    0 -0.53958005396E+01  0.44353122832E+02 -0.90246100469E+03  0.90356636677E+03  0.00000000000E+00 0.  1.
         22    1    1    2    0    0 -0.12061506400E+02 -0.58923502147E+01  0.19415044845E+02  0.23603891501E+02  0.00000000000E+00 0.  1.
         22    1    1    2    0    0  0.33922937791E+02 -0.82909457107E+02 -0.18584633542E+03  0.20630948639E+03  0.00000000000E+00 0.  1.
</event>
<event>
 6    1  0.2809573E-005  0.9669326E+02  0.7818608E-02  0.1292449E+00
          2   -1    0    0  502    0  0.00000000000E+00  0.00000000000E+00  0.20959983932E+03  0.20959983932E+03  0.00000000000E+00 0. -1.
          1   -1    0    0  501    0 -0.00000000000E+00 -0.00000000000E+00 -0.34265453669E+03  0.34265453669E+03  0.00000000000E+00 0. -1.
          2    1    1    2  501    0  0.62416938350E+02 -0.52654236056E+02 -0.28980445968E+03  0.30108963386E+03  0.00000000000E+00 0. -1.
          1    1    1    2  502    0 -0.44599691452E+02 -0.24312429326E+02  0.41891802103E+02  0.65841854324E+02  0.00000000000E+00 0. -1.
         22    1    1    2    0    0  0.15577653416E+02 -0.46462830438E+01 -0.19015587033E+02  0.25016869953E+02  0.00000000000E+00 0.  1.
         22    1    1    2    0    0 -0.33394900314E+02  0.81612948425E+02  0.13387354724E+03  0.16030601788E+03  0.00000000000E+00 0. -1.
</event>
<event>
 6    1  0.2809573E-005  0.1864011E+03  0.7818608E-02  0.1179437E+00
          2   -1    0    0  502    0  0.00000000000E+00  0.00000000000E+00  0.14255330761E+03  0.14255330761E+03  0.00000000000E+00 0.  1.
          1   -1    0    0  501    0 -0.00000000000E+00 -0.00000000000E+00 -0.38290803206E+03  0.38290803206E+03  0.00000000000E+00 0.  1.
          2    1    1    2  501    0  0.12472182300E+03  0.24964415416E+02 -0.22164271052E+03  0.25554695517E+03  0.00000000000E+00 0.  1.
          1    1    1    2  502    0  0.28477040354E+02 -0.14623201847E+02 -0.60433245883E+02  0.68388281654E+02  0.00000000000E+00 0.  1.
         22    1    1    2    0    0 -0.31971768619E+02  0.27476843325E+02 -0.33574424012E+02  0.53892604831E+02  0.00000000000E+00 0.  1.
         22    1    1    2    0    0 -0.12122709474E+03 -0.37818056895E+02  0.75295655972E+02  0.14763349801E+03  0.00000000000E+00 0.  1.
</event>
<event>
 6    1  0.2809573E-005  0.2790555E+03  0.7818608E-02  0.1148951E+00
          2   -1    0    0  502    0  0.00000000000E+00  0.00000000000E+00  0.64634732802E+02  0.64634732802E+02  0.00000000000E+00 0. -1.
          1   -1    0    0  501    0 -0.00000000000E+00 -0.00000000000E+00 -0.12390954970E+04  0.12390954970E+04  0.00000000000E+00 0. -1.
          2    1    1    2  501    0  0.18400395143E+03 -0.85003311676E+02 -0.67653418547E+03  0.70624466104E+03  0.00000000000E+00 0. -1.
          1    1    1    2  502    0 -0.17335049344E+03 -0.24072014912E+01 -0.26239385573E+03  0.31449439378E+03  0.00000000000E+00 0. -1.
         22    1    1    2    0    0 -0.65997624205E+02  0.35667293829E+02 -0.15625922875E+03  0.17333432672E+03  0.00000000000E+00 0. -1.
         22    1    1    2    0    0  0.55344166212E+02  0.51743219338E+02 -0.79273494265E+02  0.10965684828E+03  0.00000000000E+00 0.  1.
</event>
<event>
 6    1  0.2809573E-005  0.1358007E+03  0.7818608E-02  0.1296299E+00
          2   -1    0    0  502    0  0.00000000000E+00  0.00000000000E+00  0.28568584715E+02  0.28568584715E+02  0.00000000000E+00 0. -1.
          1   -1    0    0  501    0 -0.00000000000E+00 -0.00000000000E+00 -0.10738995024E+04  0.10738995024E+04  0.00000000000E+00 0. -1.
          2    1    1    2  501    0 -0.17070354807E+02  0.15795775596E+02 -0.52809283245E+02  0.57703760161E+02  0.00000000000E+00 0. -1.
          1    1    1    2  502    0 -0.85917301247E+02 -0.56329236590E+01 -0.74812841820E+03  0.75306682479E+03  0.00000000000E+00 0. -1.
         22    1    1    2    0    0  0.12883185458E+03  0.41935502703E+01 -0.20933208350E+03  0.24583562354E+03  0.00000000000E+00 0. -1.
         22    1    1    2    0    0 -0.25844198525E+02 -0.14356402207E+02 -0.35061132729E+02  0.45861878614E+02  0.00000000000E+00 0. -1.
</event>
<event>
 6    1  0.2809573E-005  0.1281358E+03  0.7818608E-02  0.1265280E+00
          2   -1    0    0  502    0  0.00000000000E+00  0.00000000000E+00  0.14167555816E+02  0.14167555816E+02  0.00000000000E+00 0.  1.
          1   -1    0    0  501    0 -0.00000000000E+00 -0.00000000000E+00 -0.20286060338E+04  0.20286060338E+04  0.00000000000E+00 0.  1.
          2    1    1    2  501    0 -0.41120099985E+02 -0.42675679471E+02 -0.53355813383E+03  0.53683922959E+03  0.00000000000E+00 0.  1.
          1    1    1    2  502    0  0.37716107020E+02 -0.96113560305E+01 -0.11233112844E+04  0.11239853756E+04  0.00000000000E+00 0.  1.
         22    1    1    2    0    0  0.52419813270E+02  0.51156695235E+01 -0.24353737778E+03  0.24916753656E+03  0.00000000000E+00 0. -1.
         22    1    1    2    0    0 -0.49015820306E+02  0.47171365978E+02 -0.11403168199E+03  0.13278144790E+03  0.00000000000E+00 0.  1.
</event>
<event>
 6    1  0.2809573E-005  0.2085343E+03  0.7818608E-02  0.1180075E+00
          2   -1    0    0  502    0  0.00000000000E+00  0.00000000000E+00  0.11151650445E+04  0.11151650445E+04  0.00000000000E+00 0.  1.
          1   -1    0    0  501    0 -0.00000000000E+00 -0.00000000000E+00 -0.59993663750E+02  0.59993663750E+02  0.00000000000E+00 0.  1.
          2    1    1    2  501    0  0.76899408978E+02  0.13659261199E+03  0.13268329902E+03  0.20536776425E+03  0.00000000000E+00 0.  1.
          1    1    1    2  502    0 -0.11272698573E+03 -0.97892893938E+02  0.34567737097E+03  0.37654114887E+03  0.00000000000E+00 0.  1.
         22    1    1    2    0    0  0.18578920362E+02 -0.85601804992E+02  0.40223877417E+03  0.41166597716E+03  0.00000000000E+00 0.  1.
         22    1    1    2    0    0  0.17248656392E+02  0.46902086938E+02  0.17457193659E+03  0.18158381798E+03  0.00000000000E+00 0. -1.
</event>
<event>
 6    1  0.2809573E-005  0.2272974E+03  0.7818608E-02  0.1144034E+00
          2   -1    0    0  502    0  0.00000000000E+00  0.00000000000E+00  0.15495088038E+03  0.15495088038E+03  0.00000000000E+00 0.  1.
          1   -1    0    0  501    0 -0.00000000000E+00 -0.00000000000E+00 -0.14746236417E+04  0.14746236417E+04  0.00000000000E+00 0.  1.
          2    1    1    2  501    0  0.23045931102E+03 -0.68689474492E+02 -0.81781519207E+03  0.85243851762E+03  0.00000000000E+00 0.  1.
          1    1    1    2  502    0 -0.20088276441E+03 -0.81122266770E+02 -0.53332950948E+03  0.57565186778E+03  0.00000000000E+00 0.  1.
         22    1    1    2    0    0 -0.44787692609E+02  0.14952324252E+03  0.61544502737E+02  0.16778219000E+03  0.00000000000E+00 0.  1.
         22    1    1    2    0    0  0.15211145999E+02  0.28849874047E+00 -0.30072562552E+02  0.33701946718E+02  0.00000000000E+00 0. -1.
</event>
<event>
 6    1  0.2809573E-005  0.9242596E+02  0.7818608E-02  0.1353952E+00
          2   -1    0    0  502    0  0.00000000000E+00  0.00000000000E+00  0.28698379064E+03  0.28698379064E+03  0.00000000000E+00 0.  1.
          1   -1    0    0  501    0 -0.00000000000E+00 -0.00000000000E+00 -0.20830015159E+03  0.20830015159E+03  0.00000000000E+00 0.  1.
          2    1    1    2  501    0  0.30462269596E+02 -0.49439504890E+02 -0.13623525826E+03  0.14809544256E+03  0.00000000000E+00 0.  1.
          1    1    1    2  502    0 -0.65402904896E+02  0.92759304418E+02  0.27126898977E+02  0.11669488923E+03  0.00000000000E+00 0.  1.
         22    1    1    2    0    0  0.13306309575E+02 -0.17439894789E+02 -0.13920264050E+02  0.25980407155E+02  0.00000000000E+00 0. -1.
         22    1    1    2    0    0  0.21634325725E+02 -0.25879904740E+02  0.20171226238E+03  0.20451320328E+03  0.00000000000E+00 0.  1.
</event>
<event>
 6    1  0.2809573E-005  0.1573336E+03  0.7818608E-02  0.1264904E+00
          2   -1    0    0  502    0  0.00000000000E+00  0.00000000000E+00  0.71489017325E+03  0.71489017325E+03  0.00000000000E+00 0.  1.
          1   -1    0    0  501    0 -0.00000000000E+00 -0.00000000000E+00 -0.91368030673E+02  0.91368030673E+02  0.00000000000E+00 0.  1.
          2    1    1    2  501    0  0.38198794599E+01 -0.44777045929E+02  0.11707561276E+03  0.12540444340E+03  0.00000000000E+00 0.  1.
          1    1    1    2  502    0 -0.71267869764E+02  0.12410082781E+03 -0.66171018447E+01  0.14326168629E+03  0.00000000000E+00 0.  1.
         22    1    1    2    0    0 -0.32389681244E+02 -0.11985090616E+02  0.18336192739E+03  0.18658598625E+03  0.00000000000E+00 0. -1.
         22    1    1    2    0    0  0.99837671549E+02 -0.67338691260E+02  0.32970170427E+03  0.35100608798E+03  0.00000000000E+00 0.  1.
</event>
<event>
 6    1  0.2809573E-005  0.1149376E+03  0.7818608E-02  0.1254371E+00
          2   -1    0    0  502    0  0.00000000000E+00  0.00000000000E+00  0.16610844899E+03  0.16610844899E+03  0.00000000000E+00 0. -1.
          1   -1    0    0  501    0 -0.00000000000E+00 -0.00000000000E+00 -0.32990304644E+03  0.32990304644E+03  0.00000000000E+00 0.  1.
          2    1    1    2  501    0  0.85860679161E+02 -0.29521038436E+02  0.55977125740E+02  0.10666295769E+03  0.00000000000E+00 0. -1.
          1    1    1    2  502    0  0.11656332494E+02  0.42243736994E+02 -0.22477298243E+03  0.22900501530E+03  0.00000000000E+00 0.  1.
         22    1    1    2    0    0  0.18082002692E+02 -0.21114207312E+01  0.35869201634E+02  0.40224576377E+02  0.00000000000E+00 0. -1.
         22    1    1    2    0    0 -0.11559901435E+03 -0.10611277826E+02 -0.30867942399E+02  0.12011894606E+03  0.00000000000E+00 0.  1.
</event>
<event>
 6    1  0.2809573E-005  0.8424789E+02  0.7818608E-02  0.1319110E+00
          2   -1    0    0  502    0  0.00000000000E+00  0.00000000000E+00  0.23546835406E+03  0.23546835406E+03  0.00000000000E+00 0.  1.
          1   -1    0    0  501    0 -0.00000000000E+00 -0.00000000000E+00 -0.95960819106E+02  0.95960819106E+02  0.00000000000E+00 0.  1.
          2    1    1    2  501    0 -0.32673012785E+02 -0.47531082075E+02  0.40273649285E+02  0.70346971181E+02  0.00000000000E+00 0.  1.
          1    1    1    2  502    0 -0.17386372885E+02  0.59947095091E+02 -0.35897971298E+02  0.72004197900E+02  0.00000000000E+00 0.  1.
         22    1    1    2    0    0 -0.30633158458E+02 -0.25835822041E+02  0.13089120376E+02  0.42156911294E+02  0.00000000000E+00 0.  1.
         22    1    1    2    0    0  0.80692544128E+02  0.13419809025E+02  0.12204273659E+03  0.14692109279E+03  0.00000000000E+00 0. -1.
</event>
<event>
 6    1  0.2809573E-005  0.7165895E+02  0.7818608E-02  0.1377029E+00
          2   -1    0    0  502    0  0.00000000000E+00  0.00000000000E+00  0.33383619616E+03  0.33383619616E+03  0.00000000000E+00 0.  1.
          1   -1    0    0  501    0 -0.00000000000E+00 -0.00000000000E+00 -0.25878940744E+03  0.25878940744E+03  0.00000000000E+00 0. -1.
          2    1    1    2  501    0 -0.99833252943E+01  0.41159092294E+02  0.47520733291E+02  0.63654990023E+02  0.00000000000E+00 0.  1.
          1    1    1    2  502    0  0.17574093003E+02 -0.64354544864E+02 -0.23202537256E+03  0.24142520519E+03  0.00000000000E+00 0. -1.
         22    1    1    2    0    0 -0.61914481770E+01 -0.48874777134E+02  0.13404253919E+03  0.14280924404E+03  0.00000000000E+00 0.  1.
         22    1    1    2    0    0 -0.13993195314E+01  0.72070229704E+02  0.12550888879E+03  0.14473616435E+03  0.00000000000E+00 0.  1.
</event>
<event>
 6    1  0.2809573E-005  0.1204388E+03  0.7818608E-02  0.1336314E+00
          2   -1    0    0  502    0  0.00000000000E+00  0.00000000000E+00  0.71146367136E+02  0.71146367136E+02  0.00000000000E+00 0. -1.
          1   -1    0    0  501    0 -0.00000000000E+00 -0.00000000000E+00 -0.40652869191E+03  0.40652869191E+03  0.00000000000E+00 0. -1.
          2    1    1    2  501    0 -0.15359055332E+02  0.20157687421E+02 -0.18028662675E+03  0.18205905835E+03  0.00000000000E+00 0. -1.
          1    1    1    2  502    0  0.11488399677E+02  0.59627854180E+02 -0.13125314506E+03  0.14461968196E+03  0.00000000000E+00 0. -1.
         22    1    1    2    0    0 -0.95706885814E+01 -0.18291537121E+02  0.49923874533E+02  0.54023806406E+02  0.00000000000E+00 0.  1.
         22    1    1    2    0    0  0.13441344236E+02 -0.61494004480E+02 -0.73766427485E+02  0.96972512321E+02  0.00000000000E+00 0. -1.
</event>
<event>
 6    1  0.2809573E-005  0.3202058E+03  0.7818608E-02  0.1212067E+00
          2   -1    0    0  502    0  0.00000000000E+00  0.00000000000E+00  0.51255553720E+03  0.51255553720E+03  0.00000000000E+00 0. -1.
          1   -1    0    0  501    0 -0.00000000000E+00 -0.00000000000E+00 -0.12486256762E+03  0.12486256762E+03  0.00000000000E+00 0. -1.
          2    1    1    2  501    0 -0.69249470011E+02  0.88760217710E+02  0.32620832246E+03  0.34508801050E+03  0.00000000000E+00 0. -1.
          1    1    1    2  502    0 -0.94968296587E+01  0.23438079195E+02 -0.63754133446E+02  0.68586608469E+02  0.00000000000E+00 0. -1.
         22    1    1    2    0    0  0.90763962388E+02 -0.11200076667E+03  0.57921161211E+02  0.15536128707E+03  0.00000000000E+00 0. -1.
         22    1    1    2    0    0 -0.12017662719E+02 -0.19753023408E+00  0.67317619358E+02  0.68382198791E+02  0.00000000000E+00 0. -1.
</event>
<event>
 6    1  0.2809573E-005  0.5195423E+03  0.7818608E-02  0.1086146E+00
          2   -1    0    0  502    0  0.00000000000E+00  0.00000000000E+00  0.59085826915E+03  0.59085826915E+03  0.00000000000E+00 0.  1.
          1   -1    0    0  501    0 -0.00000000000E+00 -0.00000000000E+00 -0.46354806495E+03  0.46354806495E+03  0.00000000000E+00 0. -1.
          2    1    1    2  501    0  0.24074037721E+03 -0.24158647885E+03  0.18431012742E+03  0.38767277317E+03  0.00000000000E+00 0.  1.
          1    1    1    2  502    0 -0.36313853087E+03  0.66454302789E+02 -0.15685438536E+03  0.40110979191E+03  0.00000000000E+00 0. -1.
         22    1    1    2    0    0  0.90863377414E+02  0.12839384276E+03  0.75655324773E+01  0.15747498054E+03  0.00000000000E+00 0.  1.
         22    1    1    2    0    0  0.31534776238E+02  0.46738333302E+02  0.92288929658E+02  0.10814878848E+03  0.00000000000E+00 0. -1.
</event>
<event>
 6    1  0.2809573E-005  0.1442471E+03  0.7818608E-02  0.1210751E+00
          2   -1    0    0  502    0  0.00000000000E+00  0.00000000000E+00  0.49289020100E+03  0.49289020100E+03  0.00000000000E+00 0.  1.
          1   -1    0    0  501    0 -0.00000000000E+00 -0.00000000000E+00 -0.79107757798E+02  0.79107757798E+02  0.00000000000E+00 0. -1.
          2    1    1    2  501    0 -0.47859158923E+02  0.12142013367E+03  0.28489877316E+03  0.31336984364E+03  0.00000000000E+00 0.  1.
          1    1    1    2  502    0 -0.85976869475E+01 -0.75628040549E+02  0.68715844773E+02  0.10254456622E+03  0.00000000000E+00 0. -1.
         22    1    1    2    0    0  0.44106345717E+02 -0.76779456443E+02  0.14574958584E+01  0.88558336470E+02  0.00000000000E+00 0.  1.
         22    1    1    2    0    0  0.12350500153E+02  0.30987363321E+02  0.58710329408E+02  0.67525212468E+02  0.00000000000E+00 0. -1.
</event>
<event>
 6    1  0.2809573E-005  0.1448061E+03  0.7818608E-02  0.1296461E+00
          2   -1    0    0  502    0  0.00000000000E+00  0.00000000000E+00  0.57113443493E+02  0.57113443493E+02  0.00000000000E+00 0. -1.
          1   -1    0    0  501    0 -0.00000000000E+00 -0.00000000000E+00 -0.64683012874E+03  0.64683012874E+03  0.00000000000E+00 0.  1.
          2    1    1    2  501    0 -0.54841475997E+02 -0.21594631479E+02 -0.38988345143E+02  0.70668286064E+02  0.00000000000E+00 0. -1.
          1    1    1    2  502    0 -0.96599420843E+01  0.21556454592E+02 -0.47075351902E+03  0.47134580818E+03  0.00000000000E+00 0.  1.
         22    1    1    2    0    0  0.87762952759E+02 -0.51430956598E+01 -0.98292192375E+02  0.13187168912E+03  0.00000000000E+00 0. -1.
         22    1    1    2    0    0 -0.23261534677E+02  0.51812725462E+01  0.18317371292E+02  0.30057788870E+02  0.00000000000E+00 0. -1.
</event>
<event>
 6    1  0.2809573E-005  0.1736273E+03  0.7818608E-02  0.1270848E+00
          2   -1    0    0  502    0  0.00000000000E+00  0.00000000000E+00  0.10710436238E+03  0.10710436238E+03  0.00000000000E+00 0.  1.
          1   -1    0    0  501    0 -0.00000000000E+00 -0.00000000000E+00 -0.35529075461E+03  0.35529075461E+03  0.00000000000E+00 0.  1.
          2    1    1    2  501    0 -0.13832095200E+02  0.16670822018E+02 -0.47596810134E+02  0.52294354373E+02  0.00000000000E+00 0.  1.
          1    1    1    2  502    0  0.12588438586E+03  0.36945368887E+02 -0.19017996572E+03  0.23104168076E+03  0.00000000000E+00 0.  1.
         22    1    1    2    0    0 -0.13007237330E+03 -0.67743329247E+02 -0.29083871138E+02  0.14951204805E+03  0.00000000000E+00 0.  1.
         22    1    1    2    0    0  0.18020082635E+02  0.14127138341E+02  0.18674254761E+02  0.29547033806E+02  0.00000000000E+00 0.  1.
</event>
<event>
 6    1  0.2809573E-005  0.1919864E+03  0.7818608E-02  0.1234279E+00
          2   -1    0    0  502    0  0.00000000000E+00  0.00000000000E+00  0.59602820046E+02  0.59602820046E+02  0.00000000000E+00 0. -1.
          1   -1    0    0  501    0 -0.00000000000E+00 -0.00000000000E+00 -0.69479426962E+03  0.69479426962E+03  0.00000000000E+00 0. -1.
          2    1    1    2  501    0 -0.81049167857E+02  0.83177634714E+01 -0.13354129229E+03  0.15643346684E+03  0.00000000000E+00 0. -1.
          1    1    1    2  502    0  0.11865081782E+03 -0.84410598617E+02 -0.37551929742E+03  0.40276284394E+03  0.00000000000E+00 0. -1.
         22    1    1    2    0    0 -0.28928990781E+02  0.11006756893E+03 -0.93224313534E+02  0.14711399958E+03  0.00000000000E+00 0. -1.
         22    1    1    2    0    0 -0.86726591766E+01 -0.33974733784E+02 -0.32906546329E+02  0.48086779308E+02  0.00000000000E+00 0.  1.
</event>
<event>
 6    1  0.2809573E-005  0.1663383E+03  0.7818608E-02  0.1238188E+00
          2   -1    0    0  502    0  0.00000000000E+00  0.00000000000E+00  0.10787941731E+03  0.10787941731E+03  0.00000000000E+00 0.  1.
          1   -1    0    0  501    0 -0.00000000000E+00 -0.00000000000E+00 -0.71795189922E+03  0.71795189922E+03  0.00000000000E+00 0.  1.
          2    1    1    2  501    0 -0.36130582444E+02  0.21325375228E+02 -0.21752270555E+03  0.22153175404E+03  0.00000000000E+00 0.  1.
          1    1    1    2  502    0  0.16349601644E+03 -0.11861934747E+03 -0.52916266536E+02  0.20881002909E+03  0.00000000000E+00 0.  1.
         22    1    1    2    0    0 -0.98105537749E+02  0.57028718407E+02 -0.32403271582E+03  0.34332808243E+03  0.00000000000E+00 0.  1.
         22    1    1    2    0    0 -0.29259896245E+02  0.40265253830E+02 -0.15600794006E+02  0.52161450975E+02  0.00000000000E+00 0.  1.
</event>
<event>
 6    1  0.2809573E-005  0.2206811E+03  0.7818608E-02  0.1207362E+00
          2   -1    0    0  502    0  0.00000000000E+00  0.00000000000E+00  0.31052882400E+03  0.31052882400E+03  0.00000000000E+00 0.  1.
          1   -1    0    0  501    0 -0.00000000000E+00 -0.00000000000E+00 -0.97728268851E+02  0.97728268851E+02  0.00000000000E+00 0. -1.
          2    1    1    2  501    0 -0.22481558915E+01 -0.84874872736E+02 -0.28218197414E+01  0.84951520843E+02  0.00000000000E+00 0.  1.
          1    1    1    2  502    0 -0.12015308695E+02  0.20649238650E+02 -0.29646982743E+02  0.38074956147E+02  0.00000000000E+00 0. -1.
         22    1    1    2    0    0 -0.87564331843E+01  0.99515052378E+02  0.14129786016E+03  0.17304625410E+03  0.00000000000E+00 0.  1.
         22    1    1    2    0    0  0.23019897771E+02 -0.35289418292E+02  0.10397149748E+03  0.11218436176E+03  0.00000000000E+00 0. -1.
</event>
<event>
 6    1  0.2809573E-005  0.1252626E+03  0.7818608E-02  0.1281053E+00
          2   -1    0    0  502    0  0.00000000000E+00  0.00000000000E+00  0.33498159226E+03  0.33498159226E+03  0.00000000000E+00 0. -1.
          1   -1    0    0  501    0 -0.00000000000E+00 -0.00000000000E+00 -0.64736918924E+03  0.64736918924E+03  0.00000000000E+00 0.  1.
          2    1    1    2  501    0  0.47764845709E+02 -0.53863006022E+01  0.61135389278E+02  0.77769071886E+02  0.00000000000E+00 0. -1.
          1    1    1    2  502    0 -0.18291215106E+02  0.11628720890E+02 -0.62376999142E+03  0.62414645549E+03  0.00000000000E+00 0.  1.
         22    1    1    2    0    0  0.25660246772E+02 -0.49675089963E+02  0.99019242167E+02  0.11371399714E+03  0.00000000000E+00 0. -1.
         22    1    1    2    0    0 -0.55133877375E+02  0.43432669675E+02  0.15122776300E+03  0.16672125699E+03  0.00000000000E+00 0. -1.
</event>
<event>
 6    1  0.2809573E-005  0.7298139E+02  0.7818608E-02  0.1411104E+00
          2   -1    0    0  502    0  0.00000000000E+00  0.00000000000E+00  0.26897398393E+03  0.26897398393E+03  0.00000000000E+00 0.  1.
          1   -1    0    0  501    0 -0.00000000000E+00 -0.00000000000E+00 -0.34005870844E+03  0.34005870844E+03  0.00000000000E+00 0. -1.
          2    1    1    2  501    0 -0.22954314977E+02  0.90483820223E+01  0.65044097495E+02  0.69566575395E+02  0.00000000000E+00 0.  1.
          1    1    1    2  502    0  0.27950073494E+02  0.16256814315E+02 -0.31747863540E+03  0.31912094033E+03  0.00000000000E+00 0. -1.
         22    1    1    2    0    0 -0.38028131815E+02  0.88048092410E+01  0.70147660433E+01  0.39659430376E+02  0.00000000000E+00 0.  1.
         22    1    1    2    0    0  0.33032373298E+02 -0.34110005578E+02  0.17433504736E+03  0.18068574626E+03  0.00000000000E+00 0.  1.
</event>
<event>
 6    1  0.2809573E-005  0.6888671E+02  0.7818608E-02  0.1373474E+00
          2   -1    0    0  502    0  0.00000000000E+00  0.00000000000E+00  0.22507400386E+03  0.22507400386E+03  0.00000000000E+00 0.  1.
          1   -1    0    0  501    0 -0.00000000000E+00 -0.00000000000E+00 -0.83927023334E+03  0.83927023334E+03  0.00000000000E+00 0.  1.
          2    1    1    2  501    0 -0.15738300885E+02  0.37427687990E+02  0.11086839549E+02  0.42088525208E+02  0.00000000000E+00 0.  1.
          1    1    1    2  502    0  0.19400911319E+02 -0.37986998775E+02 -0.80456248381E+03  0.80569237168E+03  0.00000000000E+00 0.  1.
         22    1    1    2    0    0 -0.17527883657E+02 -0.51294603779E+02  0.13977334824E+03  0.14991648328E+03  0.00000000000E+00 0.  1.
         22    1    1    2    0    0  0.13865273222E+02  0.51853914564E+02  0.39506066541E+02  0.66646857020E+02  0.00000000000E+00 0.  1.
</event>
<event>
 6    1  0.2809573E-005  0.5736435E+03  0.7818608E-02  0.1131701E+00
          2   -1    0    0  502    0  0.00000000000E+00  0.00000000000E+00  0.11274136258E+04  0.11274136258E+04  0.00000000000E+00 0. -1.
          1   -1    0    0  501    0 -0.00000000000E+00 -0.00000000000E+00 -0.67003357285E+03  0.67003357285E+03  0.00000000000E+00 0. -1.
          2    1    1    2  501    0 -0.15258567391E+03  0.26332594753E+03  0.56393324369E+03  0.64081482962E+03  0.00000000000E+00 0. -1.
          1    1    1    2  502    0  0.13316623796E+03 -0.51921781023E+03 -0.45760417270E+03  0.70478504543E+03  0.00000000000E+00 0. -1.
         22    1    1    2    0    0 -0.27053849581E+01 -0.12806928909E+02  0.29163085082E+02  0.31965951689E+02  0.00000000000E+00 0.  1.
         22    1    1    2    0    0  0.22124820908E+02  0.26869879161E+03  0.32188789689E+03  0.41988137191E+03  0.00000000000E+00 0. -1.
</event>
<event>
 6    1  0.2809573E-005  0.1525626E+03  0.7818608E-02  0.1258260E+00
          2   -1    0    0  502    0  0.00000000000E+00  0.00000000000E+00  0.60166065727E+03  0.60166065727E+03  0.00000000000E+00 0.  1.
          1   -1    0    0  501    0 -0.00000000000E+00 -0.00000000000E+00 -0.83704833514E+02  0.83704833514E+02  0.00000000000E+00 0.  1.
          2    1    1    2  501    0 -0.41222704375E+02  0.36927670835E+02  0.58568435102E+02  0.80580554848E+02  0.00000000000E+00 0.  1.
          1    1    1    2  502    0  0.21786372660E+01 -0.60626271735E+02 -0.49501715477E+02  0.78298857719E+02  0.00000000000E+00 0.  1.
         22    1    1    2    0    0  0.57312680725E+02  0.62788856995E+02  0.40790870232E+03  0.41667336532E+03  0.00000000000E+00 0.  1.
         22    1    1    2    0    0 -0.18268613616E+02 -0.39090256095E+02  0.10098040181E+03  0.10981271290E+03  0.00000000000E+00 0.  1.
</event>
<event>
 6    1  0.2809573E-005  0.4498086E+02  0.7818608E-02  0.1494595E+00
          2   -1    0    0  502    0  0.00000000000E+00  0.00000000000E+00  0.18720517215E+03  0.18720517215E+03  0.00000000000E+00 0.  1.
          1   -1    0    0  501    0 -0.00000000000E+00 -0.00000000000E+00 -0.10925988650E+04  0.10925988650E+04  0.00000000000E+00 0.  1.
          2    1    1    2  501    0 -0.36257895237E+02  0.13261580435E+02  0.90624974258E+01  0.39656441372E+02  0.00000000000E+00 0.  1.
          1    1    1    2  502    0  0.38897419022E+02 -0.24023348258E+01 -0.10544287531E+04  0.10551486984E+04  0.00000000000E+00 0.  1.
         22    1    1    2    0    0 -0.35869168389E+02 -0.41240905733E+01 -0.46966698773E+01  0.36409670033E+02  0.00000000000E+00 0.  1.
         22    1    1    2    0    0  0.33229644604E+02 -0.67351550362E+01  0.14466923268E+03  0.14858922733E+03  0.00000000000E+00 0.  1.
</event>
<event>
 6    1  0.4952528E-005  0.6149953E+02  0.7818608E-02  0.1393734E+00
          2   -1    0    0  502    0  0.00000000000E+00  0.00000000000E+00  0.15433420799E+03  0.15433420799E+03  0.00000000000E+00 0.  1.
          1   -1    0    0  501    0 -0.00000000000E+00 -0.00000000000E+00 -0.89833309641E+03  0.89833309641E+03  0.00000000000E+00 0.  1.
          2    1    1    2  501    0 -0.10118579145E+03 -0.32056647322E+01 -0.25112649199E+03  0.27076439141E+03  0.00000000000E+00 0.  1.
          1    1    1    2  502    0  0.56201602183E+02 -0.24483566120E+01 -0.60380323282E+03  0.60641813834E+03  0.00000000000E+00 0.  1.
         22    1    1    2    0    0  0.58287783368E+02  0.21169819577E+01  0.13538933865E+03  0.14741852096E+03  0.00000000000E+00 0.  1.
         22    1    1    2    0    0 -0.13303594097E+02  0.35370393865E+01 -0.24458502259E+02  0.28066253691E+02  0.00000000000E+00 0.  1.
</event>
<event>
 6    1  0.2809573E-005  0.1008996E+03  0.7818608E-02  0.1280531E+00
          2   -1    0    0  502    0  0.00000000000E+00  0.00000000000E+00  0.52500639021E+03  0.52500639021E+03  0.00000000000E+00 0.  1.
          1   -1    0    0  501    0 -0.00000000000E+00 -0.00000000000E+00 -0.18005189181E+03  0.18005189181E+03  0.00000000000E+00 0.  1.
          2    1    1    2  501    0  0.51581090780E+02 -0.67251263917E+00  0.54718243263E+02  0.75200713728E+02  0.00000000000E+00 0.  1.
          1    1    1    2  502    0  0.10551375925E+02 -0.18656901091E+02 -0.15818546020E+03  0.15963098481E+03  0.00000000000E+00 0.  1.
         22    1    1    2    0    0 -0.97996099420E+02  0.27367959421E+02  0.36796164707E+03  0.38176958289E+03  0.00000000000E+00 0.  1.
         22    1    1    2    0    0  0.35863632715E+02 -0.80385456914E+01  0.80460068270E+02  0.88457000595E+02  0.00000000000E+00 0.  1.
</event>
<event>
 6    1  0.2809573E-005  0.8867668E+02  0.7818608E-02  0.1318632E+00
          2   -1    0    0  502    0  0.00000000000E+00  0.00000000000E+00  0.31743653664E+03  0.31743653664E+03  0.00000000000E+00 0. -1.
          1   -1    0    0  501    0 -0.00000000000E+00 -0.00000000000E+00 -0.17854726295E+03  0.17854726295E+03  0.00000000000E+00 0. -1.
          2    1    1    2  501    0  0.22711579597E+02 -0.10898506161E+02  0.35108530515E+02  0.43211135130E+02  0.00000000000E+00 0. -1.
          1    1    1    2  502    0  0.48088056596E+02  0.97669128191E+01 -0.15231239153E+03  0.16002161850E+03  0.00000000000E+00 0. -1.
         22    1    1    2    0    0 -0.19128216515E+02 -0.58990173053E+02  0.12535319495E+03  0.13985404058E+03  0.00000000000E+00 0.  1.
         22    1    1    2    0    0 -0.51671419678E+02  0.60121766395E+02  0.13073993976E+03  0.15289700538E+03  0.00000000000E+00 0. -1.
</event>
<event>
 6    1  0.2809573E-005  0.1728284E+03  0.7818608E-02  0.1240756E+00
          2   -1    0    0  502    0  0.00000000000E+00  0.00000000000E+00  0.11155775212E+03  0.11155775212E+03  0.00000000000E+00 0. -1.
          1   -1    0    0  501    0 -0.00000000000E+00 -0.00000000000E+00 -0.49129886439E+03  0.49129886439E+03  0.00000000000E+00 0. -1.
          2    1    1    2  501    0 -0.71697238122E+02  0.26395134583E+02 -0.43912461945E+02  0.88122082351E+02  0.00000000000E+00 0. -1.
          1    1    1    2  502    0  0.17732614046E+03 -0.48402341431E+02 -0.29381702878E+03  0.34657725422E+03  0.00000000000E+00 0. -1.
         22    1    1    2    0    0 -0.39420411022E+02 -0.14830582735E+02  0.38882839290E+02  0.57321812434E+02  0.00000000000E+00 0. -1.
         22    1    1    2    0    0 -0.66208491314E+02  0.36837789584E+02 -0.80894460839E+02  0.11083546751E+03  0.00000000000E+00 0.  1.
</event>
<event>
 6    1  0.2809573E-005  0.7166943E+02  0.7818608E-02  0.1370606E+00
          2   -1    0    0  502    0  0.00000000000E+00  0.00000000000E+00  0.42835930216E+03  0.42835930216E+03  0.00000000000E+00 0. -1.
          1   -1    0    0  501    0 -0.00000000000E+00 -0.00000000000E+00 -0.44462255612E+02  0.44462255612E+02  0.00000000000E+00 0. -1.
          2    1    1    2  501    0 -0.29290326430E+02 -0.80059329019E+01  0.10053728020E+02  0.31985866115E+02  0.00000000000E+00 0. -1.
          1    1    1    2  502    0 -0.38530935331E+02  0.31281527133E+02  0.12229033149E+02  0.51114735341E+02  0.00000000000E+00 0. -1.
         22    1    1    2    0    0  0.57215184301E+02  0.83246219343E+01  0.34950795129E+03  0.35425793522E+03  0.00000000000E+00 0. -1.
         22    1    1    2    0    0  0.10606077459E+02 -0.31600216165E+02  0.12106334087E+02  0.35463021103E+02  0.00000000000E+00 0. -1.
</event>
<event>
 6    1  0.2809573E-005  0.1816890E+03  0.7818608E-02  0.1181739E+00
          2   -1    0    0  502    0  0.00000000000E+00  0.00000000000E+00  0.75485300170E+03  0.75485300170E+03  0.00000000000E+00 0. -1.
          1   -1    0    0  501    0 -0.00000000000E+00 -0.00000000000E+00 -0.61794720729E+03  0.61794720729E+03  0.00000000000E+00 0. -1.
          2    1    1    2  501    0 -0.13685753380E+03  0.10778120542E+03 -0.47488912618E+01  0.17426796828E+03  0.00000000000E+00 0. -1.
          1    1    1    2  502    0  0.45067593409E+02 -0.72777301402E+02 -0.51585455529E+03  0.52290873562E+03  0.00000000000E+00 0. -1.
         22    1    1    2    0    0  0.10890222151E+03 -0.56814386763E+02  0.58987801573E+03  0.60253102977E+03  0.00000000000E+00 0. -1.
         22    1    1    2    0    0 -0.17112281122E+02  0.21810482745E+02  0.67631225230E+02  0.73092475323E+02  0.00000000000E+00 0. -1.
</event>
<event>
 6    1  0.2809573E-005  0.2245558E+03  0.7818608E-02  0.1237288E+00
          2   -1    0    0  502    0  0.00000000000E+00  0.00000000000E+00  0.35678444630E+03  0.35678444630E+03  0.00000000000E+00 0. -1.
          1   -1    0    0  501    0 -0.00000000000E+00 -0.00000000000E+00 -0.80135474948E+03  0.80135474948E+03  0.00000000000E+00 0. -1.
          2    1    1    2  501    0 -0.16327456341E+02 -0.42461705489E+02  0.24370823722E+02  0.51609294826E+02  0.00000000000E+00 0. -1.
          1    1    1    2  502    0  0.10415846472E+03  0.19376482732E+03 -0.73388501460E+03  0.76614685847E+03  0.00000000000E+00 0. -1.
         22    1    1    2    0    0 -0.78674523572E+02 -0.16976179584E+03  0.20773039146E+03  0.27957228675E+03  0.00000000000E+00 0. -1.
         22    1    1    2    0    0 -0.91564848066E+01  0.18458674000E+02  0.57213496246E+02  0.60810755731E+02  0.00000000000E+00 0.  1.
</event>
<event>
 6    1  0.2809573E-005  0.1949101E+03  0.7818608E-02  0.1285169E+00
          2   -1    0    0  502    0  0.00000000000E+00  0.00000000000E+00  0.13596353931E+03  0.13596353931E+03  0.00000000000E+00 0. -1.
          1   -1    0    0  501    0 -0.00000000000E+00 -0.00000000000E+00 -0.80081210001E+03  0.80081210001E+03  0.00000000000E+00 0. -1.
          2    1    1    2  501    0 -0.67539446206E+02 -0.58010436788E+02 -0.23743640763E+03  0.25358003714E+03  0.00000000000E+00 0. -1.
          1    1    1    2  502    0  0.91805248064E+02 -0.36220198261E+02  0.95454360512E+02  0.13730127922E+03  0.00000000000E+00 0. -1.
         22    1    1    2    0    0 -0.34945578791E+02  0.88100930716E+02 -0.52492220926E+03  0.53341006106E+03  0.00000000000E+00 0. -1.
         22    1    1    2    0    0  0.10679776933E+02  0.61297043325E+01  0.20556956731E+01  0.12484261902E+02  0.00000000000E+00 0.  1.
</event>
<event>
 6    1  0.2809573E-005  0.3600878E+03  0.7818608E-02  0.1134903E+00
          2   -1    0    0  502    0  0.00000000000E+00  0.00000000000E+00  0.23678247972E+03  0.23678247972E+03  0.00000000000E+00 0. -1.
          1   -1    0    0  501    0 -0.00000000000E+00 -0.00000000000E+00 -0.27365287917E+03  0.27365287917E+03  0.00000000000E+00 0. -1.
          2    1    1    2  501    0 -0.37704519425E+02 -0.46992115765E+02 -0.16294256790E+03  0.17372440865E+03  0.00000000000E+00 0. -1.
          1    1    1    2  502    0  0.46237591891E+01  0.25670289400E+02 -0.84671708327E+02  0.88598200308E+02  0.00000000000E+00 0. -1.
         22    1    1    2    0    0 -0.33487286925E+02  0.34273598924E+02  0.33857951510E+02  0.58672300528E+02  0.00000000000E+00 0.  1.
         22    1    1    2    0    0  0.66568047161E+02 -0.12951772559E+02  0.17688592526E+03  0.18944044940E+03  0.00000000000E+00 0. -1.
</event>
<event>
 6    1  0.2809573E-005  0.1093295E+03  0.7818608E-02  0.1394205E+00
          2   -1    0    0  502    0  0.00000000000E+00  0.00000000000E+00  0.91393005212E+02  0.91393005212E+02  0.00000000000E+00 0. -1.
          1   -1    0    0  501    0 -0.00000000000E+00 -0.00000000000E+00 -0.48866789617E+03  0.48866789617E+03  0.00000000000E+00 0. -1.
          2    1    1    2  501    0  0.26450685913E+02 -0.28395665129E+02 -0.12363293368E+02  0.40728412763E+02  0.00000000000E+00 0. -1.
          1    1    1    2  502    0 -0.83469424373E+02 -0.17801943207E+01 -0.39278721965E+03  0.40156209211E+03  0.00000000000E+00 0. -1.
         22    1    1    2    0    0 -0.26594596739E+01 -0.10164857071E+02  0.52163449841E+02  0.53211112978E+02  0.00000000000E+00 0. -1.
         22    1    1    2    0    0  0.59678198134E+02  0.40340716520E+02 -0.44287827777E+02  0.84559283530E+02  0.00000000000E+00 0. -1.
</event>
<event>
 6    1  0.2809573E-005  0.1099817E+03  0.7818608E-02  0.1267871E+00
          2   -1    0    0  502    0  0.00000000000E+00  0.00000000000E+00  0.17594054815E+03  0.17594054815E+03  0.00000000000E+00 0.  1.
          1   -1    0    0  501    0 -0.00000000000E+00 -0.00000000000E+00 -0.10459373507E+04  0.10459373507E+04  0.00000000000E+00 0.  1.
          2    1    1    2  501    0  0.21842096705E+02 -0.65241639387E+02  0.25810027115E+02  0.73482693187E+02  0.00000000000E+00 0.  1.
          1    1    1    2  502    0  0.59172620820E+02  0.49085690432E+02 -0.97532563686E+03  0.97835111385E+03  0.00000000000E+00 0.  1.
         22    1    1    2    0    0 -0.22194766987E+02 -0.50463652348E+02  0.54955611688E+02  0.77841551539E+02  0.00000000000E+00 0.  1.
         22    1    1    2    0    0 -0.58819950539E+02  0.66619601303E+02  0.24563195510E+02  0.92202540273E+02  0.00000000000E+00 0.  1.
</event>
<event>
 6    1  0.2809573E-005  0.1684805E+03  0.7818608E-02  0.1254176E+00
          2   -1    0    0  502    0  0.00000000000E+00  0.00000000000E+00  0.58163865590E+03  0.58163865590E+03  0.00000000000E+00 0.  1.
          1   -1    0    0  501    0 -0.00000000000E+00 -0.00000000000E+00 -0.14478806880E+03  0.14478806880E+03  0.00000000000E+00 0.  1.
          2    1    1    2  501    0 -0.15859390890E+02  0.39962898015E+02  0.36828855714E+02  0.56611996170E+02  0.00000000000E+00 0.  1.
          1    1    1    2  502    0  0.15646248970E+02  0.38412046231E+02 -0.12134178115E+03  0.12823462190E+03  0.00000000000E+00 0.  1.
         22    1    1    2    0    0 -0.23784763409E+02 -0.10348324093E+03  0.44798721265E+03  0.46039878239E+03  0.00000000000E+00 0.  1.
         22    1    1    2    0    0  0.23997905329E+02  0.25108296681E+02  0.73376299873E+02  0.81181324241E+02  0.00000000000E+00 0. -1.
</event>
<event>
 6    1  0.2809573E-005  0.2224425E+03  0.7818608E-02  0.1199534E+00
          2   -1    0    0  502    0  0.00000000000E+00  0.00000000000E+00  0.81840452313E+02  0.81840452313E+02  0.00000000000E+00 0.  1.
          1   -1    0    0  501    0 -0.00000000000E+00 -0.00000000000E+00 -0.21900049140E+04  0.21900049140E+04  0.00000000000E+00 0.  1.
          2    1    1    2  501    0  0.12590609178E+03  0.38343085724E+02 -0.59733015154E+02  0.14453570241E+03  0.00000000000E+00 0.  1.
          1    1    1    2  502    0 -0.20591825465E+03 -0.47304934604E+02 -0.19092375384E+04  0.19208925172E+04  0.00000000000E+00 0.  1.
         22    1    1    2    0    0 -0.78136254635E+01 -0.46287860506E+02 -0.29590682574E+02  0.55490785435E+02  0.00000000000E+00 0.  1.
         22    1    1    2    0    0  0.87825788331E+02  0.55249709386E+02 -0.10960322552E+03  0.15092636127E+03  0.00000000000E+00 0.  1.
</event>
<event>
 6    1  0.2809573E-005  0.2562844E+03  0.7818608E-02  0.1227375E+00
          2   -1    0    0  502    0  0.00000000000E+00  0.00000000000E+00  0.88134056804E+02  0.88134056804E+02  0.00000000000E+00 0.  1.
          1   -1    0    0  501    0 -0.00000000000E+00 -0.00000000000E+00 -0.76275797622E+03  0.76275797622E+03  0.00000000000E+00 0. -1.
          2    1    1    2  501    0 -0.55530360455E+02 -0.11378775310E+03 -0.18182344236E+03  0.22156497439E+03  0.00000000000E+00 0.  1.
          1    1    1    2  502    0 -0.68249469201E+02  0.14579216118E+03 -0.39763042071E+03  0.42897936522E+03  0.00000000000E+00 0. -1.
         22    1    1    2    0    0  0.12328079557E+03 -0.48992519186E+02 -0.11404984907E+03  0.17494510443E+03  0.00000000000E+00 0.  1.
         22    1    1    2    0    0  0.49903408957E+00  0.16988111105E+02  0.18879792720E+02  0.25402588984E+02  0.00000000000E+00 0.  1.
</event>
<event>
 6    1  0.2809573E-005  0.9273572E+02  0.7818608E-02  0.1319772E+00
          2   -1    0    0  502    0  0.00000000000E+00  0.00000000000E+00  0.28994069449E+03  0.28994069449E+03  0.00000000000E+00 0.  1.
          1   -1    0    0  501    0 -0.00000000000E+00 -0.00000000000E+00 -0.16169310888E+03  0.16169310888E+03  0.00000000000E+00 0.  1.
          2    1    1    2  501    0 -0.85017895018E+01 -0.10144983229E+03  0.19628406841E+02  0.10368038990E+03  0.00000000000E+00 0.  1.
          1    1    1    2  502    0  0.26244389132E+02  0.75993270334E+02 -0.85413727255E+02  0.11729982907E+03  0.00000000000E+00 0.  1.
         22    1    1    2    0    0 -0.69506979384E+00  0.60548527282E+02  0.17879385548E+03  0.18876930375E+03  0.00000000000E+00 0.  1.
         22    1    1    2    0    0 -0.17047529836E+02 -0.35091965329E+02  0.15239050533E+02  0.41884280647E+02  0.00000000000E+00 0.  1.
</event>
<event>
 6    1  0.2809573E-005  0.2144985E+03  0.7818608E-02  0.1254139E+00
          2   -1    0    0  502    0  0.00000000000E+00  0.00000000000E+00  0.12605469966E+03  0.12605469966E+03  0.00000000000E+00 0.  1.
          1   -1    0    0  501    0 -0.00000000000E+00 -0.00000000000E+00 -0.57733382800E+03  0.57733382800E+03  0.00000000000E+00 0.  1.
          2    1    1    2  501    0 -0.98184986996E+02  0.90400554330E+02 -0.14414123658E+03  0.19644146196E+03  0.00000000000E+00 0.  1.
          1    1    1    2  502    0  0.14839266755E+03 -0.57214973486E+02 -0.33222531913E+03  0.36833082907E+03  0.00000000000E+00 0.  1.
         22    1    1    2    0    0 -0.57930477898E+02 -0.48153994726E+02 -0.29944614637E+02  0.81064341256E+02  0.00000000000E+00 0.  1.
         22    1    1    2    0    0  0.77227973438E+01  0.14968413882E+02  0.55032042008E+02  0.57551895369E+02  0.00000000000E+00 0.  1.
</event>
<event>
 6    1  0.4400672E-005  0.7812066E+02  0.7818608E-02  0.1383147E+00
          2   -1    0    0  502    0  0.00000000000E+00  0.00000000000E+00  0.65713278304E+02  0.65713278304E+02  0.00000000000E+00 0. -1.
          1   -1    0    0  501    0 -0.00000000000E+00 -0.00000000000E+00 -0.11996919801E+04  0.11996919801E+04  0.00000000000E+00 0. -1.
          2    1    1    2  501    0  0.45954095580E+02 -0.39091771353E+01 -0.10259608359E+04  0.10269969315E+04  0.00000000000E+00 0. -1.
          1    1    1    2  502    0 -0.24550592423E+02  0.36608192500E+02 -0.10100572452E+03  0.11020457219E+03  0.00000000000E+00 0. -1.
         22    1    1    2    0    0 -0.14809242063E+02  0.10762336987E+01 -0.61770326495E+02  0.63529876158E+02  0.00000000000E+00 0. -1.
         22    1    1    2    0    0 -0.65942610937E+01 -0.33775249063E+02  0.54758185107E+02  0.64673878536E+02  0.00000000000E+00 0. -1.
</event>
<event>
 6    1  0.2809573E-005  0.2040821E+03  0.7818608E-02  0.1218770E+00
          2   -1    0    0  502    0  0.00000000000E+00  0.00000000000E+00  0.44235988494E+03  0.44235988494E+03  0.00000000000E+00 0.  1.
          1   -1    0    0  501    0 -0.00000000000E+00 -0.00000000000E+00 -0.53471078728E+02  0.53471078728E+02  0.00000000000E+00 0.  1.
          2    1    1    2  501    0 -0.73744334872E+02 -0.22071340001E+02  0.14077906497E+02  0.78253168795E+02  0.00000000000E+00 0.  1.
          1    1    1    2  502    0 -0.95544631563E+01  0.33227750894E+02  0.50815052867E+02  0.61461701844E+02  0.00000000000E+00 0.  1.
         22    1    1    2    0    0 -0.90899473128E+01 -0.40973800975E+02  0.16117419191E+03  0.16654909080E+03  0.00000000000E+00 0. -1.
         22    1    1    2    0    0  0.92388745341E+02  0.29817390083E+02  0.16282165494E+03  0.18956700223E+03  0.00000000000E+00 0.  1.
</event>
<event>
 6    1  0.2809573E-005  0.1355645E+03  0.7818608E-02  0.1251474E+00
          2   -1    0    0  502    0  0.00000000000E+00  0.00000000000E+00  0.42924434262E+03  0.42924434262E+03  0.00000000000E+00 0.  1.
          1   -1    0    0  501    0 -0.00000000000E+00 -0.00000000000E+00 -0.79372915384E+03  0.79372915384E+03  0.00000000000E+00 0.  1.
          2    1    1    2  501    0  0.70170018943E+00 -0.25026499697E+02 -0.54584712058E+01  0.25624460544E+02  0.00000000000E+00 0.  1.
          1    1    1    2  502    0  0.37266345034E+02  0.74539220587E+01 -0.76756258923E+03  0.76850287560E+03  0.00000000000E+00 0.  1.
         22    1    1    2    0    0 -0.80699861049E+02  0.10255819684E+02  0.20115058249E+03  0.21697743257E+03  0.00000000000E+00 0.  1.
         22    1    1    2    0    0  0.42731815825E+02  0.73167579550E+01  0.20738566673E+03  0.21186872774E+03  0.00000000000E+00 0.  1.
</event>
<event>
 6    1  0.2809573E-005  0.3282847E+03  0.7818608E-02  0.1110769E+00
          2   -1    0    0  502    0  0.00000000000E+00  0.00000000000E+00  0.62689427850E+03  0.62689427850E+03  0.00000000000E+00 0. -1.
          1   -1    0    0  501    0 -0.00000000000E+00 -0.00000000000E+00 -0.24528393930E+04  0.24528393930E+04  0.00000000000E+00 0.  1.
          2    1    1    2  501    0 -0.17142755009E+03  0.97135799005E+02  0.84951712289E+02  0.21456831500E+03  0.00000000000E+00 0. -1.
          1    1    1    2  502    0  0.30018662407E+03 -0.14908655954E+03 -0.23579570595E+04  0.23816591498E+04  0.00000000000E+00 0.  1.
         22    1    1    2    0    0 -0.19157862631E+02  0.89123487722E+01 -0.72209119166E-01  0.21129573478E+02  0.00000000000E+00 0. -1.
         22    1    1    2    0    0 -0.10960121134E+03  0.43038411765E+02  0.44713244182E+03  0.46237663321E+03  0.00000000000E+00 0.  1.
</event>
<event>
 6    1  0.2809573E-005  0.2244395E+03  0.7818608E-02  0.1173933E+00
          2   -1    0    0  502    0  0.00000000000E+00  0.00000000000E+00  0.65088885667E+03  0.65088885667E+03  0.00000000000E+00 0. -1.
          1   -1    0    0  501    0 -0.00000000000E+00 -0.00000000000E+00 -0.77329295194E+03  0.77329295194E+03  0.00000000000E+00 0.  1.
          2    1    1    2  501    0  0.17294142552E+03  0.97020715720E+02  0.23263547113E+03  0.30568123654E+03  0.00000000000E+00 0. -1.
          1    1    1    2  502    0 -0.21738357609E+03 -0.44693547858E+02 -0.70644318882E+03  0.74048302573E+03  0.00000000000E+00 0.  1.
         22    1    1    2    0    0  0.21255826576E+02 -0.77873091601E+02  0.32415666035E+03  0.33405623629E+03  0.00000000000E+00 0. -1.
         22    1    1    2    0    0  0.23186323991E+02  0.25545923738E+02  0.27246962059E+02  0.43961310050E+02  0.00000000000E+00 0. -1.
</event>
<event>
 6    1  0.2809573E-005  0.1386327E+03  0.7818608E-02  0.1315458E+00
          2   -1    0    0  502    0  0.00000000000E+00  0.00000000000E+00  0.22802091580E+03  0.22802091580E+03  0.00000000000E+00 0.  1.
          1   -1    0    0  501    0 -0.00000000000E+00 -0.00000000000E+00 -0.16287307585E+03  0.16287307585E+03  0.00000000000E+00 0.  1.
          2    1    1    2  501    0  0.77346113254E+02  0.44312107410E+01  0.40142463258E+02  0.87255224603E+02  0.00000000000E+00 0.  1.
          1    1    1    2  502    0 -0.11740286810E+03 -0.26924046155E+02 -0.70682444968E+02  0.13965795976E+03  0.00000000000E+00 0.  1.
         22    1    1    2    0    0  0.23257223573E+02  0.32556065305E+02 -0.21326670486E+02  0.45338975622E+02  0.00000000000E+00 0. -1.
         22    1    1    2    0    0  0.16799531269E+02 -0.10063229891E+02  0.11701449215E+03  0.11864183166E+03  0.00000000000E+00 0.  1.
</event>
<event>
 6    1  0.2809573E-005  0.1873273E+03  0.7818608E-02  0.1296798E+00
          2   -1    0    0  502    0  0.00000000000E+00  0.00000000000E+00  0.63872542293E+02  0.63872542293E+02  0.00000000000E+00 0. -1.
          1   -1    0    0  501    0 -0.00000000000E+00 -0.00000000000E+00 -0.13691915432E+04  0.13691915432E+04  0.00000000000E+00 0. -1.
          2    1    1    2  501    0 -0.83115080531E+02  0.48037630024E+02 -0.10179985020E+04  0.10225148804E+04  0.00000000000E+00 0. -1.
          1    1    1    2  502    0  0.13099094743E+03 -0.59737528215E+02 -0.20580513093E+03  0.25116319895E+03  0.00000000000E+00 0. -1.
         22    1    1    2    0    0  0.30372562197E+01  0.10738235929E+02  0.32582421924E+02  0.34440511824E+02  0.00000000000E+00 0. -1.
         22    1    1    2    0    0 -0.50913123119E+02  0.96166226129E+00 -0.11409778995E+03  0.12494549440E+03  0.00000000000E+00 0. -1.
</event>
<event>
 6    1  0.2809573E-005  0.1468305E+03  0.7818608E-02  0.1308663E+00
          2   -1    0    0  502    0  0.00000000000E+00  0.00000000000E+00  0.75121762033E+02  0.75121762033E+02  0.00000000000E+00 0. -1.
          1   -1    0    0  501    0 -0.00000000000E+00 -0.00000000000E+00 -0.10474995489E+04  0.10474995489E+04  0.00000000000E+00 0. -1.
          2    1    1    2  501    0 -0.39987914063E+02 -0.76988645288E+02 -0.62199654436E+03  0.62801750451E+03  0.00000000000E+00 0. -1.
          1    1    1    2  502    0  0.31824561093E+02  0.98301894318E+02 -0.34904342703E+03  0.36401563025E+03  0.00000000000E+00 0. -1.
         22    1    1    2    0    0  0.21194868358E+00 -0.38170642134E+02 -0.58842106097E+02  0.70138693266E+02  0.00000000000E+00 0. -1.
         22    1    1    2    0    0  0.79514042868E+01  0.16857393105E+02  0.57504290668E+02  0.60449482856E+02  0.00000000000E+00 0. -1.
</event>
<event>
 6    1  0.2809573E-005  0.8430808E+02  0.7818608E-02  0.1319792E+00
          2   -1    0    0  502    0  0.00000000000E+00  0.00000000000E+00  0.32084176123E+02  0.32084176123E+02  0.00000000000E+00 0. -1.
          1   -1    0    0  501    0 -0.00000000000E+00 -0.00000000000E+00 -0.32716401430E+03  0.32716401430E+03  0.00000000000E+00 0. -1.
          2    1    1    2  501    0 -0.27054939869E+01 -0.38995076354E+02 -0.52341253647E+02  0.65326430416E+02  0.00000000000E+00 0. -1.
          1    1    1    2  502    0 -0.26644809436E+02  0.11595151642E+02 -0.80673591931E+02  0.85747430553E+02  0.00000000000E+00 0. -1.
         22    1    1    2    0    0  0.12051100232E+02 -0.46480890857E+02 -0.32358326373E+02  0.57903052746E+02  0.00000000000E+00 0. -1.
         22    1    1    2    0    0  0.17299203191E+02  0.73880815568E+02 -0.12970666622E+03  0.15027127671E+03  0.00000000000E+00 0. -1.
</event>
<event>
 6    1  0.2809573E-005  0.9617029E+02  0.7818608E-02  0.1307237E+00
          2   -1    0    0  502    0  0.00000000000E+00  0.00000000000E+00  0.31136022396E+03  0.31136022396E+03  0.00000000000E+00 0.  1.
          1   -1    0    0  501    0 -0.00000000000E+00 -0.00000000000E+00 -0.77735858349E+02  0.77735858349E+02  0.00000000000E+00 0.  1.
          2    1    1    2  501    0 -0.54766461665E+02 -0.42309726925E+02 -0.44380993597E+01  0.69348215850E+02  0.00000000000E+00 0.  1.
          1    1    1    2  502    0  0.51130557232E+02 -0.25035188561E+02  0.17150662916E+02  0.59457882469E+02  0.00000000000E+00 0.  1.
         22    1    1    2    0    0 -0.42619615260E+02  0.20026668972E+02  0.24605562919E+02  0.53131278938E+02  0.00000000000E+00 0.  1.
         22    1    1    2    0    0  0.46255519692E+02  0.47318246513E+02  0.19630623913E+03  0.20715870505E+03  0.00000000000E+00 0.  1.
</event>
<event>
 6    1  0.2809573E-005  0.1195498E+03  0.7818608E-02  0.1248815E+00
          2   -1    0    0  502    0  0.00000000000E+00  0.00000000000E+00  0.83672424741E+03  0.83672424741E+03  0.00000000000E+00 0.  1.
          1   -1    0    0  501    0 -0.00000000000E+00 -0.00000000000E+00 -0.24122998832E+04  0.24122998832E+04  0.00000000000E+00 0. -1.
          2    1    1    2  501    0  0.11250776331E+03 -0.21877957452E+02  0.32956363590E+03  0.34892525264E+03  0.00000000000E+00 0.  1.
          1    1    1    2  502    0 -0.69673599172E+02 -0.62058667794E+01 -0.23931405827E+04  0.23941626453E+04  0.00000000000E+00 0. -1.
         22    1    1    2    0    0 -0.85636995689E+02  0.78141433306E+01  0.30258210728E+03  0.31456428201E+03  0.00000000000E+00 0. -1.
         22    1    1    2    0    0  0.42802831550E+02  0.20269680901E+02  0.18541920381E+03  0.19137195065E+03  0.00000000000E+00 0.  1.
</event>
<event>
 6    1  0.2809573E-005  0.1024663E+03  0.7818608E-02  0.1277054E+00
          2   -1    0    0  502    0  0.00000000000E+00  0.00000000000E+00  0.49384234174E+03  0.49384234174E+03  0.00000000000E+00 0. -1.
          1   -1    0    0  501    0 -0.00000000000E+00 -0.00000000000E+00 -0.10151515774E+04  0.10151515774E+04  0.00000000000E+00 0.  1.
          2    1    1    2  501    0  0.58692189729E+02 -0.43691090144E+02  0.19467196302E+03  0.20796840548E+03  0.00000000000E+00 0. -1.
          1    1    1    2  502    0  0.42581400896E+01  0.36509430205E+02 -0.99212410874E+03  0.99280477305E+03  0.00000000000E+00 0.  1.
         22    1    1    2    0    0  0.20555559609E+02 -0.27063184894E+02  0.14561191759E+03  0.14952517364E+03  0.00000000000E+00 0. -1.
         22    1    1    2    0    0 -0.83505889428E+02  0.34244844833E+02  0.13053099249E+03  0.15869556694E+03  0.00000000000E+00 0.  1.
</event>
<event>
 6    1  0.2809573E-005  0.1335545E+03  0.7818608E-02  0.1279581E+00
          2   -1    0    0  502    0  0.00000000000E+00  0.00000000000E+00  0.23166642958E+02  0.23166642958E+02  0.00000000000E+00 0.  1.
          1   -1    0    0  501    0 -0.00000000000E+00 -0.00000000000E+00 -0.12881462357E+04  0.12881462357E+04  0.00000000000E+00 0.  1.
          2    1    1    2  501    0  0.62940646661E+02  0.33402026872E+02 -0.25737860046E+03  0.26705985167E+03  0.00000000000E+00 0.  1.
          1    1    1    2  502    0 -0.32240832984E+00 -0.71532530661E+02 -0.72556659019E+03  0.72908427749E+03  0.00000000000E+00 0.  1.
         22    1    1    2    0    0 -0.38781403800E+02  0.73381407759E+02 -0.24527116575E+03  0.25893391635E+03  0.00000000000E+00 0.  1.
         22    1    1    2    0    0 -0.23836834531E+02 -0.35250903970E+02 -0.36763236305E+02  0.56234833108E+02  0.00000000000E+00 0.  1.
</event>
<event>
 6    1  0.2809573E-005  0.1042021E+03  0.7818608E-02  0.1275490E+00
          2   -1    0    0  502    0  0.00000000000E+00  0.00000000000E+00  0.10356608077E+04  0.10356608077E+04  0.00000000000E+00 0.  1.
          1   -1    0    0  501    0 -0.00000000000E+00 -0.00000000000E+00 -0.21511864954E+02  0.21511864954E+02  0.00000000000E+00 0.  1.
          2    1    1    2  501    0  0.58336735882E+02  0.55006322581E+02  0.22498603100E+03  0.23884636154E+03  0.00000000000E+00 0.  1.
          1    1    1    2  502    0  0.15769209433E+02 -0.64022308023E+02  0.30617939014E+03  0.31319856775E+03  0.00000000000E+00 0.  1.
         22    1    1    2    0    0  0.19947331489E+02  0.27658994654E+02  0.43328319173E+02  0.55138546056E+02  0.00000000000E+00 0.  1.
         22    1    1    2    0    0 -0.94053276804E+02 -0.18643009212E+02  0.43965520242E+03  0.44998919730E+03  0.00000000000E+00 0.  1.
</event>
<event>
 6    1  0.2809573E-005  0.7842422E+02  0.7818608E-02  0.1415830E+00
          2   -1    0    0  502    0  0.00000000000E+00  0.00000000000E+00  0.21912153153E+02  0.21912153153E+02  0.00000000000E+00 0.  1.
          1   -1    0    0  501    0 -0.00000000000E+00 -0.00000000000E+00 -0.79636841845E+03  0.79636841845E+03  0.00000000000E+00 0.  1.
          2    1    1    2  501    0  0.25157676089E+02  0.26957312157E+01 -0.65629168898E+02  0.70337496708E+02  0.00000000000E+00 0.  1.
          1    1    1    2  502    0  0.54215294799E+01  0.27025957264E+02 -0.51621216615E+03  0.51694757551E+03  0.00000000000E+00 0.  1.
         22    1    1    2    0    0 -0.37497565038E+02 -0.48766967871E+02 -0.20013971202E+03  0.20938048827E+03  0.00000000000E+00 0.  1.
         22    1    1    2    0    0  0.69183594686E+01  0.19045279391E+02  0.75247817713E+01  0.21615011116E+02  0.00000000000E+00 0.  1.
</event>
<event>
 6    1  0.2809573E-005  0.1462058E+03  0.7818608E-02  0.1309508E+00
          2   -1    0    0  502    0  0.00000000000E+00  0.00000000000E+00  0.10678482633E+03  0.10678482633E+03  0.00000000000E+00 0.  1.
          1   -1    0    0  501    0 -0.00000000000E+00 -0.00000000000E+00 -0.25105028338E+03  0.25105028338E+03  0.00000000000E+00 0.  1.
          2    1    1    2  501    0 -0.71402762342E+01 -0.26638143125E+02 -0.11182250908E+03  0.11517312078E+03  0.00000000000E+00 0.  1.
          1    1    1    2  502    0  0.63408736858E+02 -0.45822073387E+02  0.11326716627E+02  0.79048243680E+02  0.00000000000E+00 0.  1.
         22    1    1    2    0    0 -0.12037158520E+02 -0.14167535659E+02  0.34218476118E+02  0.38942475008E+02  0.00000000000E+00 0.  1.
         22    1    1    2    0    0 -0.44231302104E+02  0.86627752171E+02 -0.77988140704E+02  0.12467127024E+03  0.00000000000E+00 0.  1.
</event>
<event>
 6    1  0.2809573E-005  0.1025866E+03  0.7818608E-02  0.1374829E+00
          2   -1    0    0  502    0  0.00000000000E+00  0.00000000000E+00  0.60902078921E+02  0.60902078921E+02  0.00000000000E+00 0.  1.
          1   -1    0    0  501    0 -0.00000000000E+00 -0.00000000000E+00 -0.57312857526E+03  0.57312857526E+03  0.00000000000E+00 0.  1.
          2    1    1    2  501    0  0.72878598746E+02 -0.28491845585E+02 -0.27110244842E+03  0.28216947560E+03  0.00000000000E+00 0.  1.
          1    1    1    2  502    0 -0.94877953148E+02  0.45094473658E+02 -0.18162281539E+03  0.20981464348E+03  0.00000000000E+00 0.  1.
         22    1    1    2    0    0  0.22249793062E+02  0.80414333326E+00 -0.97627407725E+02  0.10013396365E+03  0.00000000000E+00 0.  1.
         22    1    1    2    0    0 -0.25043865981E+00 -0.17406771407E+02  0.38126175197E+02  0.41912571449E+02  0.00000000000E+00 0.  1.
</event>
<event>
 6    1  0.3460794E-005  0.6732031E+02  0.7818608E-02  0.1397802E+00
          2   -1    0    0  502    0  0.00000000000E+00  0.00000000000E+00  0.11615626242E+03  0.11615626242E+03  0.00000000000E+00 0.  1.
          1   -1    0    0  501    0 -0.00000000000E+00 -0.00000000000E+00 -0.10795716163E+04  0.10795716163E+04  0.00000000000E+00 0.  1.
          2    1    1    2  501    0  0.14103087961E+02  0.55900437606E+02 -0.12456023834E+03  0.13725526944E+03  0.00000000000E+00 0.  1.
          1    1    1    2  502    0 -0.31561258713E+02 -0.47532426754E+02 -0.91173260460E+03  0.91351616676E+03  0.00000000000E+00 0.  1.
         22    1    1    2    0    0  0.26059982792E+02 -0.33570757126E+02  0.98948449461E+02  0.10768896920E+03  0.00000000000E+00 0.  1.
         22    1    1    2    0    0 -0.86018120397E+01  0.25202746274E+02 -0.26070960360E+02  0.37267473273E+02  0.00000000000E+00 0.  1.
</event>
<event>
 6    1  0.2809573E-005  0.1379521E+03  0.7818608E-02  0.1337862E+00
          2   -1    0    0  502    0  0.00000000000E+00  0.00000000000E+00  0.19239279829E+02  0.19239279829E+02  0.00000000000E+00 0. -1.
          1   -1    0    0  501    0 -0.00000000000E+00 -0.00000000000E+00 -0.70087410805E+03  0.70087410805E+03  0.00000000000E+00 0. -1.
          2    1    1    2  501    0  0.58107663155E+01  0.48154160598E+02 -0.10210775203E+03  0.11304238680E+03  0.00000000000E+00 0. -1.
          1    1    1    2  502    0 -0.36571191843E+01  0.25421967676E+02 -0.20237514480E+03  0.20399840733E+03  0.00000000000E+00 0. -1.
         22    1    1    2    0    0  0.68988474578E+01 -0.83418813585E+02 -0.38024339519E+03  0.38934731557E+03  0.00000000000E+00 0. -1.
         22    1    1    2    0    0 -0.90524945891E+01  0.98426853101E+01  0.30914638078E+01  0.13725278171E+02  0.00000000000E+00 0.  1.
</event>
<event>
 6    1  0.2809573E-005  0.6478216E+02  0.7818608E-02  0.1427570E+00
          2   -1    0    0  502    0  0.00000000000E+00  0.00000000000E+00  0.12302123699E+03  0.12302123699E+03  0.00000000000E+00 0.  1.
          1   -1    0    0  501    0 -0.00000000000E+00 -0.00000000000E+00 -0.47451421739E+03  0.47451421739E+03  0.00000000000E+00 0.  1.
          2    1    1    2  501    0  0.30217268261E+02 -0.40985354202E+02 -0.86498284435E+02  0.10037348141E+03  0.00000000000E+00 0.  1.
          1    1    1    2  502    0 -0.32344099207E+02  0.19129652999E+02 -0.34290047753E+03  0.34495336187E+03  0.00000000000E+00 0.  1.
         22    1    1    2    0    0  0.29737633068E+02  0.10064821403E+02 -0.28038414128E+02  0.42092518541E+02  0.00000000000E+00 0.  1.
         22    1    1    2    0    0 -0.27610802122E+02  0.11790879799E+02  0.10594419569E+03  0.11011609256E+03  0.00000000000E+00 0.  1.
</event>
<event>
 6    1  0.2809573E-005  0.6840859E+02  0.7818608E-02  0.1373677E+00
          2   -1    0    0  502    0  0.00000000000E+00  0.00000000000E+00  0.13218779111E+03  0.13218779111E+03  0.00000000000E+00 0. -1.
          1   -1    0    0  501    0 -0.00000000000E+00 -0.00000000000E+00 -0.10301038526E+03  0.10301038526E+03  0.00000000000E+00 0. -1.
          2    1    1    2  501    0  0.31526328471E+02  0.29652345766E+02 -0.28516499496E+02  0.51830123864E+02  0.00000000000E+00 0. -1.
          1    1    1    2  502    0 -0.39842460120E+02 -0.31500174757E+02  0.25523800956E+02  0.56843179480E+02  0.00000000000E+00 0. -1.
         22    1    1    2    0    0  0.18883006254E+02  0.54578525562E+02 -0.94512690856E+01  0.58521020710E+02  0.00000000000E+00 0. -1.
         22    1    1    2    0    0 -0.10566874604E+02 -0.52730696570E+02  0.41621373481E+02  0.68003852318E+02  0.00000000000E+00 0. -1.
</event>
<event>
 6    1  0.2809573E-005  0.6279246E+02  0.7818608E-02  0.1405652E+00
          2   -1    0    0  502    0  0.00000000000E+00  0.00000000000E+00  0.32268839614E+03  0.32268839614E+03  0.00000000000E+00 0. -1.
          1   -1    0    0  501    0 -0.00000000000E+00 -0.00000000000E+00 -0.33363225048E+03  0.33363225048E+03  0.00000000000E+00 0. -1.
          2    1    1    2  501    0 -0.32028087872E+02 -0.28465685159E+02  0.96024398935E+02  0.10515121889E+03  0.00000000000E+00 0. -1.
          1    1    1    2  502    0  0.17012914768E+02  0.53470074301E+02 -0.30774124178E+03  0.31281489736E+03  0.00000000000E+00 0. -1.
         22    1    1    2    0    0  0.46188560265E+02  0.26239401599E+01  0.16011098796E+02  0.48955320916E+02  0.00000000000E+00 0. -1.
         22    1    1    2    0    0 -0.31173387161E+02 -0.27628329302E+02  0.18476188971E+03  0.18939920944E+03  0.00000000000E+00 0. -1.
</event>
<event>
 6    1  0.2809573E-005  0.8116659E+02  0.7818608E-02  0.1358619E+00
          2   -1    0    0  502    0  0.00000000000E+00  0.00000000000E+00  0.39906566818E+03  0.39906566818E+03  0.00000000000E+00 0. -1.
          1   -1    0    0  501    0 -0.00000000000E+00 -0.00000000000E+00 -0.34372609271E+02  0.34372609271E+02  0.00000000000E+00 0. -1.
          2    1    1    2  501    0  0.49524668551E+02 -0.15011888265E+02  0.45759353567E+02  0.69079432707E+02  0.00000000000E+00 0. -1.
          1    1    1    2  502    0 -0.43543077584E+02 -0.98154590785E+01  0.90950345414E+02  0.10131292205E+03  0.00000000000E+00 0. -1.
         22    1    1    2    0    0  0.35686904476E+02  0.29070228113E+02  0.18815458894E+02  0.49725796193E+02  0.00000000000E+00 0. -1.
         22    1    1    2    0    0 -0.41668495443E+02 -0.42428807691E+01  0.20916790103E+03  0.21332012650E+03  0.00000000000E+00 0.  1.
</event>
<event>
 6    1  0.2809573E-005  0.1263888E+03  0.7818608E-02  0.1279777E+00
          2   -1    0    0  502    0  0.00000000000E+00  0.00000000000E+00  0.11739548158E+03  0.11739548158E+03  0.00000000000E+00 0. -1.
          1   -1    0    0  501    0 -0.00000000000E+00 -0.00000000000E+00 -0.24819963979E+03  0.24819963979E+03  0.00000000000E+00 0. -1.
          2    1    1    2  501    0  0.49560578504E+02  0.77499821031E+01 -0.70423220370E+01  0.50654787177E+02  0.00000000000E+00 0. -1.
          1    1    1    2  502    0 -0.16874825384E+02  0.30360009148E+02 -0.16856321993E+03  0.17210476170E+03  0.00000000000E+00 0. -1.
         22    1    1    2    0    0 -0.34120288764E+01  0.44853872303E+02  0.28806101545E+02  0.53416320426E+02  0.00000000000E+00 0.  1.
         22    1    1    2    0    0 -0.29273724244E+02 -0.82963863554E+02  0.15995282205E+02  0.89419252064E+02  0.00000000000E+00 0. -1.
</event>
<event>
 6    1  0.2809573E-005  0.8740491E+02  0.7818608E-02  0.1412649E+00
          2   -1    0    0  502    0  0.00000000000E+00  0.00000000000E+00  0.62574112668E+02  0.62574112668E+02  0.00000000000E+00 0.  1.
          1   -1    0    0  501    0 -0.00000000000E+00 -0.00000000000E+00 -0.40410850052E+03  0.40410850052E+03  0.00000000000E+00 0.  1.
          2    1    1    2  501    0 -0.28097674411E+02  0.35719612420E+01 -0.26479231672E+02  0.38773546708E+02  0.00000000000E+00 0.  1.
          1    1    1    2  502    0  0.21240996512E+02  0.47162554545E+02 -0.28865096969E+03  0.29324881720E+03  0.00000000000E+00 0.  1.
         22    1    1    2    0    0  0.10604527476E+02 -0.65647777713E+02 -0.65076344900E+02  0.93043094248E+02  0.00000000000E+00 0. -1.
         22    1    1    2    0    0 -0.37478495775E+01  0.14913261926E+02  0.38672158406E+02  0.41617155039E+02  0.00000000000E+00 0.  1.
</event>
<event>
 6    1  0.2809573E-005  0.9539764E+02  0.7818608E-02  0.1290872E+00
          2   -1    0    0  502    0  0.00000000000E+00  0.00000000000E+00  0.17804152108E+03  0.17804152108E+03  0.00000000000E+00 0.  1.
          1   -1    0    0  501    0 -0.00000000000E+00 -0.00000000000E+00 -0.12398215908E+03  0.12398215908E+03  0.00000000000E+00 0.  1.
          2    1    1    2  501    0 -0.16884387932E+02  0.28157769631E+02 -0.21083940153E+02  0.39018906684E+02  0.00000000000E+00 0.  1.
          1    1    1    2  502    0  0.36681666988E+01  0.76250306321E+02  0.59543624132E+02  0.96814295617E+02  0.00000000000E+00 0.  1.
         22    1    1    2    0    0 -0.24727707943E+02  0.15987343903E+02 -0.19317993392E+02  0.35217035280E+02  0.00000000000E+00 0.  1.
         22    1    1    2    0    0  0.37943929176E+02 -0.12039541986E+03  0.34917671415E+02  0.13097344258E+03  0.00000000000E+00 0.  1.
</event>
<event>
 6    1  0.2809573E-005  0.1313625E+03  0.7818608E-02  0.1227476E+00
          2   -1    0    0  502    0  0.00000000000E+00  0.00000000000E+00  0.34586458161E+03  0.34586458161E+03  0.00000000000E+00 0.  1.
          1   -1    0    0  501    0 -0.00000000000E+00 -0.00000000000E+00 -0.15045304028E+04  0.15045304028E+04  0.00000000000E+00 0.  1.
          2    1    1    2  501    0  0.16169029900E+03  0.28544544046E+01  0.64822092208E+02  0.17422343224E+03  0.00000000000E+00 0.  1.
          1    1    1    2  502    0 -0.84516906000E+02  0.26078077524E+02 -0.14233568751E+04  0.14261023692E+04  0.00000000000E+00 0.  1.
         22    1    1    2    0    0 -0.10897627570E+03 -0.14460985868E+02  0.17683268974E+03  0.20821803221E+03  0.00000000000E+00 0.  1.
         22    1    1    2    0    0  0.31802882698E+02 -0.14471546060E+02  0.23036271970E+02  0.41851150756E+02  0.00000000000E+00 0.  1.
</event>
<event>
 6    1  0.2809573E-005  0.1347698E+03  0.7818608E-02  0.1265458E+00
          2   -1    0    0  502    0  0.00000000000E+00  0.00000000000E+00  0.34004589200E+03  0.34004589200E+03  0.00000000000E+00 0.  1.
          1   -1    0    0  501    0 -0.00000000000E+00 -0.00000000000E+00 -0.20794021635E+03  0.20794021635E+03  0.00000000000E+00 0.  1.
          2    1    1    2  501    0 -0.41522729134E+01 -0.90630916184E+02  0.39213547957E+02  0.98837779629E+02  0.00000000000E+00 0.  1.
          1    1    1    2  502    0 -0.26113558681E+02  0.12657107422E+03 -0.13391197286E+03  0.18610365728E+03  0.00000000000E+00 0.  1.
         22    1    1    2    0    0 -0.20813582090E+02 -0.54537204296E+02  0.46221190495E+02  0.74457439538E+02  0.00000000000E+00 0.  1.
         22    1    1    2    0    0  0.51079413684E+02  0.18597046262E+02  0.18058291006E+03  0.18858723190E+03  0.00000000000E+00 0.  1.
</event>
<event>
 6    1  0.2809573E-005  0.2214916E+03  0.7818608E-02  0.1175400E+00
          2   -1    0    0  502    0  0.00000000000E+00  0.00000000000E+00  0.54743412596E+03  0.54743412596E+03  0.00000000000E+00 0. -1.
          1   -1    0    0  501    0 -0.00000000000E+00 -0.00000000000E+00 -0.13898607786E+04  0.13898607786E+04  0.00000000000E+00 0.  1.
          2    1    1    2  501    0  0.69488443709E+01  0.12863194749E+03  0.28743015377E+03  0.31497707480E+03  0.00000000000E+00 0. -1.
          1    1    1    2  502    0 -0.32196773880E+01  0.26348067607E+02 -0.13345298656E+04  0.13347938227E+04  0.00000000000E+00 0.  1.
         22    1    1    2    0    0 -0.49972180033E+02 -0.72619270253E+02  0.16079872258E+03  0.18337667893E+03  0.00000000000E+00 0. -1.
         22    1    1    2    0    0  0.46243013050E+02 -0.82360744842E+02  0.43874336595E+02  0.10414732814E+03  0.00000000000E+00 0.  1.
</event>
<event>
 6    1  0.2809573E-005  0.8483415E+02  0.7818608E-02  0.1318084E+00
          2   -1    0    0  502    0  0.00000000000E+00  0.00000000000E+00  0.27691115037E+02  0.27691115037E+02  0.00000000000E+00 0.  1.
          1   -1    0    0  501    0 -0.00000000000E+00 -0.00000000000E+00 -0.18346614851E+04  0.18346614851E+04  0.00000000000E+00 0. -1.
          2    1    1    2  501    0 -0.33376406053E+02  0.46181086049E+01 -0.73977178851E+02  0.81289202227E+02  0.00000000000E+00 0.  1.
          1    1    1    2  502    0 -0.19414469137E+02  0.11503497290E+02 -0.15724652496E+04  0.15726271692E+04  0.00000000000E+00 0. -1.
         22    1    1    2    0    0  0.89134021141E+02  0.25078405462E+01 -0.88477148724E+02  0.12561595773E+03  0.00000000000E+00 0.  1.
         22    1    1    2    0    0 -0.36343145951E+02 -0.18629446441E+02 -0.72050792878E+02  0.82820270989E+02  0.00000000000E+00 0.  1.
</event>
<event>
 6    1  0.2809573E-005  0.8215709E+02  0.7818608E-02  0.1404573E+00
          2   -1    0    0  502    0  0.00000000000E+00  0.00000000000E+00  0.73021626296E+02  0.73021626296E+02  0.00000000000E+00 0. -1.
          1   -1    0    0  501    0 -0.00000000000E+00 -0.00000000000E+00 -0.25875954617E+04  0.25875954617E+04  0.00000000000E+00 0.  1.
          2    1    1    2  501    0  0.41692690786E+02  0.69252231924E+01 -0.90173985473E+02  0.99587081679E+02  0.00000000000E+00 0. -1.
          1    1    1    2  502    0 -0.35169919065E+02  0.20251882702E+02 -0.24289068443E+04  0.24292458748E+04  0.00000000000E+00 0.  1.
         22    1    1    2    0    0 -0.25780535706E+02 -0.18781573398E+02 -0.57807624870E+02  0.66023518641E+02  0.00000000000E+00 0.  1.
         22    1    1    2    0    0  0.19257763985E+02 -0.83955324962E+01  0.62314619219E+02  0.65760612892E+02  0.00000000000E+00 0. -1.
</event>
<event>
 6    1  0.2809573E-005  0.3569676E+03  0.7818608E-02  0.1074110E+00
          2   -1    0    0  502    0  0.00000000000E+00  0.00000000000E+00  0.77500367034E+03  0.77500367034E+03  0.00000000000E+00 0. -1.
          1   -1    0    0  501    0 -0.00000000000E+00 -0.00000000000E+00 -0.54362520267E+03  0.54362520267E+03  0.00000000000E+00 0. -1.
          2    1    1    2  501    0  0.24737677284E+03 -0.35206350255E+03  0.23082916001E+03  0.48828892950E+03  0.00000000000E+00 0. -1.
          1    1    1    2  502    0 -0.31282887133E+03  0.13674633103E+03 -0.28511469336E+03  0.44480540706E+03  0.00000000000E+00 0. -1.
         22    1    1    2    0    0  0.46602727501E+01 -0.17250811216E+02  0.27400046181E+02  0.32711942168E+02  0.00000000000E+00 0.  1.
         22    1    1    2    0    0  0.60791825738E+02  0.23256798273E+03  0.25826395484E+03  0.35282259428E+03  0.00000000000E+00 0. -1.
</event>
<event>
 6    1  0.2809573E-005  0.4281690E+02  0.7818608E-02  0.1581732E+00
          2   -1    0    0  502    0  0.00000000000E+00  0.00000000000E+00  0.71986752173E+02  0.71986752173E+02  0.00000000000E+00 0. -1.
          1   -1    0    0  501    0 -0.00000000000E+00 -0.00000000000E+00 -0.28232986097E+03  0.28232986097E+03  0.00000000000E+00 0. -1.
          2    1    1    2  501    0 -0.30147531467E+02 -0.19070493826E+02 -0.14684019212E+03  0.15111121537E+03  0.00000000000E+00 0. -1.
          1    1    1    2  502    0  0.25982740192E+02  0.17940026331E+02 -0.66390480818E+02  0.73516278986E+02  0.00000000000E+00 0. -1.
         22    1    1    2    0    0  0.26645469117E+00 -0.10847217542E+02 -0.62329441497E+02  0.63266834944E+02  0.00000000000E+00 0. -1.
         22    1    1    2    0    0  0.38983365835E+01  0.11977685037E+02  0.65217005638E+02  0.66422283846E+02  0.00000000000E+00 0. -1.
</event>
<event>
 6    1  0.2809573E-005  0.1161695E+03  0.7818608E-02  0.1362882E+00
          2   -1    0    0  502    0  0.00000000000E+00  0.00000000000E+00  0.25331010840E+02  0.25331010840E+02  0.00000000000E+00 0.  1.
          1   -1    0    0  501    0 -0.00000000000E+00 -0.00000000000E+00 -0.46399215584E+03  0.46399215584E+03  0.00000000000E+00 0. -1.
          2    1    1    2  501    0 -0.24006841460E+02 -0.20864008062E+02 -0.31223659525E+02  0.44570754800E+02  0.00000000000E+00 0.  1.
          1    1    1    2  502    0  0.18996935053E+01 -0.33480143926E+02 -0.14331366058E+03  0.14718469411E+03  0.00000000000E+00 0. -1.
         22    1    1    2    0    0 -0.12774714642E+02 -0.70999620458E+01  0.78334990798E+01  0.16582113951E+02  0.00000000000E+00 0.  1.
         22    1    1    2    0    0  0.34881862597E+02  0.61444114033E+02 -0.27195732398E+03  0.28098560382E+03  0.00000000000E+00 0.  1.
</event>
<event>
 6    1  0.2809573E-005  0.1058919E+03  0.7818608E-02  0.1284247E+00
          2   -1    0    0  502    0  0.00000000000E+00  0.00000000000E+00  0.31093319218E+03  0.31093319218E+03  0.00000000000E+00 0. -1.
          1   -1    0    0  501    0 -0.00000000000E+00 -0.00000000000E+00 -0.10024279428E+04  0.10024279428E+04  0.00000000000E+00 0. -1.
          2    1    1    2  501    0  0.46179505761E+02  0.25769579513E+01  0.35204648131E+02  0.58125336254E+02  0.00000000000E+00 0. -1.
          1    1    1    2  502    0 -0.21633149892E+02  0.34677253469E+02 -0.97283944825E+03  0.97369764155E+03  0.00000000000E+00 0. -1.
         22    1    1    2    0    0 -0.67365084885E+02 -0.14149129890E+02  0.67565145094E+02  0.96453622896E+02  0.00000000000E+00 0.  1.
         22    1    1    2    0    0  0.42818729016E+02 -0.23105081529E+02  0.17857490441E+03  0.18508453428E+03  0.00000000000E+00 0. -1.
</event>
<event>
 6    1  0.2809573E-005  0.8538325E+02  0.7818608E-02  0.1438603E+00
          2   -1    0    0  502    0  0.00000000000E+00  0.00000000000E+00  0.81721636553E+02  0.81721636553E+02  0.00000000000E+00 0. -1.
          1   -1    0    0  501    0 -0.00000000000E+00 -0.00000000000E+00 -0.25396195124E+03  0.25396195124E+03  0.00000000000E+00 0. -1.
          2    1    1    2  501    0  0.31385764623E+02  0.14604536385E+01 -0.47107992141E+02  0.56624747853E+02  0.00000000000E+00 0. -1.
          1    1    1    2  502    0 -0.76396998594E+02  0.16088342595E+02 -0.11902365113E+03  0.14234453165E+03  0.00000000000E+00 0. -1.
         22    1    1    2    0    0 -0.10858274168E+02  0.23109161003E+01  0.52310810210E+02  0.53475819918E+02  0.00000000000E+00 0. -1.
         22    1    1    2    0    0  0.55869508139E+02 -0.19859712333E+02 -0.58419481626E+02  0.83238488376E+02  0.00000000000E+00 0. -1.
</event>
<event>
 6    1  0.2809573E-005  0.8965732E+02  0.7818608E-02  0.1303972E+00
          2   -1    0    0  502    0  0.00000000000E+00  0.00000000000E+00  0.60234159589E+02  0.60234159589E+02  0.00000000000E+00 0. -1.
          1   -1    0    0  501    0 -0.00000000000E+00 -0.00000000000E+00 -0.14772145552E+04  0.14772145552E+04  0.00000000000E+00 0. -1.
          2    1    1    2  501    0 -0.44600348949E+02  0.72461375844E+02 -0.41413038819E+03  0.42278105509E+03  0.00000000000E+00 0. -1.
          1    1    1    2  502    0 -0.29942785582E+02 -0.89669905089E+02 -0.95552294697E+03  0.96018819221E+03  0.00000000000E+00 0. -1.
         22    1    1    2    0    0 -0.14300000672E+02  0.94094206915E+01 -0.61800889004E+02  0.64127818446E+02  0.00000000000E+00 0. -1.
         22    1    1    2    0    0  0.88843135204E+02  0.77991085535E+01  0.14473828574E+02  0.90351649020E+02  0.00000000000E+00 0. -1.
</event>
<event>
 6    1  0.2809573E-005  0.9150554E+02  0.7818608E-02  0.1342347E+00
          2   -1    0    0  502    0  0.00000000000E+00  0.00000000000E+00  0.58383498403E+02  0.58383498403E+02  0.00000000000E+00 0.  1.
          1   -1    0    0  501    0 -0.00000000000E+00 -0.00000000000E+00 -0.32885921853E+03  0.32885921853E+03  0.00000000000E+00 0.  1.
          2    1    1    2  501    0  0.54590822716E+02  0.14658660623E+02 -0.15916435203E+03  0.16890330137E+03  0.00000000000E+00 0.  1.
          1    1    1    2  502    0 -0.54916694921E+02 -0.14166188102E+02 -0.57857148891E+02  0.81018355601E+02  0.00000000000E+00 0.  1.
         22    1    1    2    0    0  0.21968529064E+02 -0.36947235527E+02 -0.77469880749E+02  0.88596257854E+02  0.00000000000E+00 0.  1.
         22    1    1    2    0    0 -0.21642656858E+02  0.36454763006E+02  0.24015661541E+02  0.48724802113E+02  0.00000000000E+00 0.  1.
</event>
<event>
 6    1  0.2809573E-005  0.1144321E+03  0.7818608E-02  0.1279599E+00
          2   -1    0    0  502    0  0.00000000000E+00  0.00000000000E+00  0.31029083811E+03  0.31029083811E+03  0.00000000000E+00 0.  1.
          1   -1    0    0  501    0 -0.00000000000E+00 -0.00000000000E+00 -0.17571676747E+04  0.17571676747E+04  0.00000000000E+00 0.  1.
          2    1    1    2  501    0  0.61738313135E+02 -0.14543618330E+02 -0.20706491566E+02  0.66722521954E+02  0.00000000000E+00 0.  1.
          1    1    1    2  502    0 -0.49331430514E+02 -0.26876483356E+02 -0.16983031627E+04  0.16992320524E+04  0.00000000000E+00 0.  1.
         22    1    1    2    0    0 -0.22078918100E+02 -0.28214889452E+02  0.22840893448E+02  0.42488410476E+02  0.00000000000E+00 0.  1.
         22    1    1    2    0    0  0.96720354783E+01  0.69634991138E+02  0.24929192423E+03  0.25901552801E+03  0.00000000000E+00 0.  1.
</event>
<event>
 6    1  0.2809573E-005  0.1287181E+03  0.7818608E-02  0.1284380E+00
          2   -1    0    0  502    0  0.00000000000E+00  0.00000000000E+00  0.78839691382E+02  0.78839691382E+02  0.00000000000E+00 0. -1.
          1   -1    0    0  501    0 -0.00000000000E+00 -0.00000000000E+00 -0.10087504669E+04  0.10087504669E+04  0.00000000000E+00 0. -1.
          2    1    1    2  501    0  0.53309916307E+01  0.36183865653E+02 -0.39787925964E+02  0.54044154706E+02  0.00000000000E+00 0. -1.
          1    1    1    2  502    0 -0.59193902013E+02 -0.51795120793E+02 -0.89149123759E+03  0.89495434480E+03  0.00000000000E+00 0. -1.
         22    1    1    2    0    0  0.43365496523E+02 -0.16313133163E+01 -0.59965674024E+02  0.74021007377E+02  0.00000000000E+00 0. -1.
         22    1    1    2    0    0  0.10497413859E+02  0.17242568457E+02  0.61334062016E+02  0.64570651446E+02  0.00000000000E+00 0. -1.
</event>
<event>
 6    1  0.2809573E-005  0.6618163E+02  0.7818608E-02  0.1375625E+00
          2   -1    0    0  502    0  0.00000000000E+00  0.00000000000E+00  0.44282945534E+02  0.44282945534E+02  0.00000000000E+00 0. -1.
          1   -1    0    0  501    0 -0.00000000000E+00 -0.00000000000E+00 -0.39451134456E+03  0.39451134456E+03  0.00000000000E+00 0.  1.
          2    1    1    2  501    0  0.33187893816E+02 -0.91569708579E+01  0.11277458041E+01  0.34446454416E+02  0.00000000000E+00 0. -1.
          1    1    1    2  502    0  0.23562866327E+02  0.42384918499E+02 -0.14985449681E+03  0.15750574656E+03  0.00000000000E+00 0.  1.
         22    1    1    2    0    0  0.22284194711E+02 -0.22131433386E+02 -0.14299114543E+01  0.31439311767E+02  0.00000000000E+00 0.  1.
         22    1    1    2    0    0 -0.79034954854E+02 -0.11096514255E+02 -0.20007173657E+03  0.21540277735E+03  0.00000000000E+00 0.  1.
</event>
<event>
 6    1  0.2809573E-005  0.9250252E+02  0.7818608E-02  0.1335348E+00
          2   -1    0    0  502    0  0.00000000000E+00  0.00000000000E+00  0.39015955077E+02  0.39015955077E+02  0.00000000000E+00 0.  1.
          1   -1    0    0  501    0 -0.00000000000E+00 -0.00000000000E+00 -0.23449179342E+04  0.23449179342E+04  0.00000000000E+00 0.  1.
          2    1    1    2  501    0 -0.36309558941E+02 -0.40427639982E+02 -0.53247657780E+02  0.76079505809E+02  0.00000000000E+00 0.  1.
          1    1    1    2  502    0  0.46649629498E+02  0.27054404078E+02 -0.21444827996E+04  0.21451607414E+04  0.00000000000E+00 0.  1.
         22    1    1    2    0    0  0.43526081189E+02 -0.15900025651E+02 -0.10721711036E+02  0.47563490694E+02  0.00000000000E+00 0.  1.
         22    1    1    2    0    0 -0.53866151747E+02  0.29273261555E+02 -0.97449810705E+02  0.11513015136E+03  0.00000000000E+00 0.  1.
</event>
<event>
 6    1  0.2809573E-005  0.1929153E+03  0.7818608E-02  0.1157656E+00
          2   -1    0    0  502    0  0.00000000000E+00  0.00000000000E+00  0.64356261196E+03  0.64356261196E+03  0.00000000000E+00 0. -1.
          1   -1    0    0  501    0 -0.00000000000E+00 -0.00000000000E+00 -0.41773393390E+03  0.41773393390E+03  0.00000000000E+00 0. -1.
          2    1    1    2  501    0  0.24786274682E+02  0.16415112021E+03  0.27940481128E+03  0.32500307421E+03  0.00000000000E+00 0. -1.
          1    1    1    2  502    0  0.26387822070E+02  0.66204460114E+01 -0.36041038092E+03  0.36143573444E+03  0.00000000000E+00 0. -1.
         22    1    1    2    0    0 -0.36014067409E+02 -0.18741170217E+03  0.25638758698E+03  0.31961657328E+03  0.00000000000E+00 0.  1.
         22    1    1    2    0    0 -0.15160029342E+02  0.16640135943E+02  0.50446660712E+02  0.55241163917E+02  0.00000000000E+00 0. -1.
</event>
<event>
 6    1  0.2809573E-005  0.3397203E+03  0.7818608E-02  0.1168799E+00
          2   -1    0    0  502    0  0.00000000000E+00  0.00000000000E+00  0.60518420739E+03  0.60518420739E+03  0.00000000000E+00 0. -1.
          1   -1    0    0  501    0 -0.00000000000E+00 -0.00000000000E+00 -0.29182000203E+03  0.29182000203E+03  0.00000000000E+00 0.  1.
          2    1    1    2  501    0  0.92866880172E+02 -0.11675869574E+02  0.46832130286E+02  0.10466055508E+03  0.00000000000E+00 0. -1.
          1    1    1    2  502    0 -0.65120702516E+01  0.24604376475E+03 -0.15222100543E+03  0.28939795391E+03  0.00000000000E+00 0.  1.
         22    1    1    2    0    0 -0.67644349959E+02 -0.21607097772E+03  0.27211216113E+03  0.35398792879E+03  0.00000000000E+00 0. -1.
         22    1    1    2    0    0 -0.18710459961E+02 -0.18296917454E+02  0.14664091937E+03  0.14895777165E+03  0.00000000000E+00 0. -1.
</event>
<event>
 6    1  0.2809573E-005  0.1120232E+03  0.7818608E-02  0.1258711E+00
          2   -1    0    0  502    0  0.00000000000E+00  0.00000000000E+00  0.16078812598E+03  0.16078812598E+03  0.00000000000E+00 0.  1.
          1   -1    0    0  501    0 -0.00000000000E+00 -0.00000000000E+00 -0.51065613738E+03  0.51065613738E+03  0.00000000000E+00 0.  1.
          2    1    1    2  501    0 -0.85219234128E+02 -0.26030240122E+02  0.72843491444E+02  0.11509155274E+03  0.00000000000E+00 0.  1.
          1    1    1    2  502    0  0.55542041135E+02 -0.66971298527E+00 -0.42433934934E+03  0.42795940257E+03  0.00000000000E+00 0.  1.
         22    1    1    2    0    0  0.72853552664E+02  0.21367252853E+02 -0.21788866428E+02  0.78987051663E+02  0.00000000000E+00 0. -1.
         22    1    1    2    0    0 -0.43176359671E+02  0.53327002537E+01  0.23416712927E+02  0.49406256392E+02  0.00000000000E+00 0.  1.
</event>
<event>
 6    1  0.2809573E-005  0.1514124E+03  0.7818608E-02  0.1260659E+00
          2   -1    0    0  502    0  0.00000000000E+00  0.00000000000E+00  0.31126821842E+03  0.31126821842E+03  0.00000000000E+00 0. -1.
          1   -1    0    0  501    0 -0.00000000000E+00 -0.00000000000E+00 -0.37909439332E+03  0.37909439332E+03  0.00000000000E+00 0. -1.
          2    1    1    2  501    0 -0.10855618624E+03  0.70140601409E+02 -0.71023213839E+02  0.14747354488E+03  0.00000000000E+00 0. -1.
          1    1    1    2  502    0  0.10482177001E+03 -0.10731972073E+03 -0.23184116382E+03  0.27614389576E+03  0.00000000000E+00 0. -1.
         22    1    1    2    0    0  0.26191764010E+02  0.32965704794E+02  0.23974682111E+03  0.24341586724E+03  0.00000000000E+00 0. -1.
         22    1    1    2    0    0 -0.22457347782E+02  0.42134145248E+01 -0.47086183435E+01  0.23329303848E+02  0.00000000000E+00 0. -1.
</event>
<event>
 6    1  0.2809573E-005  0.1831608E+03  0.7818608E-02  0.1165688E+00
          2   -1    0    0  502    0  0.00000000000E+00  0.00000000000E+00  0.33926288088E+03  0.33926288088E+03  0.00000000000E+00 0.  1.
          1   -1    0    0  501    0 -0.00000000000E+00 -0.00000000000E+00 -0.17832431763E+03  0.17832431763E+03  0.00000000000E+00 0.  1.
          2    1    1    2  501    0 -0.10200921212E+03 -0.86938773349E+02  0.36875987000E+02  0.13901103584E+03  0.00000000000E+00 0.  1.
          1    1    1    2  502    0  0.88777906248E+01 -0.82524093380E+02 -0.42952941032E+02  0.93455852132E+02  0.00000000000E+00 0.  1.
         22    1    1    2    0    0  0.99671562152E+02  0.18715462015E+03  0.15017193928E+03  0.25983241425E+03  0.00000000000E+00 0.  1.
         22    1    1    2    0    0 -0.65401406616E+01 -0.17691753420E+02  0.16843578004E+02  0.25287896293E+02  0.00000000000E+00 0. -1.
</event>
<event>
 6    1  0.2809573E-005  0.7660588E+02  0.7818608E-02  0.1379672E+00
          2   -1    0    0  502    0  0.00000000000E+00  0.00000000000E+00  0.19502577236E+03  0.19502577236E+03  0.00000000000E+00 0.  1.
          1   -1    0    0  501    0 -0.00000000000E+00 -0.00000000000E+00 -0.75745336109E+02  0.75745336109E+02  0.00000000000E+00 0. -1.
          2    1    1    2  501    0 -0.17398301154E+02  0.35636227737E+02  0.28463163070E+02  0.48813863423E+02  0.00000000000E+00 0.  1.
          1    1    1    2  502    0  0.22265942211E+02  0.28123622867E+01 -0.35070896031E+02  0.41637114605E+02  0.00000000000E+00 0. -1.
         22    1    1    2    0    0  0.10423628111E+02 -0.21773655524E+01 -0.23517583280E+02  0.25816073812E+02  0.00000000000E+00 0. -1.
         22    1    1    2    0    0 -0.15291269169E+02 -0.36271224471E+02  0.14940575249E+03  0.15450405662E+03  0.00000000000E+00 0.  1.
</event>
<event>
 6    1  0.2809573E-005  0.1450534E+03  0.7818608E-02  0.1331399E+00
          2   -1    0    0  502    0  0.00000000000E+00  0.00000000000E+00  0.24791578618E+02  0.24791578618E+02  0.00000000000E+00 0. -1.
          1   -1    0    0  501    0 -0.00000000000E+00 -0.00000000000E+00 -0.16530711575E+04  0.16530711575E+04  0.00000000000E+00 0. -1.
          2    1    1    2  501    0 -0.21813316525E+02  0.48078759733E+02 -0.99382725994E+03  0.99522862224E+03  0.00000000000E+00 0. -1.
          1    1    1    2  502    0  0.94533390323E+02 -0.33226843827E+02 -0.36013168504E+03  0.37381200570E+03  0.00000000000E+00 0. -1.
         22    1    1    2    0    0 -0.60094885610E+02 -0.12313174041E+02 -0.28534843263E+03  0.29186767128E+03  0.00000000000E+00 0. -1.
         22    1    1    2    0    0 -0.12625188189E+02 -0.25387418649E+01  0.11027798709E+02  0.16954436925E+02  0.00000000000E+00 0. -1.
</event>
<event>
 6    1  0.2809573E-005  0.7904592E+02  0.7818608E-02  0.1335205E+00
          2   -1    0    0  502    0  0.00000000000E+00  0.00000000000E+00  0.22224548568E+03  0.22224548568E+03  0.00000000000E+00 0. -1.
          1   -1    0    0  501    0 -0.00000000000E+00 -0.00000000000E+00 -0.25449571728E+03  0.25449571728E+03  0.00000000000E+00 0. -1.
          2    1    1    2  501    0 -0.67973177656E+02 -0.23268358183E+02 -0.18563538626E+03  0.19905342501E+03  0.00000000000E+00 0. -1.
          1    1    1    2  502    0  0.22043253622E+02 -0.58901432640E+01  0.13826836887E+03  0.14013829116E+03  0.00000000000E+00 0. -1.
         22    1    1    2    0    0  0.68866737551E+02  0.24484840789E+02  0.54885385474E+02  0.91403175590E+02  0.00000000000E+00 0. -1.
         22    1    1    2    0    0 -0.22936813517E+02  0.46736606579E+01 -0.39768599678E+02  0.46146311213E+02  0.00000000000E+00 0. -1.
</event>
<event>
 6    1  0.2809573E-005  0.3202493E+03  0.7818608E-02  0.1182089E+00
          2   -1    0    0  502    0  0.00000000000E+00  0.00000000000E+00  0.11595217855E+04  0.11595217855E+04  0.00000000000E+00 0. -1.
          1   -1    0    0  501    0 -0.00000000000E+00 -0.00000000000E+00 -0.83045478216E+02  0.83045478216E+02  0.00000000000E+00 0. -1.
          2    1    1    2  501    0  0.16103096772E+03 -0.11790391863E+01  0.23810541975E+03  0.28744834947E+03  0.00000000000E+00 0. -1.
          1    1    1    2  502    0 -0.23276550848E+03 -0.11492534515E+03  0.36652259272E+03  0.44913965296E+03  0.00000000000E+00 0. -1.
         22    1    1    2    0    0 -0.11146105004E+02 -0.20252247219E+02  0.59697645893E+02  0.64017170347E+02  0.00000000000E+00 0. -1.
         22    1    1    2    0    0  0.82880645756E+02  0.13635663156E+03  0.41215064891E+03  0.44196209091E+03  0.00000000000E+00 0. -1.
</event>
<event>
 6    1  0.2809573E-005  0.4142086E+02  0.7818608E-02  0.1522748E+00
          2   -1    0    0  502    0  0.00000000000E+00  0.00000000000E+00  0.90677382721E+02  0.90677382721E+02  0.00000000000E+00 0. -1.
          1   -1    0    0  501    0 -0.00000000000E+00 -0.00000000000E+00 -0.70389423973E+03  0.70389423973E+03  0.00000000000E+00 0. -1.
          2    1    1    2  501    0  0.18391575683E+02  0.13949197987E+02 -0.65873668095E+02  0.69800933582E+02  0.00000000000E+00 0. -1.
          1    1    1    2  502    0 -0.40847073768E+02  0.13782822386E+02 -0.58870678840E+03  0.59028309508E+03  0.00000000000E+00 0. -1.
         22    1    1    2    0    0  0.82025930426E+01 -0.28465396907E+02  0.84240752112E+02  0.89297624101E+02  0.00000000000E+00 0. -1.
         22    1    1    2    0    0  0.14252905041E+02  0.73337653366E+00 -0.42877152630E+02  0.45189969694E+02  0.00000000000E+00 0. -1.
</event>
<event>
 6    1  0.2809573E-005  0.1913076E+03  0.7818608E-02  0.1158144E+00
          2   -1    0    0  502    0  0.00000000000E+00  0.00000000000E+00  0.38249596326E+03  0.38249596326E+03  0.00000000000E+00 0.  1.
          1   -1    0    0  501    0 -0.00000000000E+00 -0.00000000000E+00 -0.32543065140E+03  0.32543065140E+03  0.00000000000E+00 0. -1.
          2    1    1    2  501    0  0.17409340904E+03  0.48794522869E+02  0.19653709964E+03  0.26705102896E+03  0.00000000000E+00 0.  1.
          1    1    1    2  502    0 -0.90704543451E+01 -0.98455802560E+02 -0.19536325296E+03  0.21895802978E+03  0.00000000000E+00 0. -1.
         22    1    1    2    0    0  0.16042416856E+02 -0.65661624043E+01  0.24083571598E+02  0.29673086260E+02  0.00000000000E+00 0.  1.
         22    1    1    2    0    0 -0.18106537155E+03  0.56227442095E+02  0.31807893589E+02  0.19224446966E+03  0.00000000000E+00 0.  1.
</event>
<event>
 6    1  0.2809573E-005  0.8572311E+02  0.7818608E-02  0.1343744E+00
          2   -1    0    0  502    0  0.00000000000E+00  0.00000000000E+00  0.41027174655E+03  0.41027174655E+03  0.00000000000E+00 0. -1.
          1   -1    0    0  501    0 -0.00000000000E+00 -0.00000000000E+00 -0.15255927159E+03  0.15255927159E+03  0.00000000000E+00 0.  1.
          2    1    1    2  501    0 -0.23671967018E+02  0.16542169260E+02  0.12003301329E+03  0.12345821020E+03  0.00000000000E+00 0. -1.
          1    1    1    2  502    0  0.45097742370E+02 -0.60483833387E+02 -0.12442998540E+03  0.14551605318E+03  0.00000000000E+00 0.  1.
         22    1    1    2    0    0  0.50175129286E+02  0.40490311857E+01  0.11298933559E+03  0.12369530391E+03  0.00000000000E+00 0.  1.
         22    1    1    2    0    0 -0.71600904639E+02  0.39892632941E+02  0.14912011147E+03  0.17016145085E+03  0.00000000000E+00 0. -1.
</event>
<event>
 6    1  0.2809573E-005  0.1747257E+03  0.7818608E-02  0.1260862E+00
          2   -1    0    0  502    0  0.00000000000E+00  0.00000000000E+00  0.23579822397E+03  0.23579822397E+03  0.00000000000E+00 0.  1.
          1   -1    0    0  501    0 -0.00000000000E+00 -0.00000000000E+00 -0.37131127621E+03  0.37131127621E+03  0.00000000000E+00 0. -1.
          2    1    1    2  501    0  0.61522076727E+02  0.91015876418E+02  0.22386797323E+02  0.11211612007E+03  0.00000000000E+00 0.  1.
          1    1    1    2  502    0 -0.64986648138E+02 -0.15226025085E+03 -0.26824312866E+03  0.31521552071E+03  0.00000000000E+00 0. -1.
         22    1    1    2    0    0  0.15707164675E+02  0.85634328777E+02  0.25599749119E+02  0.90748556144E+02  0.00000000000E+00 0.  1.
         22    1    1    2    0    0 -0.12242593264E+02 -0.24389954350E+02  0.84743529983E+02  0.89029303249E+02  0.00000000000E+00 0. -1.
</event>
<event>
 6    1  0.2809573E-005  0.2005371E+03  0.7818608E-02  0.1203320E+00
          2   -1    0    0  502    0  0.00000000000E+00  0.00000000000E+00  0.24593857313E+03  0.24593857313E+03  0.00000000000E+00 0.  1.
          1   -1    0    0  501    0 -0.00000000000E+00 -0.00000000000E+00 -0.21169560753E+03  0.21169560753E+03  0.00000000000E+00 0. -1.
          2    1    1    2  501    0  0.34649237069E+02 -0.42791880068E+02 -0.62063259031E+02  0.82967239021E+02  0.00000000000E+00 0.  1.
          1    1    1    2  502    0 -0.22923605637E+02  0.43092890278E+02 -0.11729099790E+03  0.12704198942E+03  0.00000000000E+00 0. -1.
         22    1    1    2    0    0  0.43650995152E+02  0.38056828640E+02  0.99394673294E+02  0.11503491932E+03  0.00000000000E+00 0.  1.
         22    1    1    2    0    0 -0.55376626584E+02 -0.38357838850E+02  0.11420254923E+03  0.13259003290E+03  0.00000000000E+00 0.  1.
</event>
<event>
 6    1  0.2809573E-005  0.1003023E+03  0.7818608E-02  0.1390839E+00
          2   -1    0    0  502    0  0.00000000000E+00  0.00000000000E+00  0.82549357804E+02  0.82549357804E+02  0.00000000000E+00 0. -1.
          1   -1    0    0  501    0 -0.00000000000E+00 -0.00000000000E+00 -0.23033400970E+04  0.23033400970E+04  0.00000000000E+00 0. -1.
          2    1    1    2  501    0 -0.21900512254E+02  0.31370904244E+02 -0.13121144938E+02  0.40446637865E+02  0.00000000000E+00 0. -1.
          1    1    1    2  502    0  0.34711403248E+02 -0.25151072498E+01 -0.22189904123E+04  0.22192633141E+04  0.00000000000E+00 0. -1.
         22    1    1    2    0    0 -0.24958586182E+02 -0.36514336805E+02  0.60501937019E+02  0.74944727630E+02  0.00000000000E+00 0. -1.
         22    1    1    2    0    0  0.12147695188E+02  0.76585398107E+01 -0.49181118992E+02  0.51234775258E+02  0.00000000000E+00 0. -1.
</event>
<event>
 6    1  0.2809573E-005  0.6830208E+02  0.7818608E-02  0.1445748E+00
          2   -1    0    0  502    0  0.00000000000E+00  0.00000000000E+00  0.48269803892E+02  0.48269803892E+02  0.00000000000E+00 0.  1.
          1   -1    0    0  501    0 -0.00000000000E+00 -0.00000000000E+00 -0.18167320665E+04  0.18167320665E+04  0.00000000000E+00 0. -1.
          2    1    1    2  501    0  0.20748288635E+02  0.99162562230E+01 -0.67171462404E+02  0.70998795625E+02  0.00000000000E+00 0.  1.
          1    1    1    2  502    0 -0.13910498193E+02  0.19062424579E+02 -0.16529908932E+04  0.16531593302E+04  0.00000000000E+00 0. -1.
         22    1    1    2    0    0 -0.19586107488E+02 -0.43729914666E+02 -0.85973380627E+02  0.98424301976E+02  0.00000000000E+00 0.  1.
         22    1    1    2    0    0  0.12748317046E+02  0.14751233863E+02  0.37673473671E+02  0.42419442552E+02  0.00000000000E+00 0.  1.
</event>
<event>
 6    1  0.2809573E-005  0.1262823E+03  0.7818608E-02  0.1258171E+00
          2   -1    0    0  502    0  0.00000000000E+00  0.00000000000E+00  0.12660454599E+03  0.12660454599E+03  0.00000000000E+00 0.  1.
          1   -1    0    0  501    0 -0.00000000000E+00 -0.00000000000E+00 -0.10575950820E+04  0.10575950820E+04  0.00000000000E+00 0. -1.
          2    1    1    2  501    0  0.70635775883E+02 -0.49882318778E+02  0.41154668969E+02  0.95767245649E+02  0.00000000000E+00 0.  1.
          1    1    1    2  502    0 -0.23779189011E+02  0.12148266248E+03 -0.91454560394E+03  0.92288523057E+03  0.00000000000E+00 0. -1.
         22    1    1    2    0    0 -0.69048884900E+02 -0.32263086345E+02 -0.83846690425E+02  0.11330897026E+03  0.00000000000E+00 0.  1.
         22    1    1    2    0    0  0.22192298029E+02 -0.39337257358E+02  0.26247089380E+02  0.52238181526E+02  0.00000000000E+00 0.  1.
</event>
<event>
 6    1  0.2809573E-005  0.6107238E+02  0.7818608E-02  0.1475387E+00
          2   -1    0    0  502    0  0.00000000000E+00  0.00000000000E+00  0.68349887085E+02  0.68349887085E+02  0.00000000000E+00 0. -1.
          1   -1    0    0  501    0 -0.00000000000E+00 -0.00000000000E+00 -0.24175690084E+03  0.24175690084E+03  0.00000000000E+00 0. -1.
          2    1    1    2  501    0 -0.32263151456E+02 -0.84734948773E+01 -0.60881854121E+02  0.69421259125E+02  0.00000000000E+00 0. -1.
          1    1    1    2  502    0  0.47854028330E+02  0.10054992582E+01 -0.10352864373E+03  0.11405787622E+03  0.00000000000E+00 0. -1.
         22    1    1    2    0    0 -0.21633766991E+02  0.24142821382E+02 -0.62420560072E+02  0.70336491369E+02  0.00000000000E+00 0.  1.
         22    1    1    2    0    0  0.60428901166E+01 -0.16674825763E+02  0.53424044166E+02  0.56291161208E+02  0.00000000000E+00 0. -1.
</event>
<event>
 6    1  0.2809573E-005  0.9951649E+02  0.7818608E-02  0.1284442E+00
          2   -1    0    0  502    0  0.00000000000E+00  0.00000000000E+00  0.24409081751E+03  0.24409081751E+03  0.00000000000E+00 0.  1.
          1   -1    0    0  501    0 -0.00000000000E+00 -0.00000000000E+00 -0.16557215873E+03  0.16557215873E+03  0.00000000000E+00 0.  1.
          2    1    1    2  501    0  0.59018071972E+02  0.17225852945E+02  0.87912115542E+02  0.10727722446E+03  0.00000000000E+00 0.  1.
          1    1    1    2  502    0 -0.48518066658E+02  0.24695414251E+02 -0.11714916767E+03  0.12918124386E+03  0.00000000000E+00 0.  1.
         22    1    1    2    0    0  0.40651849584E+02  0.27496343747E+02  0.33628889966E+02  0.59493899136E+02  0.00000000000E+00 0.  1.
         22    1    1    2    0    0 -0.51151854898E+02 -0.69417610943E+02  0.74126820943E+02  0.11371060879E+03  0.00000000000E+00 0.  1.
</event>
<event>
 6    1  0.2809573E-005  0.9749682E+02  0.7818608E-02  0.1287495E+00
          2   -1    0    0  502    0  0.00000000000E+00  0.00000000000E+00  0.13009431999E+03  0.13009431999E+03  0.00000000000E+00 0. -1.
          1   -1    0    0  501    0 -0.00000000000E+00 -0.00000000000E+00 -0.18571061299E+03  0.18571061299E+03  0.00000000000E+00 0.  1.
          2    1    1    2  501    0 -0.53657639431E+02  0.32065566695E+01  0.38091766092E+02  0.65881764693E+02  0.00000000000E+00 0. -1.
          1    1    1    2  502    0 -0.11155991759E+02  0.21171127055E+02 -0.10782278907E+03  0.11044648756E+03  0.00000000000E+00 0.  1.
         22    1    1    2    0    0 -0.34808757593E+02  0.43396937043E+01  0.31349091478E+01  0.35218038020E+02  0.00000000000E+00 0. -1.
         22    1    1    2    0    0  0.99622388784E+02 -0.28717377429E+02  0.10979820819E+02  0.10425864270E+03  0.00000000000E+00 0.  1.
</event>
<event>
 6    1  0.2809573E-005  0.1152771E+03  0.7818608E-02  0.1254350E+00
          2   -1    0    0  502    0  0.00000000000E+00  0.00000000000E+00  0.13315518736E+04  0.13315518736E+04  0.00000000000E+00 0. -1.
          1   -1    0    0  501    0 -0.00000000000E+00 -0.00000000000E+00 -0.20155420517E+03  0.20155420517E+03  0.00000000000E+00 0.  1.
          2    1    1    2  501    0 -0.65256986885E+02 -0.15461059845E+02  0.48490511204E+03  0.48952067004E+03  0.00000000000E+00 0. -1.
          1    1    1    2  502    0 -0.26363474128E+02 -0.28709352051E+02 -0.18979539954E+03  0.19375642789E+03  0.00000000000E+00 0.  1.
         22    1    1    2    0    0 -0.23266863111E+02 -0.10531934820E+02  0.71854443751E+02  0.76258308773E+02  0.00000000000E+00 0. -1.
         22    1    1    2    0    0  0.11488732412E+03  0.54702346716E+02  0.76303351213E+03  0.77357067203E+03  0.00000000000E+00 0.  1.
</event>
<event>
 6    1  0.2809573E-005  0.7420376E+02  0.7818608E-02  0.1377849E+00
          2   -1    0    0  502    0  0.00000000000E+00  0.00000000000E+00  0.92900990699E+02  0.92900990699E+02  0.00000000000E+00 0.  1.
          1   -1    0    0  501    0 -0.00000000000E+00 -0.00000000000E+00 -0.23953953310E+03  0.23953953310E+03  0.00000000000E+00 0.  1.
          2    1    1    2  501    0  0.24446550818E+02  0.29521690769E+01 -0.52526119212E+01  0.25178146897E+02  0.00000000000E+00 0.  1.
          1    1    1    2  502    0 -0.19919431373E+02  0.21606567910E+02 -0.17663372900E+03  0.17906172607E+03  0.00000000000E+00 0.  1.
         22    1    1    2    0    0  0.24913195622E+02 -0.13038843246E+02  0.73429702711E+02  0.78629510933E+02  0.00000000000E+00 0.  1.
         22    1    1    2    0    0 -0.29440315067E+02 -0.11519893741E+02 -0.38181904186E+02  0.49571139894E+02  0.00000000000E+00 0. -1.
</event>
<event>
 6    1  0.2809573E-005  0.1101224E+03  0.7818608E-02  0.1282614E+00
          2   -1    0    0  502    0  0.00000000000E+00  0.00000000000E+00  0.32346335555E+03  0.32346335555E+03  0.00000000000E+00 0. -1.
          1   -1    0    0  501    0 -0.00000000000E+00 -0.00000000000E+00 -0.92101671929E+02  0.92101671929E+02  0.00000000000E+00 0. -1.
          2    1    1    2  501    0 -0.52373079992E+02 -0.29409674685E+02  0.52211518904E+02  0.79585872987E+02  0.00000000000E+00 0. -1.
          1    1    1    2  502    0  0.26912775718E+02 -0.90059253243E+00 -0.57317513329E+02  0.63327765617E+02  0.00000000000E+00 0. -1.
         22    1    1    2    0    0 -0.53138629751E+01  0.71843120486E+02  0.18979458451E+03  0.20300654032E+03  0.00000000000E+00 0. -1.
         22    1    1    2    0    0  0.30774167249E+02 -0.41532853268E+02  0.46673093531E+02  0.69644848555E+02  0.00000000000E+00 0. -1.
</event>
<event>
 6    1  0.2809573E-005  0.9974598E+02  0.7818608E-02  0.1299001E+00
          2   -1    0    0  502    0  0.00000000000E+00  0.00000000000E+00  0.16186963889E+03  0.16186963889E+03  0.00000000000E+00 0.  1.
          1   -1    0    0  501    0 -0.00000000000E+00 -0.00000000000E+00 -0.77449634413E+03  0.77449634413E+03  0.00000000000E+00 0.  1.
          2    1    1    2  501    0  0.57673720223E+02 -0.73015954938E+02  0.55583657595E+02  0.10838418091E+03  0.00000000000E+00 0.  1.
          1    1    1    2  502    0 -0.83300651463E+01  0.70881188760E+02 -0.68861610063E+03  0.69230460562E+03  0.00000000000E+00 0.  1.
         22    1    1    2    0    0 -0.70901858490E+02 -0.30759041329E+01 -0.32689815935E+02  0.78135515544E+02  0.00000000000E+00 0. -1.
         22    1    1    2    0    0  0.21558203413E+02  0.52106703107E+01  0.53095553732E+02  0.57541680942E+02  0.00000000000E+00 0.  1.
</event>
<event>
 6    1  0.2809573E-005  0.2710161E+03  0.7818608E-02  0.1132843E+00
          2   -1    0    0  502    0  0.00000000000E+00  0.00000000000E+00  0.40369300028E+03  0.40369300028E+03  0.00000000000E+00 0. -1.
          1   -1    0    0  501    0 -0.00000000000E+00 -0.00000000000E+00 -0.16227050539E+04  0.16227050539E+04  0.00000000000E+00 0.  1.
          2    1    1    2  501    0 -0.23750231348E+03 -0.19713434092E+03 -0.23356842453E+02  0.30953972179E+03  0.00000000000E+00 0. -1.
          1    1    1    2  502    0  0.10737397822E+03  0.17502932601E+03 -0.14163560361E+04  0.14311634628E+04  0.00000000000E+00 0.  1.
         22    1    1    2    0    0  0.94321835293E+01  0.23742989749E+02 -0.82719163614E+01  0.26853682217E+02  0.00000000000E+00 0. -1.
         22    1    1    2    0    0  0.12069615172E+03 -0.16379748393E+01  0.22897274133E+03  0.25884118736E+03  0.00000000000E+00 0.  1.
</event>
<event>
 6    1  0.2809573E-005  0.8145838E+02  0.7818608E-02  0.1326687E+00
          2   -1    0    0  502    0  0.00000000000E+00  0.00000000000E+00  0.33172189829E+03  0.33172189829E+03  0.00000000000E+00 0.  1.
          1   -1    0    0  501    0 -0.00000000000E+00 -0.00000000000E+00 -0.42319911192E+03  0.42319911192E+03  0.00000000000E+00 0. -1.
          2    1    1    2  501    0  0.11154866645E+02 -0.18517415455E+02  0.11569192484E+02  0.24518807877E+02  0.00000000000E+00 0.  1.
          1    1    1    2  502    0  0.75820312826E+01 -0.29837278071E+02 -0.40148152733E+03  0.40266011368E+03  0.00000000000E+00 0. -1.
         22    1    1    2    0    0  0.80741991188E+01 -0.38399819415E+02  0.52241598365E+02  0.65336998877E+02  0.00000000000E+00 0.  1.
         22    1    1    2    0    0 -0.26811097046E+02  0.86754512940E+02  0.24619352286E+03  0.26240508977E+03  0.00000000000E+00 0.  1.
</event>
<event>
 6    1  0.2809573E-005  0.2103024E+03  0.7818608E-02  0.1267939E+00
          2   -1    0    0  502    0  0.00000000000E+00  0.00000000000E+00  0.12681370026E+03  0.12681370026E+03  0.00000000000E+00 0. -1.
          1   -1    0    0  501    0 -0.00000000000E+00 -0.00000000000E+00 -0.47357246792E+03  0.47357246792E+03  0.00000000000E+00 0. -1.
          2    1    1    2  501    0 -0.10600883688E+03 -0.61156093006E+02 -0.16028278199E+03  0.20166435334E+03  0.00000000000E+00 0. -1.
          1    1    1    2  502    0  0.11456710031E+03  0.14381771330E+03 -0.16946405454E+03  0.25005443590E+03  0.00000000000E+00 0. -1.
         22    1    1    2    0    0 -0.13404057177E+02 -0.24838925746E+01  0.45109382039E+02  0.47124248738E+02  0.00000000000E+00 0. -1.
         22    1    1    2    0    0  0.48457937441E+01 -0.80177727724E+02 -0.62121313168E+02  0.10154313020E+03  0.00000000000E+00 0. -1.
</event>
<event>
 6    1  0.2809573E-005  0.1430278E+03  0.7818608E-02  0.1210131E+00
          2   -1    0    0  502    0  0.00000000000E+00  0.00000000000E+00  0.12699596945E+04  0.12699596945E+04  0.00000000000E+00 0. -1.
          1   -1    0    0  501    0 -0.00000000000E+00 -0.00000000000E+00 -0.23842134724E+03  0.23842134724E+03  0.00000000000E+00 0.  1.
          2    1    1    2  501    0  0.80460480173E+02 -0.50622785797E+02  0.33444497332E+03  0.34769238630E+03  0.00000000000E+00 0. -1.
          1    1    1    2  502    0 -0.17114875245E+02 -0.98883444049E+02 -0.20902594926E+03  0.23186785444E+03  0.00000000000E+00 0.  1.
         22    1    1    2    0    0 -0.81758851521E+02  0.15673452117E+03  0.86859900864E+03  0.88640535746E+03  0.00000000000E+00 0. -1.
         22    1    1    2    0    0  0.18413246592E+02 -0.72282913259E+01  0.37520314617E+02  0.42415443585E+02  0.00000000000E+00 0. -1.
</event>
<event>
 6    1  0.2809573E-005  0.8673230E+02  0.7818608E-02  0.1408569E+00
          2   -1    0    0  502    0  0.00000000000E+00  0.00000000000E+00  0.73545921861E+02  0.73545921861E+02  0.00000000000E+00 0. -1.
          1   -1    0    0  501    0 -0.00000000000E+00 -0.00000000000E+00 -0.47535098689E+03  0.47535098689E+03  0.00000000000E+00 0. -1.
          2    1    1    2  501    0  0.29947093020E+02  0.58526786454E+02 -0.12390141224E+03  0.14026322778E+03  0.00000000000E+00 0. -1.
          1    1    1    2  502    0 -0.36938404974E+02 -0.69998748533E+02 -0.27665331785E+03  0.28775220040E+03  0.00000000000E+00 0. -1.
         22    1    1    2    0    0 -0.97148367187E+01  0.12946466164E+02 -0.58774416281E+02  0.60962456051E+02  0.00000000000E+00 0. -1.
         22    1    1    2    0    0  0.16706148673E+02 -0.14745040847E+01  0.57524081337E+02  0.59919024520E+02  0.00000000000E+00 0. -1.
</event>
<event>
 6    1  0.2809573E-005  0.4486600E+02  0.7818608E-02  0.1500071E+00
          2   -1    0    0  502    0  0.00000000000E+00  0.00000000000E+00  0.17954118515E+03  0.17954118515E+03  0.00000000000E+00 0.  1.
          1   -1    0    0  501    0 -0.00000000000E+00 -0.00000000000E+00 -0.88270729099E+02  0.88270729099E+02  0.00000000000E+00 0.  1.
          2    1    1    2  501    0  0.25349752510E+02  0.49177420307E+01 -0.28732116075E+02  0.38630669592E+02  0.00000000000E+00 0.  1.
          1    1    1    2  502    0 -0.31441722318E+02 -0.23975770830E+02 -0.16180845923E+02  0.42722819008E+02  0.00000000000E+00 0.  1.
         22    1    1    2    0    0  0.24406899205E+02 -0.67923971018E+01 -0.16689264280E+02  0.30337516863E+02  0.00000000000E+00 0. -1.
         22    1    1    2    0    0 -0.18314929397E+02  0.25850425901E+02  0.15287268233E+03  0.15612090879E+03  0.00000000000E+00 0.  1.
</event>
<event>
 6    1  0.2809573E-005  0.3585983E+03  0.7818608E-02  0.1076721E+00
          2   -1    0    0  502    0  0.00000000000E+00  0.00000000000E+00  0.53393048870E+03  0.53393048870E+03  0.00000000000E+00 0. -1.
          1   -1    0    0  501    0 -0.00000000000E+00 -0.00000000000E+00 -0.59529795142E+03  0.59529795142E+03  0.00000000000E+00 0. -1.
          2    1    1    2  501    0 -0.81357371871E+02  0.31769377113E+03 -0.82546720954E+02  0.33817497736E+03  0.00000000000E+00 0. -1.
          1    1    1    2  502    0  0.17166514931E+02 -0.72569975323E+02 -0.33131626171E+03  0.33960499971E+03  0.00000000000E+00 0. -1.
         22    1    1    2    0    0  0.15917703220E+02 -0.21125469276E+03  0.32096571731E+03  0.38457887381E+03  0.00000000000E+00 0. -1.
         22    1    1    2    0    0  0.48273153720E+02 -0.33869103047E+02  0.31529802635E+02  0.66869589243E+02  0.00000000000E+00 0. -1.
</event>
<event>
 6    1  0.2809573E-005  0.7267742E+02  0.7818608E-02  0.1438425E+00
          2   -1    0    0  502    0  0.00000000000E+00  0.00000000000E+00  0.79659339296E+02  0.79659339296E+02  0.00000000000E+00 0. -1.
          1   -1    0    0  501    0 -0.00000000000E+00 -0.00000000000E+00 -0.19900055724E+03  0.19900055724E+03  0.00000000000E+00 0.  1.
          2    1    1    2  501    0 -0.34527570893E+02 -0.10347677637E+02 -0.16056303671E+02  0.39459250777E+02  0.00000000000E+00 0. -1.
          1    1    1    2  502    0  0.87188608845E+01  0.18208672329E+02 -0.10893386744E+03  0.11078881603E+03  0.00000000000E+00 0.  1.
         22    1    1    2    0    0 -0.17917448769E+01  0.17959768799E+02  0.59749813622E+02  0.62416375038E+02  0.00000000000E+00 0. -1.
         22    1    1    2    0    0  0.27600454885E+02 -0.25820763490E+02 -0.54100860453E+02  0.65995454683E+02  0.00000000000E+00 0.  1.
</event>
<event>
 6    1  0.2809573E-005  0.8658051E+02  0.7818608E-02  0.1355661E+00
          2   -1    0    0  502    0  0.00000000000E+00  0.00000000000E+00  0.23704656899E+03  0.23704656899E+03  0.00000000000E+00 0.  1.
          1   -1    0    0  501    0 -0.00000000000E+00 -0.00000000000E+00 -0.30158353687E+03  0.30158353687E+03  0.00000000000E+00 0.  1.
          2    1    1    2  501    0  0.40275105312E+02 -0.11764798876E+02  0.65011914386E+02  0.77375988605E+02  0.00000000000E+00 0.  1.
          1    1    1    2  502    0 -0.21805718504E+02  0.47381948680E+02 -0.26711370460E+03  0.27215853763E+03  0.00000000000E+00 0.  1.
         22    1    1    2    0    0 -0.35317137358E+02  0.18489863882E+02  0.12479194593E+03  0.13100459926E+03  0.00000000000E+00 0.  1.
         22    1    1    2    0    0  0.16847750549E+02 -0.54107013686E+02  0.12772876408E+02  0.58090980369E+02  0.00000000000E+00 0.  1.
</event>
<event>
 6    1  0.2809573E-005  0.1008933E+03  0.7818608E-02  0.1280231E+00
          2   -1    0    0  502    0  0.00000000000E+00  0.00000000000E+00  0.10708565577E+04  0.10708565577E+04  0.00000000000E+00 0.  1.
          1   -1    0    0  501    0 -0.00000000000E+00 -0.00000000000E+00 -0.17679916596E+02  0.17679916596E+02  0.00000000000E+00 0.  1.
          2    1    1    2  501    0 -0.29169699347E+02 -0.43718773347E+02  0.80844112468E+02  0.96425997654E+02  0.00000000000E+00 0.  1.
          1    1    1    2  502    0 -0.41249109719E+02  0.27534020177E+02  0.28600134691E+03  0.29026949849E+03  0.00000000000E+00 0.  1.
         22    1    1    2    0    0  0.95126409878E+02  0.43280467547E+02  0.58061311362E+03  0.58994391295E+03  0.00000000000E+00 0.  1.
         22    1    1    2    0    0 -0.24707600812E+02 -0.27095714377E+02  0.10571806815E+03  0.11189706524E+03  0.00000000000E+00 0.  1.
</event>
<event>
 6    1  0.2809573E-005  0.8393735E+02  0.7818608E-02  0.1416485E+00
          2   -1    0    0  502    0  0.00000000000E+00  0.00000000000E+00  0.51727642213E+02  0.51727642213E+02  0.00000000000E+00 0.  1.
          1   -1    0    0  501    0 -0.00000000000E+00 -0.00000000000E+00 -0.33055380570E+03  0.33055380570E+03  0.00000000000E+00 0.  1.
          2    1    1    2  501    0 -0.42014779775E+02  0.17208345380E+02 -0.52371446463E+02  0.69311884081E+02  0.00000000000E+00 0.  1.
          1    1    1    2  502    0  0.41591128032E+02 -0.37872380682E+02 -0.16166265026E+03  0.17116936537E+03  0.00000000000E+00 0.  1.
         22    1    1    2    0    0  0.88428787151E+01  0.34691352626E+02 -0.98243086987E+02  0.10456285474E+03  0.00000000000E+00 0. -1.
         22    1    1    2    0    0 -0.84192269720E+01 -0.14027317324E+02  0.33451020222E+02  0.37237343729E+02  0.00000000000E+00 0.  1.
</event>
<event>
 6    1  0.2809573E-005  0.1006119E+03  0.7818608E-02  0.1285064E+00
          2   -1    0    0  502    0  0.00000000000E+00  0.00000000000E+00  0.58879671127E+03  0.58879671127E+03  0.00000000000E+00 0. -1.
          1   -1    0    0  501    0 -0.00000000000E+00 -0.00000000000E+00 -0.33662216256E+02  0.33662216256E+02  0.00000000000E+00 0. -1.
          2    1    1    2  501    0  0.46115330099E+01 -0.32355244370E+02 -0.20629311244E+01  0.32747271027E+02  0.00000000000E+00 0. -1.
          1    1    1    2  502    0 -0.13228064952E+01 -0.44558093603E+02  0.13438179941E+03  0.14158263147E+03  0.00000000000E+00 0. -1.
         22    1    1    2    0    0  0.35370470437E+02 -0.20143909582E+02  0.16507823197E+03  0.17002255716E+03  0.00000000000E+00 0.  1.
         22    1    1    2    0    0 -0.38659196952E+02  0.97057247554E+02  0.25773739476E+03  0.27810646787E+03  0.00000000000E+00 0. -1.
</event>
<event>
 6    1  0.2809573E-005  0.4707674E+02  0.7818608E-02  0.1501585E+00
          2   -1    0    0  502    0  0.00000000000E+00  0.00000000000E+00  0.62035692289E+02  0.62035692289E+02  0.00000000000E+00 0. -1.
          1   -1    0    0  501    0 -0.00000000000E+00 -0.00000000000E+00 -0.10273795179E+04  0.10273795179E+04  0.00000000000E+00 0. -1.
          2    1    1    2  501    0  0.11925585235E+02  0.28489835986E+02 -0.27663039982E+02  0.41462442267E+02  0.00000000000E+00 0. -1.
          1    1    1    2  502    0  0.56355455318E+01 -0.28192300650E+02 -0.91532363904E+03  0.91577504299E+03  0.00000000000E+00 0. -1.
         22    1    1    2    0    0 -0.16017556555E+02  0.26518123901E+02 -0.70523575916E+02  0.77028227120E+02  0.00000000000E+00 0. -1.
         22    1    1    2    0    0 -0.15435742124E+01 -0.26815659237E+02  0.48166429291E+02  0.55149497843E+02  0.00000000000E+00 0. -1.
</event>
<event>
 6    1  0.2809573E-005  0.9520967E+02  0.7818608E-02  0.1295598E+00
          2   -1    0    0  502    0  0.00000000000E+00  0.00000000000E+00  0.38755657231E+03  0.38755657231E+03  0.00000000000E+00 0. -1.
          1   -1    0    0  501    0 -0.00000000000E+00 -0.00000000000E+00 -0.12161763310E+03  0.12161763310E+03  0.00000000000E+00 0. -1.
          2    1    1    2  501    0  0.87599135043E+01  0.77512250892E+02  0.32788681436E+02  0.84616681294E+02  0.00000000000E+00 0. -1.
          1    1    1    2  502    0 -0.81998084171E+02 -0.54546495954E+02 -0.46361317451E+02  0.10885025395E+03  0.00000000000E+00 0. -1.
         22    1    1    2    0    0  0.80855990697E+02 -0.31872892899E+02  0.28826306792E+03  0.30108000409E+03  0.00000000000E+00 0. -1.
         22    1    1    2    0    0 -0.76178200307E+01  0.89071379610E+01 -0.87514926888E+01  0.14627266079E+02  0.00000000000E+00 0.  1.
</event>
<event>
 6    1  0.2809573E-005  0.1333772E+03  0.7818608E-02  0.1337743E+00
          2   -1    0    0  502    0  0.00000000000E+00  0.00000000000E+00  0.64618275106E+02  0.64618275106E+02  0.00000000000E+00 0. -1.
          1   -1    0    0  501    0 -0.00000000000E+00 -0.00000000000E+00 -0.86632272323E+03  0.86632272323E+03  0.00000000000E+00 0. -1.
          2    1    1    2  501    0 -0.98334010740E+02  0.11051106546E+02 -0.47788383539E+03  0.48802117244E+03  0.00000000000E+00 0. -1.
          1    1    1    2  502    0  0.68031437058E+02  0.22763331522E+02 -0.29564495326E+03  0.30422423322E+03  0.00000000000E+00 0. -1.
         22    1    1    2    0    0  0.23571342781E+02 -0.20603621552E+02 -0.79410285868E+02  0.85358719082E+02  0.00000000000E+00 0.  1.
         22    1    1    2    0    0  0.67312309013E+01 -0.13210816516E+02  0.51234626397E+02  0.53336873591E+02  0.00000000000E+00 0. -1.
</event>
<event>
 6    1  0.2809573E-005  0.6600088E+02  0.7818608E-02  0.1379669E+00
          2   -1    0    0  502    0  0.00000000000E+00  0.00000000000E+00  0.53761531678E+03  0.53761531678E+03  0.00000000000E+00 0.  1.
          1   -1    0    0  501    0 -0.00000000000E+00 -0.00000000000E+00 -0.36311465544E+02  0.36311465544E+02  0.00000000000E+00 0.  1.
          2    1    1    2  501    0 -0.10451970805E+02 -0.25034005213E+02 -0.39897382534E+00  0.27131241970E+02  0.00000000000E+00 0.  1.
          1    1    1    2  502    0  0.36608261132E+02  0.19111766801E+02  0.32708669662E+03  0.32968338071E+03  0.00000000000E+00 0.  1.
         22    1    1    2    0    0 -0.29071127879E+02 -0.50698700839E+02  0.39378493065E+02  0.70470947624E+02  0.00000000000E+00 0. -1.
         22    1    1    2    0    0  0.29148375531E+01  0.56620939251E+02  0.13523763538E+03  0.14664121202E+03  0.00000000000E+00 0. -1.
</event>
<event>
 6    1  0.2809573E-005  0.3953961E+03  0.7818608E-02  0.1101278E+00
          2   -1    0    0  502    0  0.00000000000E+00  0.00000000000E+00  0.17786159545E+04  0.17786159545E+04  0.00000000000E+00 0. -1.
          1   -1    0    0  501    0 -0.00000000000E+00 -0.00000000000E+00 -0.10643253595E+03  0.10643253595E+03  0.00000000000E+00 0. -1.
          2    1    1    2  501    0  0.24141905995E+02 -0.34297246582E+03  0.37853764284E+03  0.51137431593E+03  0.00000000000E+00 0. -1.
          1    1    1    2  502    0 -0.70217268356E+02  0.32298812340E+03  0.90761594761E+03  0.96592882812E+03  0.00000000000E+00 0. -1.
         22    1    1    2    0    0 -0.18950863057E+02 -0.36259468667E+02  0.17815828350E+03  0.18279567352E+03  0.00000000000E+00 0. -1.
         22    1    1    2    0    0  0.65026225418E+02  0.56243811090E+02  0.20787154460E+03  0.22494967288E+03  0.00000000000E+00 0. -1.
</event>
<event>
 6    1  0.2809573E-005  0.2566963E+03  0.7818608E-02  0.1220129E+00
          2   -1    0    0  502    0  0.00000000000E+00  0.00000000000E+00  0.88432950430E+02  0.88432950430E+02  0.00000000000E+00 0. -1.
          1   -1    0    0  501    0 -0.00000000000E+00 -0.00000000000E+00 -0.14707301668E+04  0.14707301668E+04  0.00000000000E+00 0. -1.
          2    1    1    2  501    0 -0.88217882097E+02 -0.20576295638E+03 -0.97443299287E+03  0.99982020711E+03  0.00000000000E+00 0. -1.
          1    1    1    2  502    0  0.98117554518E+02  0.22273572484E+03 -0.32022651914E+03  0.40222292474E+03  0.00000000000E+00 0. -1.
         22    1    1    2    0    0 -0.33135367683E+01 -0.35512182264E+02 -0.11669760225E+03  0.12202632907E+03  0.00000000000E+00 0. -1.
         22    1    1    2    0    0 -0.65861356520E+01  0.18539413805E+02  0.29059897903E+02  0.35093656309E+02  0.00000000000E+00 0. -1.
</event>
<event>
 6    1  0.2809573E-005  0.1664203E+03  0.7818608E-02  0.1234404E+00
          2   -1    0    0  502    0  0.00000000000E+00  0.00000000000E+00  0.35981153312E+03  0.35981153312E+03  0.00000000000E+00 0.  1.
          1   -1    0    0  501    0 -0.00000000000E+00 -0.00000000000E+00 -0.75864966745E+03  0.75864966745E+03  0.00000000000E+00 0.  1.
          2    1    1    2  501    0  0.55430617575E+02 -0.74118883482E+02  0.10884705048E+03  0.14287701933E+03  0.00000000000E+00 0.  1.
          1    1    1    2  502    0 -0.19407025879E+02  0.41631501283E+02 -0.72268138598E+03  0.72413962756E+03  0.00000000000E+00 0.  1.
         22    1    1    2    0    0 -0.39911313991E+02 -0.40168567976E+02  0.78856437786E+02  0.97081226909E+02  0.00000000000E+00 0.  1.
         22    1    1    2    0    0  0.38877222954E+01  0.72655950175E+02  0.13613976339E+03  0.15436332678E+03  0.00000000000E+00 0.  1.
</event>
<event>
 6    1  0.2809573E-005  0.1806624E+03  0.7818608E-02  0.1167519E+00
          2   -1    0    0  502    0  0.00000000000E+00  0.00000000000E+00  0.34806390315E+02  0.34806390315E+02  0.00000000000E+00 0.  1.
          1   -1    0    0  501    0 -0.00000000000E+00 -0.00000000000E+00 -0.13318147877E+04  0.13318147877E+04  0.00000000000E+00 0.  1.
          2    1    1    2  501    0  0.88432848421E+02 -0.11742714568E+03 -0.39191727170E+03  0.41857932471E+03  0.00000000000E+00 0.  1.
          1    1    1    2  502    0  0.41602146992E+00 -0.40595933551E+02 -0.33973766455E+03  0.34215476558E+03  0.00000000000E+00 0.  1.
         22    1    1    2    0    0  0.10520631418E+02 -0.13978502212E+02 -0.28263042421E+02  0.33239761979E+02  0.00000000000E+00 0. -1.
         22    1    1    2    0    0 -0.99369501309E+02  0.17200158144E+03 -0.53709041876E+03  0.57264732579E+03  0.00000000000E+00 0.  1.
</event>
<event>
 6    1  0.2809573E-005  0.7969730E+02  0.7818608E-02  0.1448781E+00
          2   -1    0    0  502    0  0.00000000000E+00  0.00000000000E+00  0.94967501433E+02  0.94967501433E+02  0.00000000000E+00 0. -1.
          1   -1    0    0  501    0 -0.00000000000E+00 -0.00000000000E+00 -0.97562808168E+03  0.97562808168E+03  0.00000000000E+00 0.  1.
          2    1    1    2  501    0 -0.37856786431E+02 -0.15958933198E+02 -0.17251050987E+02  0.44558081062E+02  0.00000000000E+00 0. -1.
          1    1    1    2  502    0  0.66111752525E+02 -0.20812930415E+01 -0.89001054639E+03  0.89246505158E+03  0.00000000000E+00 0.  1.
         22    1    1    2    0    0  0.10423812796E+02 -0.53880625444E+01  0.69951622284E+02  0.70928954253E+02  0.00000000000E+00 0. -1.
         22    1    1    2    0    0 -0.38678778889E+02  0.23428288784E+02 -0.43350605156E+02  0.62643496224E+02  0.00000000000E+00 0.  1.
</event>
<event>
 6    1  0.2809573E-005  0.5584194E+02  0.7818608E-02  0.1517217E+00
          2   -1    0    0  502    0  0.00000000000E+00  0.00000000000E+00  0.81237342603E+02  0.81237342603E+02  0.00000000000E+00 0. -1.
          1   -1    0    0  501    0 -0.00000000000E+00 -0.00000000000E+00 -0.26731298505E+03  0.26731298505E+03  0.00000000000E+00 0. -1.
          2    1    1    2  501    0  0.19378322787E+02  0.21568904501E+02 -0.70149949189E+02  0.75906207959E+02  0.00000000000E+00 0. -1.
          1    1    1    2  502    0 -0.41899047721E+02 -0.38375830582E+02 -0.13206049894E+03  0.14376442520E+03  0.00000000000E+00 0. -1.
         22    1    1    2    0    0 -0.11211982512E+01  0.12969344377E+02  0.69329742914E+02  0.70541294513E+02  0.00000000000E+00 0. -1.
         22    1    1    2    0    0  0.23641923185E+02  0.38375817035E+01 -0.53194937228E+02  0.58338399977E+02  0.00000000000E+00 0. -1.
</event>
<event>
 6    1  0.2809573E-005  0.1036304E+03  0.7818608E-02  0.1317512E+00
          2   -1    0    0  502    0  0.00000000000E+00  0.00000000000E+00  0.17050944089E+03  0.17050944089E+03  0.00000000000E+00 0.  1.
          1   -1    0    0  501    0 -0.00000000000E+00 -0.00000000000E+00 -0.13435731354E+04  0.13435731354E+04  0.00000000000E+00 0.  1.
          2    1    1    2  501    0  0.90231601192E+02  0.51011805630E+02 -0.15921338705E+03  0.18998118008E+03  0.00000000000E+00 0.  1.
          1    1    1    2  502    0 -0.79018764313E+02 -0.14337081819E+02 -0.11383928477E+04  0.11412220611E+04  0.00000000000E+00 0.  1.
         22    1    1    2    0    0 -0.38024344041E+02 -0.24409453949E+02  0.14172532028E+03  0.14875395319E+03  0.00000000000E+00 0. -1.
         22    1    1    2    0    0  0.26811507162E+02 -0.12265269862E+02 -0.17182780016E+02  0.34125381906E+02  0.00000000000E+00 0.  1.
</event>
<event>
 6    1  0.2809573E-005  0.1486891E+03  0.7818608E-02  0.1203670E+00
          2   -1    0    0  502    0  0.00000000000E+00  0.00000000000E+00  0.96120962415E+02  0.96120962415E+02  0.00000000000E+00 0. -1.
          1   -1    0    0  501    0 -0.00000000000E+00 -0.00000000000E+00 -0.17543233563E+04  0.17543233563E+04  0.00000000000E+00 0. -1.
          2    1    1    2  501    0 -0.12139391556E+03  0.44565222418E+02 -0.82254069298E+02  0.15325884542E+03  0.00000000000E+00 0. -1.
          1    1    1    2  502    0  0.69890514446E+01 -0.37653104135E+02 -0.15206282987E+04  0.15211104582E+04  0.00000000000E+00 0. -1.
         22    1    1    2    0    0 -0.25718582151E+02 -0.76015947992E+01 -0.12219394163E+02  0.29471058770E+02  0.00000000000E+00 0.  1.
         22    1    1    2    0    0  0.14012344627E+03  0.68947651646E+00 -0.43100631742E+02  0.14660395639E+03  0.00000000000E+00 0.  1.
</event>
<event>
 6    1  0.2809573E-005  0.4065670E+03  0.7818608E-02  0.1154303E+00
          2   -1    0    0  502    0  0.00000000000E+00  0.00000000000E+00  0.16446094517E+03  0.16446094517E+03  0.00000000000E+00 0. -1.
          1   -1    0    0  501    0 -0.00000000000E+00 -0.00000000000E+00 -0.95658619250E+03  0.95658619250E+03  0.00000000000E+00 0. -1.
          2    1    1    2  501    0 -0.11140084144E+03 -0.50554313251E+02 -0.29808457473E+03  0.32221157607E+03  0.00000000000E+00 0. -1.
          1    1    1    2  502    0 -0.17717310922E+02  0.15754541013E+03 -0.55829575693E+03  0.58036937511E+03  0.00000000000E+00 0. -1.
         22    1    1    2    0    0 -0.11422960136E+02 -0.18067851837E+02  0.46540844749E+02  0.51215051677E+02  0.00000000000E+00 0. -1.
         22    1    1    2    0    0  0.14054111250E+03 -0.88923245037E+02  0.17714239577E+02  0.16725113481E+03  0.00000000000E+00 0. -1.
</event>
<event>
 6    1  0.2809573E-005  0.1151779E+03  0.7818608E-02  0.1281792E+00
          2   -1    0    0  502    0  0.00000000000E+00  0.00000000000E+00  0.99209739589E+02  0.99209739589E+02  0.00000000000E+00 0. -1.
          1   -1    0    0  501    0 -0.00000000000E+00 -0.00000000000E+00 -0.56978937319E+03  0.56978937319E+03  0.00000000000E+00 0. -1.
          2    1    1    2  501    0 -0.11033944268E+02 -0.23010093452E+02 -0.26191753544E+02  0.36568022649E+02  0.00000000000E+00 0. -1.
          1    1    1    2  502    0 -0.35363845397E+02 -0.56880001364E+02 -0.46746794943E+03  0.47224169645E+03  0.00000000000E+00 0. -1.
         22    1    1    2    0    0  0.67540469069E+02  0.14037172865E+01  0.38056539605E+02  0.77536994983E+02  0.00000000000E+00 0. -1.
         22    1    1    2    0    0 -0.21142679405E+02  0.78486377529E+02 -0.14976470227E+02  0.82652398698E+02  0.00000000000E+00 0. -1.
</event>
<event>
 6    1  0.2809573E-005  0.9457210E+02  0.7818608E-02  0.1305554E+00
          2   -1    0    0  502    0  0.00000000000E+00  0.00000000000E+00  0.29658040296E+03  0.29658040296E+03  0.00000000000E+00 0. -1.
          1   -1    0    0  501    0 -0.00000000000E+00 -0.00000000000E+00 -0.87991392232E+03  0.87991392232E+03  0.00000000000E+00 0.  1.
          2    1    1    2  501    0  0.90107795726E+01  0.17943864476E+02  0.96974927481E+02  0.99031878609E+02  0.00000000000E+00 0. -1.
          1    1    1    2  502    0  0.83691035287E+02  0.17783951853E+01 -0.84641609787E+03  0.85054545018E+03  0.00000000000E+00 0.  1.
         22    1    1    2    0    0 -0.52012484588E+02 -0.52387581193E+02  0.27440366518E+02  0.78757418259E+02  0.00000000000E+00 0. -1.
         22    1    1    2    0    0 -0.40689330271E+02  0.32665321531E+02  0.13866728451E+03  0.14815957823E+03  0.00000000000E+00 0. -1.
</event>
<event>
 6    1  0.2809573E-005  0.1229006E+03  0.7818608E-02  0.1261585E+00
          2   -1    0    0  502    0  0.00000000000E+00  0.00000000000E+00  0.24736949831E+03  0.24736949831E+03  0.00000000000E+00 0.  1.
          1   -1    0    0  501    0 -0.00000000000E+00 -0.00000000000E+00 -0.15147411657E+04  0.15147411657E+04  0.00000000000E+00 0.  1.
          2    1    1    2  501    0 -0.26015509871E+02  0.28517219464E+02 -0.15712799362E+02  0.41676499657E+02  0.00000000000E+00 0.  1.
          1    1    1    2  502    0  0.52868881058E+02  0.14485457705E+02 -0.14669235264E+04  0.14679474035E+04  0.00000000000E+00 0.  1.
         22    1    1    2    0    0 -0.43955137293E+02  0.31697158444E+02  0.10569527616E+03  0.11877817708E+03  0.00000000000E+00 0.  1.
         22    1    1    2    0    0  0.17101766106E+02 -0.74699835614E+02  0.10956938225E+03  0.13370858376E+03  0.00000000000E+00 0. -1.
</event>
<event>
 6    1  0.2809573E-005  0.1411681E+03  0.7818608E-02  0.1213073E+00
          2   -1    0    0  502    0  0.00000000000E+00  0.00000000000E+00  0.15828660007E+03  0.15828660007E+03  0.00000000000E+00 0.  1.
          1   -1    0    0  501    0 -0.00000000000E+00 -0.00000000000E+00 -0.23385338909E+03  0.23385338909E+03  0.00000000000E+00 0.  1.
          2    1    1    2  501    0  0.28718028064E+02  0.39555960231E+02 -0.72164439780E+02  0.87161376162E+02  0.00000000000E+00 0.  1.
          1    1    1    2  502    0 -0.21234069680E+02 -0.12872235097E+03 -0.53086259979E+02  0.14084914040E+03  0.00000000000E+00 0.  1.
         22    1    1    2    0    0 -0.57027888269E+01 -0.19910656458E+02 -0.24592813137E+02  0.32152177205E+02  0.00000000000E+00 0. -1.
         22    1    1    2    0    0 -0.17811695579E+01  0.10907704719E+03  0.74276723877E+02  0.13197729539E+03  0.00000000000E+00 0.  1.
</event>
<event>
 6    1  0.2809573E-005  0.9446058E+02  0.7818608E-02  0.1354520E+00
          2   -1    0    0  502    0  0.00000000000E+00  0.00000000000E+00  0.10125467470E+03  0.10125467470E+03  0.00000000000E+00 0. -1.
          1   -1    0    0  501    0 -0.00000000000E+00 -0.00000000000E+00 -0.34905136128E+03  0.34905136128E+03  0.00000000000E+00 0. -1.
          2    1    1    2  501    0  0.48090891019E+02  0.33386883191E+02 -0.24089033677E+03  0.24790234391E+03  0.00000000000E+00 0. -1.
          1    1    1    2  502    0 -0.40627106364E+02 -0.52136857176E+02 -0.29740275370E+02  0.72479635945E+02  0.00000000000E+00 0. -1.
         22    1    1    2    0    0  0.23677925495E+02  0.21851489287E+02 -0.44926364396E+02  0.55285712057E+02  0.00000000000E+00 0.  1.
         22    1    1    2    0    0 -0.31141710150E+02 -0.31015153018E+01  0.67760289957E+02  0.74638344055E+02  0.00000000000E+00 0. -1.
</event>
<event>
 6    1  0.2809573E-005  0.5483776E+02  0.7818608E-02  0.1424691E+00
          2   -1    0    0  502    0  0.00000000000E+00  0.00000000000E+00  0.63994485037E+02  0.63994485037E+02  0.00000000000E+00 0. -1.
          1   -1    0    0  501    0 -0.00000000000E+00 -0.00000000000E+00 -0.10061465641E+04  0.10061465641E+04  0.00000000000E+00 0. -1.
          2    1    1    2  501    0 -0.38525110566E+02 -0.35900824485E+02 -0.28898149239E+03  0.29374028714E+03  0.00000000000E+00 0. -1.
          1    1    1    2  502    0  0.31623206135E+01  0.33053001728E+02 -0.64799582055E+03  0.64884596373E+03  0.00000000000E+00 0. -1.
         22    1    1    2    0    0  0.49439026044E+02  0.13843008682E+02  0.48719769398E+02  0.70777553757E+02  0.00000000000E+00 0. -1.
         22    1    1    2    0    0 -0.14076236092E+02 -0.10995185926E+02 -0.53894535537E+02  0.56777244534E+02  0.00000000000E+00 0. -1.
</event>
<event>
 6    1  0.2809573E-005  0.6797033E+02  0.7818608E-02  0.1401773E+00
          2   -1    0    0  502    0  0.00000000000E+00  0.00000000000E+00  0.30172662959E+03  0.30172662959E+03  0.00000000000E+00 0. -1.
          1   -1    0    0  501    0 -0.00000000000E+00 -0.00000000000E+00 -0.51612258985E+02  0.51612258985E+02  0.00000000000E+00 0. -1.
          2    1    1    2  501    0 -0.14204988936E+02 -0.23457239172E+02  0.16187013206E+02  0.31844044605E+02  0.00000000000E+00 0. -1.
          1    1    1    2  502    0  0.26406265906E+02  0.62963041991E+02  0.25315597547E+02  0.72818370038E+02  0.00000000000E+00 0. -1.
         22    1    1    2    0    0  0.24041370554E+02 -0.30420173291E+02  0.20771367759E+03  0.21130155300E+03  0.00000000000E+00 0. -1.
         22    1    1    2    0    0 -0.36242647524E+02 -0.90856295282E+01  0.89808226836E+00  0.37374920940E+02  0.00000000000E+00 0. -1.
</event>
<event>
 6    1  0.2809573E-005  0.1027713E+03  0.7818608E-02  0.1392306E+00
          2   -1    0    0  502    0  0.00000000000E+00  0.00000000000E+00  0.76282749960E+02  0.76282749960E+02  0.00000000000E+00 0.  1.
          1   -1    0    0  501    0 -0.00000000000E+00 -0.00000000000E+00 -0.12051542019E+04  0.12051542019E+04  0.00000000000E+00 0. -1.
          2    1    1    2  501    0  0.15660362966E+02 -0.14207005255E+02 -0.32509289588E+01  0.21392861090E+02  0.00000000000E+00 0.  1.
          1    1    1    2  502    0 -0.92352572690E+02  0.24410952715E+02 -0.11104063493E+04  0.11145075831E+04  0.00000000000E+00 0. -1.
         22    1    1    2    0    0  0.77857539641E+02  0.27835875848E+01 -0.60354481704E+02  0.98550536784E+02  0.00000000000E+00 0.  1.
         22    1    1    2    0    0 -0.11653299171E+01 -0.12987535045E+02  0.45140307959E+02  0.46985970917E+02  0.00000000000E+00 0. -1.
</event>
<event>
 6    1  0.2809573E-005  0.6905486E+02  0.7818608E-02  0.1382372E+00
          2   -1    0    0  502    0  0.00000000000E+00  0.00000000000E+00  0.46247615086E+02  0.46247615086E+02  0.00000000000E+00 0. -1.
          1   -1    0    0  501    0 -0.00000000000E+00 -0.00000000000E+00 -0.67019961577E+03  0.67019961577E+03  0.00000000000E+00 0. -1.
          2    1    1    2  501    0 -0.69222575621E+01 -0.26831991964E+02 -0.14608732600E+03  0.14869223335E+03  0.00000000000E+00 0. -1.
          1    1    1    2  502    0  0.11749819146E+02  0.19196827956E+02 -0.43383111088E+03  0.43441455918E+03  0.00000000000E+00 0. -1.
         22    1    1    2    0    0  0.22340319104E+02 -0.34083612011E+02 -0.67072863713E+02  0.78482810296E+02  0.00000000000E+00 0.  1.
         22    1    1    2    0    0 -0.27167880688E+02  0.41718776018E+02  0.23039299906E+02  0.54857628035E+02  0.00000000000E+00 0. -1.
</event>
<event>
 6    1  0.2809573E-005  0.1522143E+03  0.7818608E-02  0.1222266E+00
          2   -1    0    0  502    0  0.00000000000E+00  0.00000000000E+00  0.10807678060E+03  0.10807678060E+03  0.00000000000E+00 0.  1.
          1   -1    0    0  501    0 -0.00000000000E+00 -0.00000000000E+00 -0.71850471395E+03  0.71850471395E+03  0.00000000000E+00 0.  1.
          2    1    1    2  501    0 -0.90025453310E+02 -0.12854379420E+03 -0.12538962266E+03  0.20087470408E+03  0.00000000000E+00 0.  1.
          1    1    1    2  502    0  0.39339003254E+02  0.11463551243E+03 -0.46924080932E+03  0.48463986115E+03  0.00000000000E+00 0.  1.
         22    1    1    2    0    0 -0.39239752969E+02  0.65156501644E+01 -0.29873893524E+02  0.49745968926E+02  0.00000000000E+00 0.  1.
         22    1    1    2    0    0  0.89926203024E+02  0.73926316041E+01  0.14076392150E+02  0.91320960400E+02  0.00000000000E+00 0.  1.
</event>
<event>
 6    1  0.2809573E-005  0.4890819E+02  0.7818608E-02  0.1523836E+00
          2   -1    0    0  502    0  0.00000000000E+00  0.00000000000E+00  0.40339621485E+02  0.40339621485E+02  0.00000000000E+00 0. -1.
          1   -1    0    0  501    0 -0.00000000000E+00 -0.00000000000E+00 -0.28890423301E+03  0.28890423301E+03  0.00000000000E+00 0. -1.
          2    1    1    2  501    0 -0.65689293891E+01  0.25981993249E+02 -0.12118951976E+03  0.12411734168E+03  0.00000000000E+00 0. -1.
          1    1    1    2  502    0  0.11474268184E+02 -0.34665035868E+02 -0.47169130158E+02  0.59651071927E+02  0.00000000000E+00 0. -1.
         22    1    1    2    0    0  0.12714216418E+02 -0.12365897975E+02  0.28384020646E+02  0.33469678216E+02  0.00000000000E+00 0. -1.
         22    1    1    2    0    0 -0.17619555213E+02  0.21048940594E+02 -0.10858998225E+03  0.11200576267E+03  0.00000000000E+00 0.  1.
</event>
<event>
 6    1  0.4100084E-005  0.3071746E+03  0.7818608E-02  0.1165508E+00
          2   -1    0    0  502    0  0.00000000000E+00  0.00000000000E+00  0.82342744735E+03  0.82342744735E+03  0.00000000000E+00 0.  1.
          1   -1    0    0  501    0 -0.00000000000E+00 -0.00000000000E+00 -0.23843827460E+03  0.23843827460E+03  0.00000000000E+00 0.  1.
          2    1    1    2  501    0 -0.25827879360E+03 -0.62370440943E+02 -0.54577682447E+02  0.27125030976E+03  0.00000000000E+00 0.  1.
          1    1    1    2  502    0  0.31598270915E+03  0.70926825278E+02  0.42872053241E+03  0.53728668505E+03  0.00000000000E+00 0.  1.
         22    1    1    2    0    0 -0.27517147241E+02 -0.26470742457E+02  0.21465137592E+03  0.21802088612E+03  0.00000000000E+00 0.  1.
         22    1    1    2    0    0 -0.30186768315E+02  0.17914358122E+02 -0.38050531280E+01  0.35307841021E+02  0.00000000000E+00 0.  1.
</event>
<event>
 6    1  0.2809573E-005  0.1098460E+03  0.7818608E-02  0.1268620E+00
          2   -1    0    0  502    0  0.00000000000E+00  0.00000000000E+00  0.73621251234E+03  0.73621251234E+03  0.00000000000E+00 0. -1.
          1   -1    0    0  501    0 -0.00000000000E+00 -0.00000000000E+00 -0.29865679744E+03  0.29865679744E+03  0.00000000000E+00 0. -1.
          2    1    1    2  501    0 -0.67281781328E+02  0.54420779032E+02  0.50269032321E+03  0.51008432670E+03  0.00000000000E+00 0. -1.
          1    1    1    2  502    0 -0.17240414410E+02  0.20331587615E+02 -0.26439404064E+03  0.26573448039E+03  0.00000000000E+00 0. -1.
         22    1    1    2    0    0  0.73447305295E+02 -0.91577546809E+02  0.89926188486E+02  0.14787722309E+03  0.00000000000E+00 0. -1.
         22    1    1    2    0    0  0.11074890443E+02  0.16825180162E+02  0.10933324385E+03  0.11117327960E+03  0.00000000000E+00 0. -1.
</event>
<event>
 6    1  0.2809573E-005  0.1056769E+03  0.7818608E-02  0.1328641E+00
          2   -1    0    0  502    0  0.00000000000E+00  0.00000000000E+00  0.16835882016E+03  0.16835882016E+03  0.00000000000E+00 0. -1.
          1   -1    0    0  501    0 -0.00000000000E+00 -0.00000000000E+00 -0.11127326998E+04  0.11127326998E+04  0.00000000000E+00 0. -1.
          2    1    1    2  501    0 -0.16961923632E+02  0.51258006382E+02 -0.84796467860E+02  0.10052627036E+03  0.00000000000E+00 0. -1.
          1    1    1    2  502    0  0.35335493058E+02 -0.18292738755E+02 -0.99283168766E+03  0.99362869392E+03  0.00000000000E+00 0. -1.
         22    1    1    2    0    0  0.28787297738E+02 -0.19835385081E+02  0.13347943299E+03  0.13798155689E+03  0.00000000000E+00 0. -1.
         22    1    1    2    0    0 -0.47160867164E+02 -0.13129882545E+02 -0.22515706922E+00  0.48954998754E+02  0.00000000000E+00 0. -1.
</event>
<event>
 6    1  0.2809573E-005  0.1108240E+03  0.7818608E-02  0.1310792E+00
          2   -1    0    0  502    0  0.00000000000E+00  0.00000000000E+00  0.20748218879E+03  0.20748218879E+03  0.00000000000E+00 0. -1.
          1   -1    0    0  501    0 -0.00000000000E+00 -0.00000000000E+00 -0.19140742790E+04  0.19140742790E+04  0.00000000000E+00 0.  1.
          2    1    1    2  501    0  0.12850991853E+02 -0.38625618102E+02  0.11364684334E+02  0.42263961188E+02  0.00000000000E+00 0. -1.
          1    1    1    2  502    0 -0.10040463093E+00  0.10727059073E+03 -0.18694459111E+04  0.18725210291E+04  0.00000000000E+00 0.  1.
         22    1    1    2    0    0 -0.36658415343E+02  0.19883414088E+02  0.81016523512E+02  0.91120067236E+02  0.00000000000E+00 0.  1.
         22    1    1    2    0    0  0.23907828121E+02 -0.88528386716E+02  0.70472613095E+02  0.11565141027E+03  0.00000000000E+00 0. -1.
</event>
<event>
 6    1  0.2809573E-005  0.1643688E+03  0.7818608E-02  0.1324291E+00
          2   -1    0    0  502    0  0.00000000000E+00  0.00000000000E+00  0.44680922456E+02  0.44680922456E+02  0.00000000000E+00 0. -1.
          1   -1    0    0  501    0 -0.00000000000E+00 -0.00000000000E+00 -0.12482304708E+04  0.12482304708E+04  0.00000000000E+00 0.  1.
          2    1    1    2  501    0  0.42092219308E+02 -0.83203745249E+02 -0.28382214642E+03  0.29874676391E+03  0.00000000000E+00 0. -1.
          1    1    1    2  502    0 -0.10159020491E+03  0.12753559793E+03 -0.75324831411E+03  0.77069379210E+03  0.00000000000E+00 0.  1.
         22    1    1    2    0    0  0.44567837717E+01 -0.89895675485E+01  0.21883471518E+02  0.24074085070E+02  0.00000000000E+00 0. -1.
         22    1    1    2    0    0  0.55041201833E+02 -0.35342285135E+02 -0.18836255930E+03  0.19939675214E+03  0.00000000000E+00 0. -1.
</event>
<event>
 6    1  0.2809573E-005  0.1692708E+03  0.7818608E-02  0.1240642E+00
          2   -1    0    0  502    0  0.00000000000E+00  0.00000000000E+00  0.36868237821E+03  0.36868237821E+03  0.00000000000E+00 0. -1.
          1   -1    0    0  501    0 -0.00000000000E+00 -0.00000000000E+00 -0.12363258006E+03  0.12363258006E+03  0.00000000000E+00 0. -1.
          2    1    1    2  501    0  0.62202095209E+01  0.60418753820E+02  0.76713629567E+01  0.61220638916E+02  0.00000000000E+00 0. -1.
          1    1    1    2  502    0  0.78627779686E+02 -0.14140029643E+03  0.32645429476E+02  0.16505179682E+03  0.00000000000E+00 0. -1.
         22    1    1    2    0    0 -0.42960551682E+02 -0.13167277095E+02  0.13327035370E+03  0.14064129324E+03  0.00000000000E+00 0. -1.
         22    1    1    2    0    0 -0.41887437525E+02  0.94148819704E+02  0.71462652020E+02  0.12540122929E+03  0.00000000000E+00 0. -1.
</event>
<event>
 6    1  0.2809573E-005  0.1362711E+03  0.7818608E-02  0.1282819E+00
          2   -1    0    0  502    0  0.00000000000E+00  0.00000000000E+00  0.20132407443E+03  0.20132407443E+03  0.00000000000E+00 0.  1.
          1   -1    0    0  501    0 -0.00000000000E+00 -0.00000000000E+00 -0.32423757507E+03  0.32423757507E+03  0.00000000000E+00 0.  1.
          2    1    1    2  501    0  0.24990080532E+02 -0.60544328394E+02  0.54000930711E+02  0.84889459554E+02  0.00000000000E+00 0.  1.
          1    1    1    2  502    0  0.17146126653E+02  0.11742699083E+03 -0.25409296157E+03  0.28043951389E+03  0.00000000000E+00 0.  1.
         22    1    1    2    0    0 -0.20843354267E+02 -0.87956428257E+02  0.21341806401E+02  0.92877615114E+02  0.00000000000E+00 0.  1.
         22    1    1    2    0    0 -0.21292852918E+02  0.31073765820E+02  0.55836723812E+02  0.67355060936E+02  0.00000000000E+00 0.  1.
</event>
<event>
 6    1  0.2809573E-005  0.2396746E+03  0.7818608E-02  0.1223205E+00
          2   -1    0    0  502    0  0.00000000000E+00  0.00000000000E+00  0.11162691133E+03  0.11162691133E+03  0.00000000000E+00 0. -1.
          1   -1    0    0  501    0 -0.00000000000E+00 -0.00000000000E+00 -0.12494639321E+04  0.12494639321E+04  0.00000000000E+00 0. -1.
          2    1    1    2  501    0 -0.36806918193E+02 -0.74963687312E+02 -0.11796139006E+03  0.14453094197E+03  0.00000000000E+00 0. -1.
          1    1    1    2  502    0  0.14962549729E+03  0.55009586833E+02 -0.10342317826E+04  0.10464459968E+04  0.00000000000E+00 0. -1.
         22    1    1    2    0    0 -0.13454808233E+03  0.26392838935E+02 -0.92064912743E+01  0.13742098779E+03  0.00000000000E+00 0. -1.
         22    1    1    2    0    0  0.21729503229E+02 -0.64387384559E+01  0.23562643134E+02  0.32692916893E+02  0.00000000000E+00 0.  1.
</event>
<event>
 6    1  0.2809573E-005  0.7756566E+02  0.7818608E-02  0.1386547E+00
          2   -1    0    0  502    0  0.00000000000E+00  0.00000000000E+00  0.56671070994E+02  0.56671070994E+02  0.00000000000E+00 0. -1.
          1   -1    0    0  501    0 -0.00000000000E+00 -0.00000000000E+00 -0.31900842484E+04  0.31900842484E+04  0.00000000000E+00 0. -1.
          2    1    1    2  501    0  0.36334834629E+02 -0.10902082163E+02 -0.87573703005E+02  0.95437042394E+02  0.00000000000E+00 0. -1.
          1    1    1    2  502    0 -0.43486451328E+02  0.62737554358E+02 -0.30084615628E+04  0.30094298542E+04  0.00000000000E+00 0. -1.
         22    1    1    2    0    0 -0.19187356641E+02 -0.27184615319E+02  0.42656552456E+02  0.54099347800E+02  0.00000000000E+00 0. -1.
         22    1    1    2    0    0  0.26338973340E+02 -0.24650856877E+02 -0.80034464018E+02  0.87789075016E+02  0.00000000000E+00 0. -1.
</event>
<event>
 6    1  0.2809573E-005  0.5444115E+02  0.7818608E-02  0.1430083E+00
          2   -1    0    0  502    0  0.00000000000E+00  0.00000000000E+00  0.56397562819E+02  0.56397562819E+02  0.00000000000E+00 0.  1.
          1   -1    0    0  501    0 -0.00000000000E+00 -0.00000000000E+00 -0.64527429550E+03  0.64527429550E+03  0.00000000000E+00 0.  1.
          2    1    1    2  501    0 -0.46577227677E+02  0.14462169610E+02 -0.17322229671E+03  0.17995709646E+03  0.00000000000E+00 0.  1.
          1    1    1    2  502    0  0.29624651411E+02 -0.41590490527E+02 -0.38326354475E+03  0.38665014368E+03  0.00000000000E+00 0.  1.
         22    1    1    2    0    0  0.35226492549E+02  0.33616532523E+02  0.38180998110E+02  0.61877020394E+02  0.00000000000E+00 0.  1.
         22    1    1    2    0    0 -0.18273916283E+02 -0.64882116060E+01 -0.70571889333E+02  0.73187597789E+02  0.00000000000E+00 0.  1.
</event>
<event>
 6    1  0.2809573E-005  0.8831624E+02  0.7818608E-02  0.1322290E+00
          2   -1    0    0  502    0  0.00000000000E+00  0.00000000000E+00  0.81169373358E+02  0.81169373358E+02  0.00000000000E+00 0.  1.
          1   -1    0    0  501    0 -0.00000000000E+00 -0.00000000000E+00 -0.20070154427E+03  0.20070154427E+03  0.00000000000E+00 0.  1.
          2    1    1    2  501    0 -0.18108780035E+02 -0.43176911467E+02 -0.19646125800E+02  0.50775425721E+02  0.00000000000E+00 0.  1.
          1    1    1    2  502    0  0.40437783341E+01  0.49139163217E+02 -0.93158838230E+02  0.10540198596E+03  0.00000000000E+00 0.  1.
         22    1    1    2    0    0 -0.26409091028E+02  0.49442575504E+02  0.42186660008E+01  0.56212147301E+02  0.00000000000E+00 0.  1.
         22    1    1    2    0    0  0.40474092729E+02 -0.55404827254E+02 -0.10945872879E+02  0.69481358639E+02  0.00000000000E+00 0.  1.
</event>
<event>
 6    1  0.2809573E-005  0.2302921E+03  0.7818608E-02  0.1228236E+00
          2   -1    0    0  502    0  0.00000000000E+00  0.00000000000E+00  0.77583465214E+02  0.77583465214E+02  0.00000000000E+00 0.  1.
          1   -1    0    0  501    0 -0.00000000000E+00 -0.00000000000E+00 -0.24636000102E+04  0.24636000102E+04  0.00000000000E+00 0.  1.
          2    1    1    2  501    0  0.10853950544E+03 -0.43787831614E+02 -0.11989131131E+03  0.16754738126E+03  0.00000000000E+00 0.  1.
          1    1    1    2  502    0 -0.34013158774E+02  0.20072116581E+02 -0.22152993015E+04  0.22156513218E+04  0.00000000000E+00 0.  1.
         22    1    1    2    0    0 -0.84076876530E+02  0.27813465173E+01  0.17469170954E+02  0.85917570899E+02  0.00000000000E+00 0. -1.
         22    1    1    2    0    0  0.95505298623E+01  0.20934368516E+02 -0.68295103170E+02  0.72067201436E+02  0.00000000000E+00 0. -1.
</event>
<event>
 6    1  0.2809573E-005  0.1127359E+03  0.7818608E-02  0.1268143E+00
          2   -1    0    0  502    0  0.00000000000E+00  0.00000000000E+00  0.71325071680E+03  0.71325071680E+03  0.00000000000E+00 0. -1.
          1   -1    0    0  501    0 -0.00000000000E+00 -0.00000000000E+00 -0.17326650967E+03  0.17326650967E+03  0.00000000000E+00 0.  1.
          2    1    1    2  501    0 -0.21485402932E+02  0.99377780374E+02  0.10462047999E+03  0.14588697888E+03  0.00000000000E+00 0. -1.
          1    1    1    2  502    0  0.85703949805E+01 -0.70627337154E+02 -0.13629876263E+03  0.15374987843E+03  0.00000000000E+00 0.  1.
         22    1    1    2    0    0  0.11734758272E+02 -0.78045764095E+02  0.42161793180E+03  0.42894116876E+03  0.00000000000E+00 0.  1.
         22    1    1    2    0    0  0.11802496788E+01  0.49295320874E+02  0.15004455797E+03  0.15793920041E+03  0.00000000000E+00 0. -1.
</event>
<event>
 6    1  0.2809573E-005  0.2446897E+03  0.7818608E-02  0.1161532E+00
          2   -1    0    0  502    0  0.00000000000E+00  0.00000000000E+00  0.67438606284E+03  0.67438606284E+03  0.00000000000E+00 0.  1.
          1   -1    0    0  501    0 -0.00000000000E+00 -0.00000000000E+00 -0.28764381755E+03  0.28764381755E+03  0.00000000000E+00 0.  1.
          2    1    1    2  501    0  0.53297334880E+02  0.87860430385E+02  0.19671248731E+03  0.22193662112E+03  0.00000000000E+00 0.  1.
          1    1    1    2  502    0 -0.21977115919E+03 -0.10312845476E+03 -0.18955348331E+03  0.30800221368E+03  0.00000000000E+00 0.  1.
         22    1    1    2    0    0  0.95892307465E+02  0.58591795728E+02  0.14586074748E+03  0.18412954899E+03  0.00000000000E+00 0.  1.
         22    1    1    2    0    0  0.70581516849E+02 -0.43323771349E+02  0.23372249380E+03  0.24796149660E+03  0.00000000000E+00 0.  1.
</event>
<event>
 6    1  0.2809573E-005  0.8920730E+02  0.7818608E-02  0.1395788E+00
          2   -1    0    0  502    0  0.00000000000E+00  0.00000000000E+00  0.10165028496E+03  0.10165028496E+03  0.00000000000E+00 0. -1.
          1   -1    0    0  501    0 -0.00000000000E+00 -0.00000000000E+00 -0.15459076685E+03  0.15459076685E+03  0.00000000000E+00 0. -1.
          2    1    1    2  501    0 -0.61184924225E+01  0.22822121310E+02 -0.13553822500E+02  0.27239516791E+02  0.00000000000E+00 0. -1.
          1    1    1    2  502    0 -0.37018212203E+02  0.18749434231E+02 -0.73561684674E+02  0.84458337485E+02  0.00000000000E+00 0. -1.
         22    1    1    2    0    0 -0.18690747348E+02 -0.25166325423E+01  0.63132457598E+02  0.65889184835E+02  0.00000000000E+00 0. -1.
         22    1    1    2    0    0  0.61827451973E+02 -0.39054922998E+02 -0.28957432320E+02  0.78654012704E+02  0.00000000000E+00 0. -1.
</event>
<event>
 6    1  0.2809573E-005  0.7837676E+02  0.7818608E-02  0.1336376E+00
          2   -1    0    0  502    0  0.00000000000E+00  0.00000000000E+00  0.13497149126E+03  0.13497149126E+03  0.00000000000E+00 0. -1.
          1   -1    0    0  501    0 -0.00000000000E+00 -0.00000000000E+00 -0.30273309369E+03  0.30273309369E+03  0.00000000000E+00 0.  1.
          2    1    1    2  501    0 -0.17138540825E+02 -0.19087616788E+02  0.36861196244E+01  0.25916291674E+02  0.00000000000E+00 0. -1.
          1    1    1    2  502    0  0.23364682813E+02  0.37906052310E+01 -0.25703184016E+03  0.25811943736E+03  0.00000000000E+00 0.  1.
         22    1    1    2    0    0 -0.29697608003E+02 -0.49861597313E+02  0.44602032594E+02  0.73194727400E+02  0.00000000000E+00 0. -1.
         22    1    1    2    0    0  0.23471466015E+02  0.65158608870E+02  0.40982085510E+02  0.80474128511E+02  0.00000000000E+00 0. -1.
</event>
<event>
 6    1  0.2809573E-005  0.7901853E+02  0.7818608E-02  0.1334099E+00
          2   -1    0    0  502    0  0.00000000000E+00  0.00000000000E+00  0.31928688899E+02  0.31928688899E+02  0.00000000000E+00 0.  1.
          1   -1    0    0  501    0 -0.00000000000E+00 -0.00000000000E+00 -0.11472907599E+04  0.11472907599E+04  0.00000000000E+00 0.  1.
          2    1    1    2  501    0 -0.41031121746E+02  0.32387757516E+01 -0.20051034166E+02  0.45783038248E+02  0.00000000000E+00 0.  1.
          1    1    1    2  502    0  0.39891198867E+02  0.12123570699E+02 -0.90547178193E+03  0.90643115381E+03  0.00000000000E+00 0.  1.
         22    1    1    2    0    0  0.41104098663E+02 -0.40815043860E+02 -0.16201363369E+03  0.17205764218E+03  0.00000000000E+00 0.  1.
         22    1    1    2    0    0 -0.39964175784E+02  0.25452697409E+02 -0.27825621238E+02  0.54947614587E+02  0.00000000000E+00 0.  1.
</event>
<event>
 6    1  0.2809573E-005  0.1910627E+03  0.7818608E-02  0.1246173E+00
          2   -1    0    0  502    0  0.00000000000E+00  0.00000000000E+00  0.41111860177E+03  0.41111860177E+03  0.00000000000E+00 0.  1.
          1   -1    0    0  501    0 -0.00000000000E+00 -0.00000000000E+00 -0.99000453101E+02  0.99000453101E+02  0.00000000000E+00 0.  1.
          2    1    1    2  501    0  0.26540450664E+02 -0.11149344198E+02 -0.11754789839E+02  0.31094669666E+02  0.00000000000E+00 0.  1.
          1    1    1    2  502    0  0.26041873192E+02  0.11651526814E+02 -0.63421009425E+02  0.69542517016E+02  0.00000000000E+00 0.  1.
         22    1    1    2    0    0 -0.56570881565E+02  0.28314590556E+02  0.37055948855E+03  0.37592062358E+03  0.00000000000E+00 0.  1.
         22    1    1    2    0    0  0.39885577093E+01 -0.28816773172E+02  0.16734459378E+02  0.33561244603E+02  0.00000000000E+00 0.  1.
</event>
<event>
 6    1  0.2809573E-005  0.1226500E+03  0.7818608E-02  0.1274972E+00
          2   -1    0    0  502    0  0.00000000000E+00  0.00000000000E+00  0.33909603015E+03  0.33909603015E+03  0.00000000000E+00 0.  1.
          1   -1    0    0  501    0 -0.00000000000E+00 -0.00000000000E+00 -0.30548998845E+03  0.30548998845E+03  0.00000000000E+00 0.  1.
          2    1    1    2  501    0 -0.17313677902E+02  0.61077954776E+02 -0.68555362187E+02  0.93435098794E+02  0.00000000000E+00 0.  1.
          1    1    1    2  502    0  0.17652910771E+03  0.18301558851E+02 -0.13979072575E+03  0.22591794955E+03  0.00000000000E+00 0.  1.
         22    1    1    2    0    0 -0.98451482635E+01  0.12478436333E+02 -0.96184155948E+01  0.18578273230E+02  0.00000000000E+00 0.  1.
         22    1    1    2    0    0 -0.14937028154E+03 -0.91857949960E+02  0.25157054523E+03  0.30665469703E+03  0.00000000000E+00 0.  1.
</event>
<event>
 6    1  0.2809573E-005  0.1089032E+03  0.7818608E-02  0.1293997E+00
          2   -1    0    0  502    0  0.00000000000E+00  0.00000000000E+00  0.74431328499E+02  0.74431328499E+02  0.00000000000E+00 0.  1.
          1   -1    0    0  501    0 -0.00000000000E+00 -0.00000000000E+00 -0.11851592424E+04  0.11851592424E+04  0.00000000000E+00 0.  1.
          2    1    1    2  501    0 -0.77432466116E+02 -0.52333446891E+02  0.98804894742E+00  0.93464178769E+02  0.00000000000E+00 0.  1.
          1    1    1    2  502    0  0.50871524133E+02  0.92838221619E+02 -0.95685263631E+03  0.96269092391E+03  0.00000000000E+00 0.  1.
         22    1    1    2    0    0  0.49321417739E+02 -0.33867219265E+02 -0.16657362979E+03  0.17699255615E+03  0.00000000000E+00 0.  1.
         22    1    1    2    0    0 -0.22760475756E+02 -0.66375554628E+01  0.11710303222E+02  0.26442912108E+02  0.00000000000E+00 0.  1.
</event>
<event>
 6    1  0.2809573E-005  0.2396241E+03  0.7818608E-02  0.1224060E+00
          2   -1    0    0  502    0  0.00000000000E+00  0.00000000000E+00  0.11384405689E+03  0.11384405689E+03  0.00000000000E+00 0. -1.
          1   -1    0    0  501    0 -0.00000000000E+00 -0.00000000000E+00 -0.38638045009E+03  0.38638045009E+03  0.00000000000E+00 0. -1.
          2    1    1    2  501    0  0.87695523279E+02  0.55935592998E+02 -0.11948064647E+03  0.15841376281E+03  0.00000000000E+00 0. -1.
          1    1    1    2  502    0  0.11947476682E+02 -0.88531919925E+02 -0.15686652663E+03  0.18052077504E+03  0.00000000000E+00 0. -1.
         22    1    1    2    0    0  0.14247245685E+02 -0.17125100363E+02  0.26864263767E+02  0.34899022046E+02  0.00000000000E+00 0.  1.
         22    1    1    2    0    0 -0.11389024565E+03  0.49721427291E+02 -0.23053483862E+02  0.12639094708E+03  0.00000000000E+00 0. -1.
</event>
<event>
 6    1  0.2809573E-005  0.2604765E+03  0.7818608E-02  0.1204944E+00
          2   -1    0    0  502    0  0.00000000000E+00  0.00000000000E+00  0.19061557511E+03  0.19061557511E+03  0.00000000000E+00 0. -1.
          1   -1    0    0  501    0 -0.00000000000E+00 -0.00000000000E+00 -0.51282394681E+03  0.51282394681E+03  0.00000000000E+00 0. -1.
          2    1    1    2  501    0 -0.18006507742E+03 -0.58918574716E+02 -0.25143764382E+03  0.31482649076E+03  0.00000000000E+00 0. -1.
          1    1    1    2  502    0  0.16025632021E+03  0.12120230469E+03 -0.12977210600E+03  0.23919215356E+03  0.00000000000E+00 0. -1.
         22    1    1    2    0    0 -0.15401598591E+02 -0.20955394357E+02  0.85240305094E+02  0.89119287499E+02  0.00000000000E+00 0. -1.
         22    1    1    2    0    0  0.35210355804E+02 -0.41328335617E+02 -0.26238926966E+02  0.60301590104E+02  0.00000000000E+00 0.  1.
</event>
<event>
 6    1  0.2809573E-005  0.4975165E+03  0.7818608E-02  0.1111439E+00
          2   -1    0    0  502    0  0.00000000000E+00  0.00000000000E+00  0.21901662113E+03  0.21901662113E+03  0.00000000000E+00 0.  1.
          1   -1    0    0  501    0 -0.00000000000E+00 -0.00000000000E+00 -0.10437947750E+04  0.10437947750E+04  0.00000000000E+00 0.  1.
          2    1    1    2  501    0 -0.48083096566E+02 -0.26548880341E+03 -0.27085144578E+03  0.38230458353E+03  0.00000000000E+00 0.  1.
          1    1    1    2  502    0  0.10175073216E+03  0.20931082657E+03 -0.66008605869E+03  0.69991273633E+03  0.00000000000E+00 0.  1.
         22    1    1    2    0    0 -0.83925703946E+02  0.69980017045E+02  0.96957510259E+02  0.14608725257E+03  0.00000000000E+00 0.  1.
         22    1    1    2    0    0  0.30258068356E+02 -0.13802040202E+02  0.92018403564E+01  0.34506823677E+02  0.00000000000E+00 0.  1.
</event>
<event>
 6    1  0.3291315E-005  0.6346357E+02  0.7818608E-02  0.1393837E+00
          2   -1    0    0  502    0  0.00000000000E+00  0.00000000000E+00  0.14193640607E+03  0.14193640607E+03  0.00000000000E+00 0.  1.
          1   -1    0    0  501    0 -0.00000000000E+00 -0.00000000000E+00 -0.73400020792E+03  0.73400020792E+03  0.00000000000E+00 0.  1.
          2    1    1    2  501    0  0.60744029833E+02 -0.39716223957E+01 -0.10625384588E+03  0.12245607665E+03  0.00000000000E+00 0.  1.
          1    1    1    2  502    0 -0.20996996768E+02 -0.12763392595E+02 -0.58453714719E+03  0.58505337749E+03  0.00000000000E+00 0.  1.
         22    1    1    2    0    0  0.44586905146E+01 -0.13683376234E+02 -0.27627043295E+02  0.31150733979E+02  0.00000000000E+00 0.  1.
         22    1    1    2    0    0 -0.44205723580E+02  0.30418391225E+02  0.12635423451E+03  0.13727642588E+03  0.00000000000E+00 0.  1.
</event>
<event>
 6    1  0.2809573E-005  0.1665586E+03  0.7818608E-02  0.1189615E+00
          2   -1    0    0  502    0  0.00000000000E+00  0.00000000000E+00  0.51111232024E+02  0.51111232024E+02  0.00000000000E+00 0.  1.
          1   -1    0    0  501    0 -0.00000000000E+00 -0.00000000000E+00 -0.88888084761E+03  0.88888084761E+03  0.00000000000E+00 0.  1.
          2    1    1    2  501    0 -0.11489284424E+03  0.97268282676E+02 -0.32389690451E+03  0.35717039242E+03  0.00000000000E+00 0.  1.
          1    1    1    2  502    0  0.90641163982E+02  0.25781742770E+02 -0.24224242260E+03  0.25992674002E+03  0.00000000000E+00 0.  1.
         22    1    1    2    0    0 -0.45167842228E+02 -0.17938226457E+02 -0.73809250249E+02  0.88372616586E+02  0.00000000000E+00 0.  1.
         22    1    1    2    0    0  0.69419522488E+02 -0.10511179899E+03 -0.19782103823E+03  0.23452233061E+03  0.00000000000E+00 0.  1.
</event>
<event>
 6    1  0.2809573E-005  0.8921195E+02  0.7818608E-02  0.1356909E+00
          2   -1    0    0  502    0  0.00000000000E+00  0.00000000000E+00  0.21613215955E+03  0.21613215955E+03  0.00000000000E+00 0.  1.
          1   -1    0    0  501    0 -0.00000000000E+00 -0.00000000000E+00 -0.10737861382E+03  0.10737861382E+03  0.00000000000E+00 0.  1.
          2    1    1    2  501    0 -0.43352359366E+02 -0.29781349908E+01 -0.22429432240E+02  0.48901695075E+02  0.00000000000E+00 0.  1.
          1    1    1    2  502    0  0.67525881217E+02  0.19417087409E+01 -0.24124156883E+02  0.71732069622E+02  0.00000000000E+00 0.  1.
         22    1    1    2    0    0 -0.49083029842E+02  0.26580651102E+02  0.14571060780E+02  0.57688739315E+02  0.00000000000E+00 0.  1.
         22    1    1    2    0    0  0.24909507991E+02 -0.25544224852E+02  0.14073607408E+03  0.14518826936E+03  0.00000000000E+00 0.  1.
</event>
<event>
 6    1  0.2809573E-005  0.3175315E+03  0.7818608E-02  0.1168738E+00
          2   -1    0    0  502    0  0.00000000000E+00  0.00000000000E+00  0.51003802818E+03  0.51003802818E+03  0.00000000000E+00 0. -1.
          1   -1    0    0  501    0 -0.00000000000E+00 -0.00000000000E+00 -0.27748648134E+03  0.27748648134E+03  0.00000000000E+00 0. -1.
          2    1    1    2  501    0 -0.25960262766E+02  0.12153161993E+03  0.83752170601E+02  0.14986092208E+03  0.00000000000E+00 0. -1.
          1    1    1    2  502    0 -0.38006836460E+02  0.44554357474E+02 -0.21062156245E+03  0.21861164872E+03  0.00000000000E+00 0. -1.
         22    1    1    2    0    0  0.94553760507E+02 -0.15636810938E+03  0.29355183282E+03  0.34578038957E+03  0.00000000000E+00 0. -1.
         22    1    1    2    0    0 -0.30586661281E+02 -0.97178680335E+01  0.65869105860E+02  0.73271549146E+02  0.00000000000E+00 0. -1.
</event>
<event>
 6    1  0.2809573E-005  0.1053494E+03  0.7818608E-02  0.1341442E+00
          2   -1    0    0  502    0  0.00000000000E+00  0.00000000000E+00  0.15190608062E+03  0.15190608062E+03  0.00000000000E+00 0.  1.
          1   -1    0    0  501    0 -0.00000000000E+00 -0.00000000000E+00 -0.23457769310E+03  0.23457769310E+03  0.00000000000E+00 0.  1.
          2    1    1    2  501    0 -0.68901917641E+02  0.21983090167E+02 -0.17105090618E+03  0.18571252788E+03  0.00000000000E+00 0.  1.
          1    1    1    2  502    0  0.10306545255E+02 -0.18245241863E+02 -0.14473061323E+02  0.25467297261E+02  0.00000000000E+00 0.  1.
         22    1    1    2    0    0  0.30460321240E+02 -0.47028624678E+01 -0.27888967912E+02  0.41566123425E+02  0.00000000000E+00 0.  1.
         22    1    1    2    0    0  0.28135051146E+02  0.96501416387E+00  0.13074132293E+03  0.13373782515E+03  0.00000000000E+00 0.  1.
</event>
<event>
 6    1  0.2809573E-005  0.1250118E+03  0.7818608E-02  0.1239324E+00
          2   -1    0    0  502    0  0.00000000000E+00  0.00000000000E+00  0.68355458180E+02  0.68355458180E+02  0.00000000000E+00 0. -1.
          1   -1    0    0  501    0 -0.00000000000E+00 -0.00000000000E+00 -0.51714989459E+03  0.51714989459E+03  0.00000000000E+00 0. -1.
          2    1    1    2  501    0  0.88502288341E+01 -0.10061285961E+03 -0.16592594584E+03  0.19424905037E+03  0.00000000000E+00 0. -1.
          1    1    1    2  502    0 -0.37265773226E+02  0.29791937297E+02 -0.23447947455E+03  0.23928418536E+03  0.00000000000E+00 0. -1.
         22    1    1    2    0    0 -0.63336404816E+01 -0.33239972067E+02 -0.16955151328E+02  0.37848221905E+02  0.00000000000E+00 0.  1.
         22    1    1    2    0    0  0.34749184874E+02  0.10406089438E+03 -0.31433864698E+02  0.11412389513E+03  0.00000000000E+00 0. -1.
</event>
<event>
 6    1  0.2809573E-005  0.4761678E+03  0.7818608E-02  0.1120065E+00
          2   -1    0    0  502    0  0.00000000000E+00  0.00000000000E+00  0.17784096402E+03  0.17784096402E+03  0.00000000000E+00 0.  1.
          1   -1    0    0  501    0 -0.00000000000E+00 -0.00000000000E+00 -0.11418374270E+04  0.11418374270E+04  0.00000000000E+00 0.  1.
          2    1    1    2  501    0  0.60875665765E+02 -0.42727714548E+00 -0.35627340576E+03  0.36143708844E+03  0.00000000000E+00 0.  1.
          1    1    1    2  502    0 -0.54781985495E+01 -0.61440625296E+02 -0.75083510440E+03  0.75336466276E+03  0.00000000000E+00 0.  1.
         22    1    1    2    0    0 -0.75742442238E+02  0.84619589574E+02  0.12697191042E+03  0.17035039927E+03  0.00000000000E+00 0.  1.
         22    1    1    2    0    0  0.20344975023E+02 -0.22751687132E+02  0.16140136712E+02  0.34526240587E+02  0.00000000000E+00 0. -1.
</event>
<event>
 6    1  0.2809573E-005  0.9229246E+02  0.7818608E-02  0.1320334E+00
          2   -1    0    0  502    0  0.00000000000E+00  0.00000000000E+00  0.56144530997E+03  0.56144530997E+03  0.00000000000E+00 0. -1.
          1   -1    0    0  501    0 -0.00000000000E+00 -0.00000000000E+00 -0.15386368223E+03  0.15386368223E+03  0.00000000000E+00 0. -1.
          2    1    1    2  501    0  0.24335590285E+02 -0.52751878238E+02 -0.82130940059E+02  0.10060056127E+03  0.00000000000E+00 0. -1.
          1    1    1    2  502    0 -0.10702599028E+03  0.10616854543E+03  0.41246013048E+03  0.43914653804E+03  0.00000000000E+00 0. -1.
         22    1    1    2    0    0 -0.13928085902E+02  0.65117266699E+01 -0.20497629641E+02  0.25623172755E+02  0.00000000000E+00 0. -1.
         22    1    1    2    0    0  0.96618485895E+02 -0.59928393859E+02  0.97750066963E+02  0.14993872014E+03  0.00000000000E+00 0. -1.
</event>
<event>
 6    1  0.2809573E-005  0.8331930E+02  0.7818608E-02  0.1338772E+00
          2   -1    0    0  502    0  0.00000000000E+00  0.00000000000E+00  0.17778647913E+03  0.17778647913E+03  0.00000000000E+00 0. -1.
          1   -1    0    0  501    0 -0.00000000000E+00 -0.00000000000E+00 -0.56028926888E+03  0.56028926888E+03  0.00000000000E+00 0.  1.
          2    1    1    2  501    0  0.36777370015E+02 -0.47803043231E+01  0.22565869166E+02  0.43412494812E+02  0.00000000000E+00 0. -1.
          1    1    1    2  502    0 -0.65029582524E+02 -0.34949963335E+02 -0.51517248623E+03  0.52043543030E+03  0.00000000000E+00 0.  1.
         22    1    1    2    0    0 -0.21407289261E+02  0.55777475557E+02  0.89584833501E+01  0.60412359968E+02  0.00000000000E+00 0. -1.
         22    1    1    2    0    0  0.49659501769E+02 -0.16047207899E+02  0.10114534396E+03  0.11381546293E+03  0.00000000000E+00 0. -1.
</event>
<event>
 6    1  0.2809573E-005  0.2795784E+03  0.7818608E-02  0.1137982E+00
          2   -1    0    0  502    0  0.00000000000E+00  0.00000000000E+00  0.12580844981E+03  0.12580844981E+03  0.00000000000E+00 0.  1.
          1   -1    0    0  501    0 -0.00000000000E+00 -0.00000000000E+00 -0.14481140425E+04  0.14481140425E+04  0.00000000000E+00 0.  1.
          2    1    1    2  501    0 -0.84368320390E+02 -0.11130848462E+01 -0.24074635330E+03  0.25510401618E+03  0.00000000000E+00 0.  1.
          1    1    1    2  502    0  0.96703998855E+02  0.88844609095E+02 -0.11476944671E+04  0.11551829369E+04  0.00000000000E+00 0.  1.
         22    1    1    2    0    0 -0.17310234256E+02  0.91744805142E+01  0.63621274746E+02  0.66569376615E+02  0.00000000000E+00 0.  1.
         22    1    1    2    0    0  0.49745557909E+01 -0.96906004763E+02  0.25139529386E+01  0.97066162610E+02  0.00000000000E+00 0.  1.
</event>
<event>
 6    1  0.2809573E-005  0.4141709E+03  0.7818608E-02  0.1152137E+00
          2   -1    0    0  502    0  0.00000000000E+00  0.00000000000E+00  0.49377748734E+03  0.49377748734E+03  0.00000000000E+00 0.  1.
          1   -1    0    0  501    0 -0.00000000000E+00 -0.00000000000E+00 -0.66542715010E+03  0.66542715010E+03  0.00000000000E+00 0.  1.
          2    1    1    2  501    0 -0.92907763869E+02  0.91723436547E+02  0.11350407252E+03  0.17299773374E+03  0.00000000000E+00 0.  1.
          1    1    1    2  502    0  0.35301881509E+03 -0.20406137107E+03 -0.47374941998E+03  0.62506146890E+03  0.00000000000E+00 0.  1.
         22    1    1    2    0    0 -0.18834572362E+02 -0.99017544477E+01  0.56021522163E+02  0.59926595120E+02  0.00000000000E+00 0. -1.
         22    1    1    2    0    0 -0.24127647886E+03  0.12223968897E+03  0.13257416253E+03  0.30121883968E+03  0.00000000000E+00 0.  1.
</event>
<event>
 6    1  0.2809573E-005  0.9575031E+02  0.7818608E-02  0.1291842E+00
          2   -1    0    0  502    0  0.00000000000E+00  0.00000000000E+00  0.17912040598E+02  0.17912040598E+02  0.00000000000E+00 0. -1.
          1   -1    0    0  501    0 -0.00000000000E+00 -0.00000000000E+00 -0.11165678974E+04  0.11165678974E+04  0.00000000000E+00 0.  1.
          2    1    1    2  501    0  0.51440062782E+02 -0.44133768674E+02 -0.16111141466E+03  0.17478774994E+03  0.00000000000E+00 0. -1.
          1    1    1    2  502    0 -0.50240106574E+02  0.10751962351E+02 -0.54424990742E+03  0.54666958460E+03  0.00000000000E+00 0.  1.
         22    1    1    2    0    0 -0.21885171667E+02  0.75809041526E+02 -0.24276145021E+03  0.25526279247E+03  0.00000000000E+00 0.  1.
         22    1    1    2    0    0  0.20685215459E+02 -0.42427235203E+02 -0.15053308453E+03  0.15775981099E+03  0.00000000000E+00 0.  1.
</event>
<event>
 6    1  0.2809573E-005  0.1411711E+03  0.7818608E-02  0.1271995E+00
          2   -1    0    0  502    0  0.00000000000E+00  0.00000000000E+00  0.72421727780E+03  0.72421727780E+03  0.00000000000E+00 0.  1.
          1   -1    0    0  501    0 -0.00000000000E+00 -0.00000000000E+00 -0.16101373716E+03  0.16101373716E+03  0.00000000000E+00 0. -1.
          2    1    1    2  501    0 -0.41371111808E+02 -0.99890407271E+01  0.21924621710E+03  0.22333887601E+03  0.00000000000E+00 0.  1.
          1    1    1    2  502    0  0.12783294961E+02  0.10301024836E+03 -0.12695247014E+03  0.16398613835E+03  0.00000000000E+00 0. -1.
         22    1    1    2    0    0  0.31908286225E+02  0.26796489390E+02  0.11113440499E+03  0.11868886446E+03  0.00000000000E+00 0. -1.
         22    1    1    2    0    0 -0.33204693778E+01 -0.11981769702E+03  0.35977538869E+03  0.37921713615E+03  0.00000000000E+00 0. -1.
</event>
<event>
 6    1  0.2809573E-005  0.7910640E+02  0.7818608E-02  0.1338691E+00
          2   -1    0    0  502    0  0.00000000000E+00  0.00000000000E+00  0.44230682505E+03  0.44230682505E+03  0.00000000000E+00 0. -1.
          1   -1    0    0  501    0 -0.00000000000E+00 -0.00000000000E+00 -0.88726912523E+02  0.88726912523E+02  0.00000000000E+00 0. -1.
          2    1    1    2  501    0 -0.38302142125E+01 -0.44540962435E+02 -0.45296613812E+02  0.63642368737E+02  0.00000000000E+00 0. -1.
          1    1    1    2  502    0 -0.61005244848E+02  0.47663580376E+02  0.24281728496E+03  0.25486013942E+03  0.00000000000E+00 0. -1.
         22    1    1    2    0    0  0.15168423059E+01 -0.32745559401E+02 -0.83928562092E+01  0.33838033430E+02  0.00000000000E+00 0.  1.
         22    1    1    2    0    0  0.63318616755E+02  0.29622941460E+02  0.16445209759E+03  0.17869319598E+03  0.00000000000E+00 0. -1.
</event>
<event>
 6    1  0.2809573E-005  0.1519959E+03  0.7818608E-02  0.1199442E+00
          2   -1    0    0  502    0  0.00000000000E+00  0.00000000000E+00  0.45267204727E+03  0.45267204727E+03  0.00000000000E+00 0.  1.
          1   -1    0    0  501    0 -0.00000000000E+00 -0.00000000000E+00 -0.41532145223E+03  0.41532145223E+03  0.00000000000E+00 0. -1.
          2    1    1    2  501    0 -0.14320015545E+02 -0.11822972880E+03  0.12210253742E+03  0.17056483008E+03  0.00000000000E+00 0.  1.
          1    1    1    2  502    0  0.20809063767E+02 -0.63301236026E+01 -0.36498082043E+03  0.36562834529E+03  0.00000000000E+00 0. -1.
         22    1    1    2    0    0 -0.69386898458E+01  0.15032299580E+03  0.22283485508E+03  0.26888756223E+03  0.00000000000E+00 0.  1.
         22    1    1    2    0    0  0.44964162300E+00 -0.25763143400E+02  0.57394022976E+02  0.62912761892E+02  0.00000000000E+00 0. -1.
</event>
<event>
 6    1  0.2809573E-005  0.2191412E+03  0.7818608E-02  0.1256183E+00
          2   -1    0    0  502    0  0.00000000000E+00  0.00000000000E+00  0.36220790376E+02  0.36220790376E+02  0.00000000000E+00 0.  1.
          1   -1    0    0  501    0 -0.00000000000E+00 -0.00000000000E+00 -0.10949456385E+04  0.10949456385E+04  0.00000000000E+00 0. -1.
          2    1    1    2  501    0 -0.65104337704E+02 -0.64748334187E+02 -0.24331455909E+03  0.26006325429E+03  0.00000000000E+00 0.  1.
          1    1    1    2  502    0  0.78799538565E+02 -0.48817444323E+02 -0.54151641758E+03  0.54939288370E+03  0.00000000000E+00 0. -1.
         22    1    1    2    0    0 -0.58182999817E+01 -0.14008166327E+02  0.41233610578E+01  0.15718888159E+02  0.00000000000E+00 0. -1.
         22    1    1    2    0    0 -0.78769008796E+01  0.12757394484E+03 -0.27801723249E+03  0.30599140270E+03  0.00000000000E+00 0.  1.
</event>
<event>
 6    1  0.2809573E-005  0.7220017E+02  0.7818608E-02  0.1356080E+00
          2   -1    0    0  502    0  0.00000000000E+00  0.00000000000E+00  0.71107769623E+03  0.71107769623E+03  0.00000000000E+00 0. -1.
          1   -1    0    0  501    0 -0.00000000000E+00 -0.00000000000E+00 -0.28279624698E+02  0.28279624698E+02  0.00000000000E+00 0. -1.
          2    1    1    2  501    0 -0.20148145125E+02 -0.31992855376E+02  0.95047748049E+02  0.10229156835E+03  0.00000000000E+00 0. -1.
          1    1    1    2  502    0 -0.32399643703E+02  0.62847199590E+02  0.37215964968E+03  0.37881699045E+03  0.00000000000E+00 0. -1.
         22    1    1    2    0    0  0.82904485476E+02 -0.12309218021E+02  0.72553104200E+02  0.11085406393E+03  0.00000000000E+00 0. -1.
         22    1    1    2    0    0 -0.30356696648E+02 -0.18545126193E+02  0.14303756961E+03  0.14739469820E+03  0.00000000000E+00 0. -1.
</event>
<event>
 6    1  0.2809573E-005  0.8336191E+02  0.7818608E-02  0.1330436E+00
          2   -1    0    0  502    0  0.00000000000E+00  0.00000000000E+00  0.48360838891E+02  0.48360838891E+02  0.00000000000E+00 0. -1.
          1   -1    0    0  501    0 -0.00000000000E+00 -0.00000000000E+00 -0.33888516798E+03  0.33888516798E+03  0.00000000000E+00 0. -1.
          2    1    1    2  501    0 -0.39241166934E+02  0.34725908398E+02 -0.33143355631E+02  0.62001934799E+02  0.00000000000E+00 0. -1.
          1    1    1    2  502    0  0.29238249239E+02 -0.11760380209E+02 -0.17277834548E+03  0.17562897947E+03  0.00000000000E+00 0. -1.
         22    1    1    2    0    0 -0.83970882743E+01  0.38654413687E+02 -0.74730005320E+02  0.84553228703E+02  0.00000000000E+00 0. -1.
         22    1    1    2    0    0  0.18400005969E+02 -0.61619941875E+02 -0.98726226566E+01  0.65061863903E+02  0.00000000000E+00 0. -1.
</event>
<event>
 6    1  0.2809573E-005  0.1098279E+03  0.7818608E-02  0.1310235E+00
          2   -1    0    0  502    0  0.00000000000E+00  0.00000000000E+00  0.27510231649E+03  0.27510231649E+03  0.00000000000E+00 0.  1.
          1   -1    0    0  501    0 -0.00000000000E+00 -0.00000000000E+00 -0.11652079280E+03  0.11652079280E+03  0.00000000000E+00 0.  1.
          2    1    1    2  501    0  0.47574680039E+02  0.72897183830E+02  0.16148055146E+02  0.88533097067E+02  0.00000000000E+00 0.  1.
          1    1    1    2  502    0 -0.17568946991E+02 -0.85880510516E+02 -0.27287587256E+02  0.91808182659E+02  0.00000000000E+00 0.  1.
         22    1    1    2    0    0 -0.22611484419E+02 -0.36907379608E+02  0.15165086426E+03  0.15770674852E+03  0.00000000000E+00 0.  1.
         22    1    1    2    0    0 -0.73942486293E+01  0.49890706294E+02  0.18070191534E+02  0.53575081049E+02  0.00000000000E+00 0.  1.
</event>
<event>
 6    1  0.2809573E-005  0.2691820E+03  0.7818608E-02  0.1167616E+00
          2   -1    0    0  502    0  0.00000000000E+00  0.00000000000E+00  0.18079591566E+03  0.18079591566E+03  0.00000000000E+00 0.  1.
          1   -1    0    0  501    0 -0.00000000000E+00 -0.00000000000E+00 -0.61515941640E+03  0.61515941640E+03  0.00000000000E+00 0. -1.
          2    1    1    2  501    0 -0.70180785050E+02  0.39586043324E+02 -0.97716696465E+02  0.12665287278E+03  0.00000000000E+00 0.  1.
          1    1    1    2  502    0  0.25626870408E+02 -0.92638399054E+02 -0.46533224102E+03  0.47515545245E+03  0.00000000000E+00 0. -1.
         22    1    1    2    0    0 -0.41524529942E+02  0.34603030665E+02  0.29686266467E+02  0.61667906847E+02  0.00000000000E+00 0.  1.
         22    1    1    2    0    0  0.86078444583E+02  0.18449325064E+02  0.98999170267E+02  0.13247909998E+03  0.00000000000E+00 0.  1.
</event>
<event>
 6    1  0.2809573E-005  0.4980512E+02  0.7818608E-02  0.1448672E+00
          2   -1    0    0  502    0  0.00000000000E+00  0.00000000000E+00  0.59093672404E+02  0.59093672404E+02  0.00000000000E+00 0. -1.
          1   -1    0    0  501    0 -0.00000000000E+00 -0.00000000000E+00 -0.45605996545E+03  0.45605996545E+03  0.00000000000E+00 0. -1.
          2    1    1    2  501    0 -0.31915812983E+02 -0.10271268094E+02  0.21221944202E+02  0.39679830926E+02  0.00000000000E+00 0. -1.
          1    1    1    2  502    0  0.68792569798E+01  0.30712921192E+02 -0.29447682298E+03  0.29615402576E+03  0.00000000000E+00 0. -1.
         22    1    1    2    0    0  0.40171335406E+02 -0.16127415236E+02 -0.14586082587E+03  0.15214864519E+03  0.00000000000E+00 0. -1.
         22    1    1    2    0    0 -0.15134779403E+02 -0.43142378630E+01  0.22149411598E+02  0.27171135973E+02  0.00000000000E+00 0. -1.
</event>
<event>
 6    1  0.2809573E-005  0.1315091E+03  0.7818608E-02  0.1297952E+00
          2   -1    0    0  502    0  0.00000000000E+00  0.00000000000E+00  0.81145924908E+02  0.81145924908E+02  0.00000000000E+00 0. -1.
          1   -1    0    0  501    0 -0.00000000000E+00 -0.00000000000E+00 -0.17438208438E+04  0.17438208438E+04  0.00000000000E+00 0. -1.
          2    1    1    2  501    0  0.15559239642E+02  0.39958305958E+02 -0.44892790658E+02  0.62081549645E+02  0.00000000000E+00 0. -1.
          1    1    1    2  502    0 -0.90808783015E+02 -0.87236732356E+02 -0.16031097779E+04  0.16080477115E+04  0.00000000000E+00 0. -1.
         22    1    1    2    0    0  0.62353445280E+02  0.76096735821E+02 -0.47538274703E+02  0.10926368520E+03  0.00000000000E+00 0. -1.
         22    1    1    2    0    0  0.12896098093E+02 -0.28818309423E+02  0.32865924331E+02  0.45573822378E+02  0.00000000000E+00 0. -1.
</event>
<event>
 6    1  0.2809573E-005  0.2349974E+03  0.7818608E-02  0.1191555E+00
          2   -1    0    0  502    0  0.00000000000E+00  0.00000000000E+00  0.53495793192E+03  0.53495793192E+03  0.00000000000E+00 0.  1.
          1   -1    0    0  501    0 -0.00000000000E+00 -0.00000000000E+00 -0.30535151082E+03  0.30535151082E+03  0.00000000000E+00 0.  1.
          2    1    1    2  501    0  0.24485629738E+02  0.10445574343E+03  0.62219902748E+02  0.12402364572E+03  0.00000000000E+00 0.  1.
          1    1    1    2  502    0  0.32010660540E+01 -0.15913256432E+03 -0.23919299700E+03  0.28730943191E+03  0.00000000000E+00 0.  1.
         22    1    1    2    0    0 -0.46392718156E+02 -0.97669872669E+01  0.62676240149E+02  0.78587463487E+02  0.00000000000E+00 0.  1.
         22    1    1    2    0    0  0.18706022364E+02  0.64443808157E+02  0.34390327520E+03  0.35038890162E+03  0.00000000000E+00 0.  1.
</event>
<event>
 6    1  0.2809573E-005  0.8215046E+02  0.7818608E-02  0.1326103E+00
          2   -1    0    0  502    0  0.00000000000E+00  0.00000000000E+00  0.54604472125E+03  0.54604472125E+03  0.00000000000E+00 0.  1.
          1   -1    0    0  501    0 -0.00000000000E+00 -0.00000000000E+00 -0.27503098235E+02  0.27503098235E+02  0.00000000000E+00 0.  1.
          2    1    1    2  501    0 -0.33088224325E+02  0.81364066075E+01  0.16233329631E+03  0.16587082562E+03  0.00000000000E+00 0.  1.
          1    1    1    2  502    0  0.13226333150E+02  0.54096865171E+02  0.82236254745E+02  0.99318720815E+02  0.00000000000E+00 0.  1.
         22    1    1    2    0    0  0.67681019828E+02 -0.49456409785E+02  0.11816386826E+03  0.14487703985E+03  0.00000000000E+00 0.  1.
         22    1    1    2    0    0 -0.47819128652E+02 -0.12776861994E+02  0.15580820370E+03  0.16348123320E+03  0.00000000000E+00 0. -1.
</event>
<event>
 6    1  0.2809573E-005  0.8357887E+02  0.7818608E-02  0.1326221E+00
          2   -1    0    0  502    0  0.00000000000E+00  0.00000000000E+00  0.61049891469E+03  0.61049891469E+03  0.00000000000E+00 0. -1.
          1   -1    0    0  501    0 -0.00000000000E+00 -0.00000000000E+00 -0.11925761622E+04  0.11925761622E+04  0.00000000000E+00 0.  1.
          2    1    1    2  501    0  0.33547640670E+02 -0.49182986671E+01  0.82356685759E+02  0.89063222183E+02  0.00000000000E+00 0. -1.
          1    1    1    2  502    0 -0.38289829406E+02 -0.21609083942E+02 -0.11811987883E+04  0.11820167685E+04  0.00000000000E+00 0.  1.
         22    1    1    2    0    0 -0.56456784709E+02  0.17486822266E+02  0.17595377720E+03  0.18561489489E+03  0.00000000000E+00 0. -1.
         22    1    1    2    0    0  0.61198973446E+02  0.90405603425E+01  0.34081107789E+03  0.34638019125E+03  0.00000000000E+00 0. -1.
</event>
<event>
 6    1  0.2809573E-005  0.1614716E+03  0.7818608E-02  0.1273400E+00
          2   -1    0    0  502    0  0.00000000000E+00  0.00000000000E+00  0.45007075411E+02  0.45007075411E+02  0.00000000000E+00 0. -1.
          1   -1    0    0  501    0 -0.00000000000E+00 -0.00000000000E+00 -0.51749639812E+03  0.51749639812E+03  0.00000000000E+00 0. -1.
          2    1    1    2  501    0  0.47189758337E+02  0.62325648415E+02 -0.96537294988E+02  0.12422080770E+03  0.00000000000E+00 0. -1.
          1    1    1    2  502    0  0.27443079904E+01 -0.86271346140E+02 -0.19758800645E+03  0.21561840525E+03  0.00000000000E+00 0. -1.
         22    1    1    2    0    0  0.27085059996E+02  0.94957306042E+00 -0.83632818192E-01  0.27101829430E+02  0.00000000000E+00 0. -1.
         22    1    1    2    0    0 -0.77019126323E+02  0.22996124664E+02 -0.17828038846E+03  0.19556243115E+03  0.00000000000E+00 0. -1.
</event>
<event>
 6    1  0.2809573E-005  0.1319689E+03  0.7818608E-02  0.1225346E+00
          2   -1    0    0  502    0  0.00000000000E+00  0.00000000000E+00  0.71253809814E+03  0.71253809814E+03  0.00000000000E+00 0.  1.
          1   -1    0    0  501    0 -0.00000000000E+00 -0.00000000000E+00 -0.10605159724E+03  0.10605159724E+03  0.00000000000E+00 0. -1.
          2    1    1    2  501    0  0.90831716587E+02 -0.24463614798E+02  0.24678019872E+03  0.26410099520E+03  0.00000000000E+00 0.  1.
          1    1    1    2  502    0  0.34804243918E+02  0.28142419783E+02 -0.73968387948E+02  0.86456079032E+02  0.00000000000E+00 0. -1.
         22    1    1    2    0    0  0.24459561804E+02  0.50031521129E+01  0.77638167690E+02  0.81553582245E+02  0.00000000000E+00 0.  1.
         22    1    1    2    0    0 -0.15009552231E+03 -0.86819570975E+01  0.35603652244E+03  0.38647903890E+03  0.00000000000E+00 0.  1.
</event>
<event>
 6    1  0.2809573E-005  0.9976452E+02  0.7818608E-02  0.1329530E+00
          2   -1    0    0  502    0  0.00000000000E+00  0.00000000000E+00  0.21178157419E+03  0.21178157419E+03  0.00000000000E+00 0. -1.
          1   -1    0    0  501    0 -0.00000000000E+00 -0.00000000000E+00 -0.57797492769E+03  0.57797492769E+03  0.00000000000E+00 0.  1.
          2    1    1    2  501    0 -0.31135775778E+02  0.23577661718E+01  0.68479083300E+02  0.75262078394E+02  0.00000000000E+00 0. -1.
          1    1    1    2  502    0  0.70419050462E+02 -0.22154586138E+02 -0.54003458177E+03  0.54505689415E+03  0.00000000000E+00 0.  1.
         22    1    1    2    0    0  0.21262125691E+02 -0.34943942871E+02  0.68708241917E+02  0.79962363894E+02  0.00000000000E+00 0. -1.
         22    1    1    2    0    0 -0.60545400374E+02  0.54740762838E+02  0.36653903047E+02  0.89475165443E+02  0.00000000000E+00 0. -1.
</event>
<event>
 6    1  0.2809573E-005  0.7832350E+02  0.7818608E-02  0.1336883E+00
          2   -1    0    0  502    0  0.00000000000E+00  0.00000000000E+00  0.26992315643E+03  0.26992315643E+03  0.00000000000E+00 0. -1.
          1   -1    0    0  501    0 -0.00000000000E+00 -0.00000000000E+00 -0.47532084204E+02  0.47532084204E+02  0.00000000000E+00 0. -1.
          2    1    1    2  501    0 -0.24036501438E+02 -0.16190692853E+02  0.39488222009E+02  0.48981747762E+02  0.00000000000E+00 0. -1.
          1    1    1    2  502    0  0.30924861866E+02  0.13140906846E+02 -0.11772979219E+02  0.35603841841E+02  0.00000000000E+00 0. -1.
         22    1    1    2    0    0 -0.33205275454E+02 -0.50794451389E+02  0.13633459770E+03  0.14923065750E+03  0.00000000000E+00 0. -1.
         22    1    1    2    0    0  0.26316915026E+02  0.53844237395E+02  0.58341231734E+02  0.83638993522E+02  0.00000000000E+00 0. -1.
</event>
<event>
 6    1  0.2809573E-005  0.8224386E+02  0.7818608E-02  0.1396916E+00
          2   -1    0    0  502    0  0.00000000000E+00  0.00000000000E+00  0.64722140607E+02  0.64722140607E+02  0.00000000000E+00 0. -1.
          1   -1    0    0  501    0 -0.00000000000E+00 -0.00000000000E+00 -0.66042039986E+03  0.66042039986E+03  0.00000000000E+00 0. -1.
          2    1    1    2  501    0 -0.33096789888E+02  0.13196209888E+02 -0.22264666396E+03  0.22547965413E+03  0.00000000000E+00 0. -1.
          1    1    1    2  502    0  0.56927085344E+02  0.34658910119E+02 -0.35500898127E+03  0.36121089391E+03  0.00000000000E+00 0. -1.
         22    1    1    2    0    0 -0.40260639907E+00 -0.23634991473E+02  0.53984120915E+02  0.58932675358E+02  0.00000000000E+00 0. -1.
         22    1    1    2    0    0 -0.23427689056E+02 -0.24220128534E+02 -0.72026734947E+02  0.79519317073E+02  0.00000000000E+00 0. -1.
</event>
<event>
 6    1  0.2809573E-005  0.9533235E+02  0.7818608E-02  0.1394999E+00
          2   -1    0    0  502    0  0.00000000000E+00  0.00000000000E+00  0.10318799750E+03  0.10318799750E+03  0.00000000000E+00 0. -1.
          1   -1    0    0  501    0 -0.00000000000E+00 -0.00000000000E+00 -0.18461819821E+03  0.18461819821E+03  0.00000000000E+00 0.  1.
          2    1    1    2  501    0  0.17338786700E+02 -0.55013393629E+02 -0.17002680576E+02  0.60134833080E+02  0.00000000000E+00 0. -1.
          1    1    1    2  502    0 -0.11523559119E+02  0.60839379981E+02 -0.85383815659E+02  0.10547330728E+03  0.00000000000E+00 0.  1.
         22    1    1    2    0    0  0.57665323887E+01 -0.14547192478E+02  0.69652882126E+02  0.71389058639E+02  0.00000000000E+00 0. -1.
         22    1    1    2    0    0 -0.11581759970E+02  0.87212061261E+01 -0.48696586606E+02  0.50808996717E+02  0.00000000000E+00 0.  1.
</event>
<event>
 6    1  0.2809573E-005  0.1393190E+03  0.7818608E-02  0.1243577E+00
          2   -1    0    0  502    0  0.00000000000E+00  0.00000000000E+00  0.64550433861E+03  0.64550433861E+03  0.00000000000E+00 0. -1.
          1   -1    0    0  501    0 -0.00000000000E+00 -0.00000000000E+00 -0.15665159540E+03  0.15665159540E+03  0.00000000000E+00 0. -1.
          2    1    1    2  501    0 -0.49775400075E+02  0.51808256695E+02  0.18409306265E+03  0.19761564116E+03  0.00000000000E+00 0. -1.
          1    1    1    2  502    0  0.12012127777E+03 -0.45757432030E+02 -0.10828803553E+03  0.16807487200E+03  0.00000000000E+00 0. -1.
         22    1    1    2    0    0  0.12398197405E+01  0.19300256215E+02  0.31533307948E+01  0.19595421354E+02  0.00000000000E+00 0. -1.
         22    1    1    2    0    0 -0.71585697436E+02 -0.25351080880E+02  0.40989438529E+03  0.41686999949E+03  0.00000000000E+00 0. -1.
</event>
<event>
 6    1  0.2809573E-005  0.3283947E+02  0.7818608E-02  0.1604359E+00
          2   -1    0    0  502    0  0.00000000000E+00  0.00000000000E+00  0.39678938806E+02  0.39678938806E+02  0.00000000000E+00 0. -1.
          1   -1    0    0  501    0 -0.00000000000E+00 -0.00000000000E+00 -0.19929039587E+04  0.19929039587E+04  0.00000000000E+00 0.  1.
          2    1    1    2  501    0 -0.64394408525E+01 -0.18954614850E+02 -0.84968374576E+02  0.87294722067E+02  0.00000000000E+00 0. -1.
          1    1    1    2  502    0 -0.42971878816E+01  0.29575404219E+02 -0.18064885378E+04  0.18067357326E+04  0.00000000000E+00 0.  1.
         22    1    1    2    0    0  0.84621631001E+01  0.19450887158E+02  0.32928751380E+02  0.39169476420E+02  0.00000000000E+00 0. -1.
         22    1    1    2    0    0  0.22744656340E+01 -0.30071676527E+02 -0.94696858882E+02  0.99382966373E+02  0.00000000000E+00 0. -1.
</event>
<event>
 6    1  0.2809573E-005  0.1627715E+03  0.7818608E-02  0.1232856E+00
          2   -1    0    0  502    0  0.00000000000E+00  0.00000000000E+00  0.39046398874E+02  0.39046398874E+02  0.00000000000E+00 0. -1.
          1   -1    0    0  501    0 -0.00000000000E+00 -0.00000000000E+00 -0.75483522401E+03  0.75483522401E+03  0.00000000000E+00 0. -1.
          2    1    1    2  501    0 -0.84038644686E+02  0.32124154922E+02 -0.17962902497E+03  0.20090057676E+03  0.00000000000E+00 0. -1.
          1    1    1    2  502    0  0.47534974789E+02 -0.31839246534E+02 -0.39709755693E+03  0.40119793266E+03  0.00000000000E+00 0. -1.
         22    1    1    2    0    0  0.14567663232E+02  0.61214231424E+02 -0.91306046220E+02  0.11088820053E+03  0.00000000000E+00 0. -1.
         22    1    1    2    0    0  0.21936006664E+02 -0.61499139812E+02 -0.47756197022E+02  0.80894912943E+02  0.00000000000E+00 0. -1.
</event>
<event>
 6    1  0.2809573E-005  0.5444861E+02  0.7818608E-02  0.1456865E+00
          2   -1    0    0  502    0  0.00000000000E+00  0.00000000000E+00  0.51296674124E+02  0.51296674124E+02  0.00000000000E+00 0. -1.
          1   -1    0    0  501    0 -0.00000000000E+00 -0.00000000000E+00 -0.47134350092E+03  0.47134350092E+03  0.00000000000E+00 0. -1.
          2    1    1    2  501    0  0.36975426816E+01  0.41202019526E+02 -0.10765620232E+03  0.11533055160E+03  0.00000000000E+00 0. -1.
          1    1    1    2  502    0  0.90454743973E+01 -0.20422827518E+02 -0.27340861605E+03  0.27431949223E+03  0.00000000000E+00 0. -1.
         22    1    1    2    0    0 -0.28488458530E+02 -0.15879220781E+02  0.40395078373E+02  0.51918246107E+02  0.00000000000E+00 0. -1.
         22    1    1    2    0    0  0.15745441451E+02 -0.48999712268E+01 -0.79377086798E+02  0.81071885096E+02  0.00000000000E+00 0. -1.
</event>
<event>
 6    1  0.2809573E-005  0.2343539E+03  0.7818608E-02  0.1257714E+00
          2   -1    0    0  502    0  0.00000000000E+00  0.00000000000E+00  0.10721948333E+03  0.10721948333E+03  0.00000000000E+00 0.  1.
          1   -1    0    0  501    0 -0.00000000000E+00 -0.00000000000E+00 -0.10728095651E+04  0.10728095651E+04  0.00000000000E+00 0.  1.
          2    1    1    2  501    0 -0.38547408138E+02 -0.19654044248E+03 -0.61124730609E+03  0.64322415798E+03  0.00000000000E+00 0.  1.
          1    1    1    2  502    0  0.30609133664E+02  0.21721854102E+03 -0.35175681019E+03  0.41455236960E+03  0.00000000000E+00 0.  1.
         22    1    1    2    0    0 -0.10371311946E+02  0.61013235219E+01  0.54922529780E+02  0.56225212651E+02  0.00000000000E+00 0. -1.
         22    1    1    2    0    0  0.18309586420E+02 -0.26779422064E+02 -0.57508495309E+02  0.66027308242E+02  0.00000000000E+00 0. -1.
</event>
<event>
 6    1  0.2809573E-005  0.1026164E+03  0.7818608E-02  0.1302955E+00
          2   -1    0    0  502    0  0.00000000000E+00  0.00000000000E+00  0.34454862608E+03  0.34454862608E+03  0.00000000000E+00 0.  1.
          1   -1    0    0  501    0 -0.00000000000E+00 -0.00000000000E+00 -0.27860985789E+03  0.27860985789E+03  0.00000000000E+00 0.  1.
          2    1    1    2  501    0 -0.19208714069E+02  0.55031526134E+02  0.12740831741E+03  0.14010825425E+03  0.00000000000E+00 0.  1.
          1    1    1    2  502    0  0.20391972304E+02 -0.18466096838E+02 -0.25240931319E+03  0.25390409735E+03  0.00000000000E+00 0.  1.
         22    1    1    2    0    0 -0.44638930771E+02 -0.39965629352E+02  0.40005517299E+02  0.72043924686E+02  0.00000000000E+00 0.  1.
         22    1    1    2    0    0  0.43455672535E+02  0.34002000558E+01  0.15093424668E+03  0.15710220767E+03  0.00000000000E+00 0.  1.
</event>
<event>
 6    1  0.2809573E-005  0.1366984E+03  0.7818608E-02  0.1284872E+00
          2   -1    0    0  502    0  0.00000000000E+00  0.00000000000E+00  0.75019081550E+03  0.75019081550E+03  0.00000000000E+00 0.  1.
          1   -1    0    0  501    0 -0.00000000000E+00 -0.00000000000E+00 -0.29493194645E+02  0.29493194645E+02  0.00000000000E+00 0.  1.
          2    1    1    2  501    0 -0.26658409192E+02 -0.38817926370E+02  0.33860746508E+03  0.34186622763E+03  0.00000000000E+00 0.  1.
          1    1    1    2  502    0  0.29426647980E+02 -0.50814469215E+02  0.13283008772E+03  0.14523040349E+03  0.00000000000E+00 0.  1.
         22    1    1    2    0    0  0.32969777792E+02  0.14195240787E+02  0.72967892276E+01  0.36629963714E+02  0.00000000000E+00 0.  1.
         22    1    1    2    0    0 -0.35738016580E+02  0.75437154798E+02  0.24196327883E+03  0.25595741531E+03  0.00000000000E+00 0.  1.
</event>
<event>
 6    1  0.2809573E-005  0.2808166E+03  0.7818608E-02  0.1210864E+00
          2   -1    0    0  502    0  0.00000000000E+00  0.00000000000E+00  0.16064130092E+03  0.16064130092E+03  0.00000000000E+00 0.  1.
          1   -1    0    0  501    0 -0.00000000000E+00 -0.00000000000E+00 -0.99769349770E+03  0.99769349770E+03  0.00000000000E+00 0.  1.
          2    1    1    2  501    0  0.12597646302E+03  0.23639878691E+03 -0.37689510362E+03  0.46238985155E+03  0.00000000000E+00 0.  1.
          1    1    1    2  502    0 -0.11982621887E+03 -0.24369628197E+03 -0.49264843127E+03  0.56253771199E+03  0.00000000000E+00 0.  1.
         22    1    1    2    0    0 -0.17372722644E+02 -0.56933509739E+01  0.80433079915E+02  0.82484580875E+02  0.00000000000E+00 0.  1.
         22    1    1    2    0    0  0.11222478493E+02  0.12990846038E+02 -0.47941741795E+02  0.50922654199E+02  0.00000000000E+00 0. -1.
</event>
<event>
 6    1  0.2809573E-005  0.2412234E+03  0.7818608E-02  0.1220537E+00
          2   -1    0    0  502    0  0.00000000000E+00  0.00000000000E+00  0.92399637997E+02  0.92399637997E+02  0.00000000000E+00 0.  1.
          1   -1    0    0  501    0 -0.00000000000E+00 -0.00000000000E+00 -0.46634901933E+03  0.46634901933E+03  0.00000000000E+00 0.  1.
          2    1    1    2  501    0 -0.37957240675E+02 -0.68873772936E+02 -0.51222824967E+02  0.93851619675E+02  0.00000000000E+00 0.  1.
          1    1    1    2  502    0  0.26325875441E+02 -0.81329759275E+02  0.35774381058E+01  0.85559216481E+02  0.00000000000E+00 0.  1.
         22    1    1    2    0    0 -0.13308648358E+02  0.19375818878E+02  0.33993184371E+01  0.23750744076E+02  0.00000000000E+00 0. -1.
         22    1    1    2    0    0  0.24940013592E+02  0.13082771333E+03 -0.32970331291E+03  0.35558707710E+03  0.00000000000E+00 0.  1.
</event>
<event>
 6    1  0.2809573E-005  0.2512210E+03  0.7818608E-02  0.1144724E+00
          2   -1    0    0  502    0  0.00000000000E+00  0.00000000000E+00  0.97231953455E+02  0.97231953455E+02  0.00000000000E+00 0. -1.
          1   -1    0    0  501    0 -0.00000000000E+00 -0.00000000000E+00 -0.11289494182E+04  0.11289494182E+04  0.00000000000E+00 0.  1.
          2    1    1    2  501    0 -0.93930020951E+02  0.21630918585E+03 -0.58831655317E+03  0.63382085754E+03  0.00000000000E+00 0. -1.
          1    1    1    2  502    0  0.60029825002E+01 -0.23142049230E+03 -0.31656032885E+03  0.39217588128E+03  0.00000000000E+00 0.  1.
         22    1    1    2    0    0 -0.23677358422E+02 -0.66845282675E+01 -0.67658583231E+02  0.71992944826E+02  0.00000000000E+00 0.  1.
         22    1    1    2    0    0  0.11160439687E+03  0.21795834725E+02 -0.59181999508E+02  0.12819168802E+03  0.00000000000E+00 0. -1.
</event>
<event>
 6    1  0.2809573E-005  0.3766110E+03  0.7818608E-02  0.1130585E+00
          2   -1    0    0  502    0  0.00000000000E+00  0.00000000000E+00  0.12738900726E+04  0.12738900726E+04  0.00000000000E+00 0. -1.
          1   -1    0    0  501    0 -0.00000000000E+00 -0.00000000000E+00 -0.23379423047E+03  0.23379423047E+03  0.00000000000E+00 0.  1.
          2    1    1    2  501    0 -0.21193519412E+03  0.43875945986E+02  0.70712239050E+03  0.73950233285E+03  0.00000000000E+00 0. -1.
          1    1    1    2  502    0  0.39380966544E+02  0.33447181870E+01 -0.19363079585E+03  0.19762320908E+03  0.00000000000E+00 0.  1.
         22    1    1    2    0    0  0.27603671586E+02  0.29864254509E+02  0.40148246503E+02  0.57146461655E+02  0.00000000000E+00 0. -1.
         22    1    1    2    0    0  0.14495055599E+03 -0.77084918682E+02  0.48645600103E+03  0.51341229953E+03  0.00000000000E+00 0. -1.
</event>
<event>
 6    1  0.2809573E-005  0.1159852E+03  0.7818608E-02  0.1275106E+00
          2   -1    0    0  502    0  0.00000000000E+00  0.00000000000E+00  0.99321334591E+02  0.99321334591E+02  0.00000000000E+00 0.  1.
          1   -1    0    0  501    0 -0.00000000000E+00 -0.00000000000E+00 -0.14170943895E+04  0.14170943895E+04  0.00000000000E+00 0.  1.
          2    1    1    2  501    0  0.52916314559E+02 -0.12621596631E+02 -0.31389283729E+02  0.62807071107E+02  0.00000000000E+00 0.  1.
          1    1    1    2  502    0 -0.25777668778E+02  0.35004418185E+02 -0.13223357421E+04  0.13230501171E+04  0.00000000000E+00 0.  1.
         22    1    1    2    0    0  0.15767943173E+02 -0.60222698122E+02  0.38669647783E+02  0.73285353657E+02  0.00000000000E+00 0.  1.
         22    1    1    2    0    0 -0.42906588954E+02  0.37839876567E+02 -0.27176768470E+01  0.57273182221E+02  0.00000000000E+00 0.  1.
</event>
<event>
 6    1  0.2809573E-005  0.1968689E+03  0.7818608E-02  0.1152755E+00
          2   -1    0    0  502    0  0.00000000000E+00  0.00000000000E+00  0.81304290182E+03  0.81304290182E+03  0.00000000000E+00 0. -1.
          1   -1    0    0  501    0 -0.00000000000E+00 -0.00000000000E+00 -0.88957192044E+02  0.88957192044E+02  0.00000000000E+00 0. -1.
          2    1    1    2  501    0  0.25923856742E+02 -0.16412752731E+03  0.28837939895E+03  0.33282513322E+03  0.00000000000E+00 0. -1.
          1    1    1    2  502    0  0.13282363437E+02 -0.18065275975E+02 -0.38052512980E+02  0.44167512026E+02  0.00000000000E+00 0. -1.
         22    1    1    2    0    0 -0.35699515236E+02  0.20137872386E+03  0.44980370556E+03  0.49411660501E+03  0.00000000000E+00 0. -1.
         22    1    1    2    0    0 -0.35067049422E+01 -0.19185920583E+02  0.23955118248E+02  0.30890843602E+02  0.00000000000E+00 0. -1.
</event>
<event>
 6    1  0.2809573E-005  0.5698296E+02  0.7818608E-02  0.1452630E+00
          2   -1    0    0  502    0  0.00000000000E+00  0.00000000000E+00  0.27928681055E+03  0.27928681055E+03  0.00000000000E+00 0. -1.
          1   -1    0    0  501    0 -0.00000000000E+00 -0.00000000000E+00 -0.11445440615E+03  0.11445440615E+03  0.00000000000E+00 0.  1.
          2    1    1    2  501    0 -0.29263104199E+02 -0.11955337037E+02  0.70967455076E+02  0.77689375278E+02  0.00000000000E+00 0. -1.
          1    1    1    2  502    0  0.52576356372E+02  0.78289586095E+01 -0.83976182376E+02  0.99385939894E+02  0.00000000000E+00 0.  1.
         22    1    1    2    0    0  0.24337440230E+02  0.18107564192E+02 -0.17013047984E+01  0.30382384961E+02  0.00000000000E+00 0. -1.
         22    1    1    2    0    0 -0.47650692403E+02 -0.13981185764E+02  0.17954243649E+03  0.18628351657E+03  0.00000000000E+00 0. -1.
</event>
<event>
 6    1  0.2809573E-005  0.1137210E+03  0.7818608E-02  0.1306007E+00
          2   -1    0    0  502    0  0.00000000000E+00  0.00000000000E+00  0.89824173390E+02  0.89824173390E+02  0.00000000000E+00 0. -1.
          1   -1    0    0  501    0 -0.00000000000E+00 -0.00000000000E+00 -0.41651677924E+03  0.41651677924E+03  0.00000000000E+00 0. -1.
          2    1    1    2  501    0 -0.31170918412E+02 -0.12252193881E+02 -0.38312266455E+02  0.50887839122E+02  0.00000000000E+00 0. -1.
          1    1    1    2  502    0 -0.17641973525E+00  0.22924559714E+02 -0.32347574075E+03  0.32428709721E+03  0.00000000000E+00 0. -1.
         22    1    1    2    0    0 -0.38154008350E+02 -0.19999075697E+02  0.42670330689E+02  0.60633724140E+02  0.00000000000E+00 0. -1.
         22    1    1    2    0    0  0.69501346498E+02  0.93267098639E+01 -0.75749293275E+01  0.70532292152E+02  0.00000000000E+00 0. -1.
</event>
<event>
 6    1  0.2809573E-005  0.1576127E+03  0.7818608E-02  0.1301668E+00
          2   -1    0    0  502    0  0.00000000000E+00  0.00000000000E+00  0.18000428519E+02  0.18000428519E+02  0.00000000000E+00 0. -1.
          1   -1    0    0  501    0 -0.00000000000E+00 -0.00000000000E+00 -0.27730048354E+04  0.27730048354E+04  0.00000000000E+00 0.  1.
          2    1    1    2  501    0 -0.47687439999E+02 -0.15495792578E+01 -0.18974858815E+03  0.19565535984E+03  0.00000000000E+00 0. -1.
          1    1    1    2  502    0  0.30607635168E+00  0.90179203350E+02 -0.21283156327E+04  0.21302252967E+04  0.00000000000E+00 0.  1.
         22    1    1    2    0    0  0.58993740174E+02 -0.10121673141E+03 -0.43155218095E+03  0.44717152523E+03  0.00000000000E+00 0.  1.
         22    1    1    2    0    0 -0.11612376526E+02  0.12587107315E+02 -0.53880050901E+01  0.17953082131E+02  0.00000000000E+00 0. -1.
</event>
<event>
 6    1  0.2809573E-005  0.2353453E+03  0.7818608E-02  0.1261274E+00
          2   -1    0    0  502    0  0.00000000000E+00  0.00000000000E+00  0.12997136861E+03  0.12997136861E+03  0.00000000000E+00 0. -1.
          1   -1    0    0  501    0 -0.00000000000E+00 -0.00000000000E+00 -0.36102988863E+03  0.36102988863E+03  0.00000000000E+00 0. -1.
          2    1    1    2  501    0 -0.45077883244E+02 -0.86253434352E+02 -0.24436828731E+02  0.10034355532E+03  0.00000000000E+00 0. -1.
          1    1    1    2  502    0 -0.52758453616E+01 -0.35872683769E+02 -0.20319962260E+03  0.20640923093E+03  0.00000000000E+00 0. -1.
         22    1    1    2    0    0  0.49710467106E+01 -0.98997158509E+01  0.37229206978E+02  0.38842367738E+02  0.00000000000E+00 0. -1.
         22    1    1    2    0    0  0.45382681895E+02  0.13202583397E+03 -0.40651275657E+02  0.14540610326E+03  0.00000000000E+00 0. -1.
</event>
<event>
 6    1  0.2809573E-005  0.8599699E+02  0.7818608E-02  0.1324793E+00
          2   -1    0    0  502    0  0.00000000000E+00  0.00000000000E+00  0.28119675102E+02  0.28119675102E+02  0.00000000000E+00 0.  1.
          1   -1    0    0  501    0 -0.00000000000E+00 -0.00000000000E+00 -0.16804529252E+04  0.16804529252E+04  0.00000000000E+00 0. -1.
          2    1    1    2  501    0  0.61242206870E+02  0.90356050394E+02 -0.43998593522E+03  0.45332377715E+03  0.00000000000E+00 0.  1.
          1    1    1    2  502    0 -0.31479230479E+02 -0.63713187570E+02 -0.10270816766E+04  0.10295373149E+04  0.00000000000E+00 0. -1.
         22    1    1    2    0    0 -0.58040747477E+02 -0.38118884374E+02 -0.46359266880E+02  0.83492271135E+02  0.00000000000E+00 0.  1.
         22    1    1    2    0    0  0.28277771087E+02  0.11476021550E+02 -0.13890637132E+03  0.14221923710E+03  0.00000000000E+00 0.  1.
</event>
<event>
 6    1  0.2809573E-005  0.6057218E+02  0.7818608E-02  0.1396739E+00
          2   -1    0    0  502    0  0.00000000000E+00  0.00000000000E+00  0.17080652923E+03  0.17080652923E+03  0.00000000000E+00 0.  1.
          1   -1    0    0  501    0 -0.00000000000E+00 -0.00000000000E+00 -0.11547171242E+03  0.11547171242E+03  0.00000000000E+00 0.  1.
          2    1    1    2  501    0 -0.16137298253E+02 -0.13768854340E+02  0.49967024547E+02  0.54283490002E+02  0.00000000000E+00 0.  1.
          1    1    1    2  502    0  0.44982555679E+01  0.32087780975E+02 -0.73643548990E+02  0.80456399987E+02  0.00000000000E+00 0.  1.
         22    1    1    2    0    0 -0.40212024774E+02 -0.12895591787E+02  0.88950270209E+02  0.98465495450E+02  0.00000000000E+00 0.  1.
         22    1    1    2    0    0  0.51851067460E+02 -0.54233348487E+01 -0.99389289638E+01  0.53072856212E+02  0.00000000000E+00 0.  1.
</event>
<event>
 6    1  0.2809573E-005  0.1000276E+03  0.7818608E-02  0.1399611E+00
          2   -1    0    0  502    0  0.00000000000E+00  0.00000000000E+00  0.59289154994E+02  0.59289154994E+02  0.00000000000E+00 0. -1.
          1   -1    0    0  501    0 -0.00000000000E+00 -0.00000000000E+00 -0.28540342278E+03  0.28540342278E+03  0.00000000000E+00 0. -1.
          2    1    1    2  501    0 -0.27688232100E+02 -0.74561434302E+01  0.15249481971E+01  0.28715113419E+02  0.00000000000E+00 0. -1.
          1    1    1    2  502    0 -0.19353751499E+02  0.18254016694E+02 -0.17195296545E+03  0.17399884813E+03  0.00000000000E+00 0. -1.
         22    1    1    2    0    0 -0.97553823087E+01  0.79569761842E+01  0.32822589161E+02  0.35153994271E+02  0.00000000000E+00 0. -1.
         22    1    1    2    0    0  0.56797365908E+02 -0.18754849448E+02 -0.88508839697E+02  0.10682462196E+03  0.00000000000E+00 0. -1.
</event>
<event>
 6    1  0.2809573E-005  0.8709856E+02  0.7818608E-02  0.1346452E+00
          2   -1    0    0  502    0  0.00000000000E+00  0.00000000000E+00  0.46622475144E+02  0.46622475144E+02  0.00000000000E+00 0. -1.
          1   -1    0    0  501    0 -0.00000000000E+00 -0.00000000000E+00 -0.70512889348E+03  0.70512889348E+03  0.00000000000E+00 0. -1.
          2    1    1    2  501    0  0.40687854721E+02  0.20059154193E+00 -0.38272281961E+02  0.55859729012E+02  0.00000000000E+00 0. -1.
          1    1    1    2  502    0 -0.52403702285E+01  0.44083046199E+02 -0.52219869454E+03  0.52408229604E+03  0.00000000000E+00 0. -1.
         22    1    1    2    0    0  0.65184292218E+01 -0.12205239779E+02  0.30146521141E+02  0.33170326114E+02  0.00000000000E+00 0. -1.
         22    1    1    2    0    0 -0.41965913715E+02 -0.32078397962E+02 -0.12818196297E+03  0.13863901746E+03  0.00000000000E+00 0.  1.
</event>
<event>
 6    1  0.2809573E-005  0.2558101E+03  0.7818608E-02  0.1212996E+00
          2   -1    0    0  502    0  0.00000000000E+00  0.00000000000E+00  0.19902847233E+03  0.19902847233E+03  0.00000000000E+00 0. -1.
          1   -1    0    0  501    0 -0.00000000000E+00 -0.00000000000E+00 -0.26744322770E+03  0.26744322770E+03  0.00000000000E+00 0. -1.
          2    1    1    2  501    0 -0.11698010948E+03 -0.50461343885E+02  0.55550071662E+02  0.13898382533E+03  0.00000000000E+00 0. -1.
          1    1    1    2  502    0  0.10618071508E+03 -0.43390378133E+02 -0.12609595551E+03  0.17046189945E+03  0.00000000000E+00 0. -1.
         22    1    1    2    0    0  0.33249277087E+02  0.99342716408E+02 -0.37399498935E+02  0.11123494168E+03  0.00000000000E+00 0. -1.
         22    1    1    2    0    0 -0.22449882678E+02 -0.54909943898E+01  0.39530627414E+02  0.45791033570E+02  0.00000000000E+00 0. -1.
</event>
<event>
 6    1  0.2809573E-005  0.1650440E+03  0.7818608E-02  0.1255554E+00
          2   -1    0    0  502    0  0.00000000000E+00  0.00000000000E+00  0.36209302181E+03  0.36209302181E+03  0.00000000000E+00 0. -1.
          1   -1    0    0  501    0 -0.00000000000E+00 -0.00000000000E+00 -0.51671000306E+03  0.51671000306E+03  0.00000000000E+00 0. -1.
          2    1    1    2  501    0 -0.44281432518E+02  0.62272321147E+02  0.15208062963E+03  0.17019754744E+03  0.00000000000E+00 0. -1.
          1    1    1    2  502    0  0.11054085860E+03 -0.50075644805E+02 -0.47389318907E+03  0.48918463413E+03  0.00000000000E+00 0. -1.
         22    1    1    2    0    0  0.21171402738E+02  0.29057428266E+02  0.14652580175E+02  0.38823453441E+02  0.00000000000E+00 0.  1.
         22    1    1    2    0    0 -0.87430828823E+02 -0.41254104607E+02  0.15254299801E+03  0.18059738984E+03  0.00000000000E+00 0. -1.
</event>
<event>
 6    1  0.2809573E-005  0.2178405E+03  0.7818608E-02  0.1188708E+00
          2   -1    0    0  502    0  0.00000000000E+00  0.00000000000E+00  0.69938919852E+03  0.69938919852E+03  0.00000000000E+00 0. -1.
          1   -1    0    0  501    0 -0.00000000000E+00 -0.00000000000E+00 -0.16430442223E+03  0.16430442223E+03  0.00000000000E+00 0. -1.
          2    1    1    2  501    0  0.12965702571E+03 -0.11647181700E+03  0.39424660529E+03  0.43105337750E+03  0.00000000000E+00 0. -1.
          1    1    1    2  502    0 -0.16704300186E+03  0.11730144823E+03 -0.44279285275E+02  0.20886275238E+03  0.00000000000E+00 0. -1.
         22    1    1    2    0    0  0.22908850943E+01 -0.53606908212E+02  0.12665361790E+03  0.13755030967E+03  0.00000000000E+00 0. -1.
         22    1    1    2    0    0  0.35095091050E+02  0.52777276986E+02  0.58463838373E+02  0.86227181209E+02  0.00000000000E+00 0. -1.
</event>
<event>
 6    1  0.2809573E-005  0.1317790E+03  0.7818608E-02  0.1336892E+00
          2   -1    0    0  502    0  0.00000000000E+00  0.00000000000E+00  0.51815610246E+02  0.51815610246E+02  0.00000000000E+00 0. -1.
          1   -1    0    0  501    0 -0.00000000000E+00 -0.00000000000E+00 -0.19222139984E+04  0.19222139984E+04  0.00000000000E+00 0. -1.
          2    1    1    2  501    0 -0.89893568738E+02  0.40912100052E+02 -0.15576860730E+04  0.15608140682E+04  0.00000000000E+00 0. -1.
          1    1    1    2  502    0  0.88894372879E+02 -0.67498734075E+02 -0.24822034201E+03  0.27216103105E+03  0.00000000000E+00 0. -1.
         22    1    1    2    0    0  0.12661911955E+02  0.91160513972E+01  0.35554222664E+02  0.38826912788E+02  0.00000000000E+00 0. -1.
         22    1    1    2    0    0 -0.11662716096E+02  0.17470582625E+02 -0.10004619588E+03  0.10222759664E+03  0.00000000000E+00 0. -1.
</event>
<event>
 6    1  0.2809573E-005  0.2641815E+03  0.7818608E-02  0.1166275E+00
          2   -1    0    0  502    0  0.00000000000E+00  0.00000000000E+00  0.38687456006E+03  0.38687456006E+03  0.00000000000E+00 0. -1.
          1   -1    0    0  501    0 -0.00000000000E+00 -0.00000000000E+00 -0.27237456472E+03  0.27237456472E+03  0.00000000000E+00 0. -1.
          2    1    1    2  501    0 -0.20552711986E+03  0.98437520296E+02 -0.52457344667E+02  0.23384421183E+03  0.00000000000E+00 0. -1.
          1    1    1    2  502    0  0.22679250535E+03 -0.82635997522E+02  0.17076321945E+03  0.29567486482E+03  0.00000000000E+00 0. -1.
         22    1    1    2    0    0 -0.51682713816E+02 -0.28399396124E+02 -0.47006772904E+02  0.75413959625E+02  0.00000000000E+00 0. -1.
         22    1    1    2    0    0  0.30417328322E+02  0.12597873350E+02  0.43200893455E+02  0.54316088505E+02  0.00000000000E+00 0. -1.
</event>
<event>
 6    1  0.2809573E-005  0.1367139E+03  0.7818608E-02  0.1261252E+00
          2   -1    0    0  502    0  0.00000000000E+00  0.00000000000E+00  0.56298416778E+03  0.56298416778E+03  0.00000000000E+00 0. -1.
          1   -1    0    0  501    0 -0.00000000000E+00 -0.00000000000E+00 -0.82086553022E+02  0.82086553022E+02  0.00000000000E+00 0. -1.
          2    1    1    2  501    0 -0.31998068871E+01  0.49278232452E+02  0.23971381569E+02  0.54892714380E+02  0.00000000000E+00 0. -1.
          1    1    1    2  502    0 -0.32012866677E+02  0.16863354286E+02 -0.50491174271E+02  0.62117268371E+02  0.00000000000E+00 0. -1.
         22    1    1    2    0    0 -0.37247488124E+02 -0.41345418167E+02  0.33231870743E+03  0.33694590409E+03  0.00000000000E+00 0. -1.
         22    1    1    2    0    0  0.72460161688E+02 -0.24796168571E+02  0.17509870003E+03  0.19111483396E+03  0.00000000000E+00 0. -1.
</event>
<event>
 6    1  0.2809573E-005  0.2324773E+03  0.7818608E-02  0.1213765E+00
          2   -1    0    0  502    0  0.00000000000E+00  0.00000000000E+00  0.45378050403E+03  0.45378050403E+03  0.00000000000E+00 0. -1.
          1   -1    0    0  501    0 -0.00000000000E+00 -0.00000000000E+00 -0.28399788071E+03  0.28399788071E+03  0.00000000000E+00 0.  1.
          2    1    1    2  501    0  0.49552800500E+02 -0.88048440061E+02  0.12057106805E+03  0.15730667591E+03  0.00000000000E+00 0. -1.
          1    1    1    2  502    0 -0.21631358032E+02 -0.15816240929E+02 -0.24227119604E+03  0.24374864422E+03  0.00000000000E+00 0.  1.
         22    1    1    2    0    0 -0.57186761003E+01 -0.28597425995E+02  0.89750631832E+02  0.94369973743E+02  0.00000000000E+00 0.  1.
         22    1    1    2    0    0 -0.22202766367E+02  0.13246210699E+03  0.20173211949E+03  0.24235309087E+03  0.00000000000E+00 0. -1.
</event>
<event>
 6    1  0.2809573E-005  0.9027272E+02  0.7818608E-02  0.1414786E+00
          2   -1    0    0  502    0  0.00000000000E+00  0.00000000000E+00  0.86625240899E+02  0.86625240899E+02  0.00000000000E+00 0. -1.
          1   -1    0    0  501    0 -0.00000000000E+00 -0.00000000000E+00 -0.28874117916E+03  0.28874117916E+03  0.00000000000E+00 0.  1.
          2    1    1    2  501    0 -0.10479546560E+02 -0.20680945430E+02 -0.29564196695E+02  0.37570788203E+02  0.00000000000E+00 0. -1.
          1    1    1    2  502    0  0.22877144426E+02 -0.38458460790E+02 -0.18969193077E+03  0.19489855193E+03  0.00000000000E+00 0.  1.
         22    1    1    2    0    0 -0.23110097537E+02  0.67358225760E+02 -0.41702894394E+02  0.82524775592E+02  0.00000000000E+00 0.  1.
         22    1    1    2    0    0  0.10712499671E+02 -0.82188195398E+01  0.58843083598E+02  0.60372304338E+02  0.00000000000E+00 0.  1.
</event>
<event>
 6    1  0.2809573E-005  0.1363919E+03  0.7818608E-02  0.1246331E+00
          2   -1    0    0  502    0  0.00000000000E+00  0.00000000000E+00  0.36801670584E+03  0.36801670584E+03  0.00000000000E+00 0. -1.
          1   -1    0    0  501    0 -0.00000000000E+00 -0.00000000000E+00 -0.94648824566E+02  0.94648824566E+02  0.00000000000E+00 0. -1.
          2    1    1    2  501    0 -0.13795720000E+02  0.11796664453E+03  0.64099996583E+02  0.13496392360E+03  0.00000000000E+00 0. -1.
          1    1    1    2  502    0  0.69899536654E+02 -0.80232764814E+02  0.64582523958E+02  0.12447547620E+03  0.00000000000E+00 0. -1.
         22    1    1    2    0    0 -0.23305631713E+02 -0.72936687201E+02  0.13338936661E+03  0.15380388790E+03  0.00000000000E+00 0. -1.
         22    1    1    2    0    0 -0.32798184941E+02  0.35202807481E+02  0.11295994119E+02  0.49422242696E+02  0.00000000000E+00 0.  1.
</event>
<event>
 6    1  0.4556502E-005  0.4482080E+03  0.7818608E-02  0.1132339E+00
          2   -1    0    0  502    0  0.00000000000E+00  0.00000000000E+00  0.51129021945E+03  0.51129021945E+03  0.00000000000E+00 0. -1.
          1   -1    0    0  501    0 -0.00000000000E+00 -0.00000000000E+00 -0.48269950165E+03  0.48269950165E+03  0.00000000000E+00 0. -1.
          2    1    1    2  501    0 -0.39535620158E+03  0.53610169561E+02 -0.98031396565E+02  0.41084149148E+03  0.00000000000E+00 0. -1.
          1    1    1    2  502    0  0.43105065007E+03 -0.29261521917E+02  0.68901005197E+02  0.43750228355E+03  0.00000000000E+00 0. -1.
         22    1    1    2    0    0 -0.26479413530E+02  0.53596890549E+01  0.94030774440E+02  0.97834922954E+02  0.00000000000E+00 0.  1.
         22    1    1    2    0    0 -0.92150349647E+01 -0.29708336699E+02 -0.36309665276E+02  0.47811023115E+02  0.00000000000E+00 0. -1.
</event>
<event>
 6    1  0.2809573E-005  0.1273298E+03  0.7818608E-02  0.1272646E+00
          2   -1    0    0  502    0  0.00000000000E+00  0.00000000000E+00  0.35248672538E+03  0.35248672538E+03  0.00000000000E+00 0. -1.
          1   -1    0    0  501    0 -0.00000000000E+00 -0.00000000000E+00 -0.52311654285E+03  0.52311654285E+03  0.00000000000E+00 0. -1.
          2    1    1    2  501    0 -0.43046271954E+02 -0.67104780613E+02  0.91853929303E+02  0.12162720682E+03  0.00000000000E+00 0. -1.
          1    1    1    2  502    0  0.67496475148E+02  0.93557371628E+02 -0.48327217680E+03  0.49685083557E+03  0.00000000000E+00 0. -1.
         22    1    1    2    0    0  0.24903656443E+01 -0.75635870563E+02  0.12924931983E+03  0.14977440874E+03  0.00000000000E+00 0. -1.
         22    1    1    2    0    0 -0.26940568838E+02  0.49183279548E+02  0.91539110192E+02  0.10735081710E+03  0.00000000000E+00 0. -1.
</event>
<event>
 6    1  0.2809573E-005  0.1007451E+03  0.7818608E-02  0.1357919E+00
          2   -1    0    0  502    0  0.00000000000E+00  0.00000000000E+00  0.39279981627E+02  0.39279981627E+02  0.00000000000E+00 0. -1.
          1   -1    0    0  501    0 -0.00000000000E+00 -0.00000000000E+00 -0.91214101094E+03  0.91214101094E+03  0.00000000000E+00 0. -1.
          2    1    1    2  501    0  0.54023887145E+02 -0.19265426039E+02 -0.63440174558E+03  0.63698925565E+03  0.00000000000E+00 0. -1.
          1    1    1    2  502    0 -0.25922051160E+02  0.51698735910E+02 -0.25667236502E+02  0.63273367705E+02  0.00000000000E+00 0. -1.
         22    1    1    2    0    0 -0.23264217876E+02  0.72121354493E+01  0.88741745340E+01  0.25922764219E+02  0.00000000000E+00 0. -1.
         22    1    1    2    0    0 -0.48376181089E+01 -0.39645445320E+02 -0.22166622177E+03  0.22523560499E+03  0.00000000000E+00 0. -1.
</event>
<event>
 6    1  0.2809573E-005  0.1730271E+03  0.7818608E-02  0.1188106E+00
          2   -1    0    0  502    0  0.00000000000E+00  0.00000000000E+00  0.74179164524E+03  0.74179164524E+03  0.00000000000E+00 0.  1.
          1   -1    0    0  501    0 -0.00000000000E+00 -0.00000000000E+00 -0.19548008731E+03  0.19548008731E+03  0.00000000000E+00 0.  1.
          2    1    1    2  501    0 -0.73733203748E+02 -0.10153330952E+03  0.34501028445E+03  0.36712081751E+03  0.00000000000E+00 0.  1.
          1    1    1    2  502    0  0.16119631999E+03  0.47297610060E+02 -0.12362314569E+03  0.20857612435E+03  0.00000000000E+00 0.  1.
         22    1    1    2    0    0 -0.99734870646E+02  0.80515889424E+02  0.24416794139E+03  0.27576772196E+03  0.00000000000E+00 0. -1.
         22    1    1    2    0    0  0.12271754403E+02 -0.26280189962E+02  0.80756477785E+02  0.85807068734E+02  0.00000000000E+00 0.  1.
</event>
<event>
 6    1  0.2809573E-005  0.1111689E+03  0.7818608E-02  0.1365240E+00
          2   -1    0    0  502    0  0.00000000000E+00  0.00000000000E+00  0.13156004998E+03  0.13156004998E+03  0.00000000000E+00 0. -1.
          1   -1    0    0  501    0 -0.00000000000E+00 -0.00000000000E+00 -0.15174262437E+03  0.15174262437E+03  0.00000000000E+00 0. -1.
          2    1    1    2  501    0  0.67816740632E+01 -0.33610811955E+02 -0.10566928460E+02  0.35879489412E+02  0.00000000000E+00 0. -1.
          1    1    1    2  502    0 -0.75561291972E+02  0.33670915511E+02 -0.54026259676E+02  0.98803219231E+02  0.00000000000E+00 0. -1.
         22    1    1    2    0    0 -0.16029917318E+02 -0.33371138058E+00  0.60247121680E+02  0.62344087797E+02  0.00000000000E+00 0. -1.
         22    1    1    2    0    0  0.84809535227E+02  0.27360782481E+00 -0.15836507935E+02  0.86275877916E+02  0.00000000000E+00 0. -1.
</event>
<event>
 6    1  0.2809573E-005  0.5853751E+02  0.7818608E-02  0.1406203E+00
          2   -1    0    0  502    0  0.00000000000E+00  0.00000000000E+00  0.30990054071E+03  0.30990054071E+03  0.00000000000E+00 0. -1.
          1   -1    0    0  501    0 -0.00000000000E+00 -0.00000000000E+00 -0.99585877386E+02  0.99585877386E+02  0.00000000000E+00 0.  1.
          2    1    1    2  501    0  0.11779524814E+02 -0.25783368641E+02  0.17210354589E+02  0.33162261810E+02  0.00000000000E+00 0. -1.
          1    1    1    2  502    0 -0.32188056088E+02 -0.53425573275E+01 -0.72784207113E+02  0.79763116029E+02  0.00000000000E+00 0.  1.
         22    1    1    2    0    0  0.60267084823E+01 -0.25321736179E+02  0.17633474870E+01  0.26088712743E+02  0.00000000000E+00 0. -1.
         22    1    1    2    0    0  0.14381822792E+02  0.56447662147E+02  0.26412516837E+03  0.27047232752E+03  0.00000000000E+00 0. -1.
</event>
<event>
 6    1  0.2809573E-005  0.1264108E+03  0.7818608E-02  0.1270638E+00
          2   -1    0    0  502    0  0.00000000000E+00  0.00000000000E+00  0.76488673825E+02  0.76488673825E+02  0.00000000000E+00 0.  1.
          1   -1    0    0  501    0 -0.00000000000E+00 -0.00000000000E+00 -0.53129984217E+03  0.53129984217E+03  0.00000000000E+00 0.  1.
          2    1    1    2  501    0  0.25828952590E+02 -0.28721395547E+02 -0.56927360409E+02  0.68795186730E+02  0.00000000000E+00 0.  1.
          1    1    1    2  502    0 -0.16496418064E+02  0.14328571702E+02 -0.41551883762E+03  0.41609295139E+03  0.00000000000E+00 0.  1.
         22    1    1    2    0    0 -0.53629751712E+02 -0.94750765027E+01 -0.22111349659E+02  0.58777879574E+02  0.00000000000E+00 0.  1.
         22    1    1    2    0    0  0.44297217185E+02  0.23867900348E+02  0.39746379346E+02  0.64122498302E+02  0.00000000000E+00 0.  1.
</event>
<event>
 6    1  0.2809573E-005  0.4323827E+02  0.7818608E-02  0.1492328E+00
          2   -1    0    0  502    0  0.00000000000E+00  0.00000000000E+00  0.11631487524E+03  0.11631487524E+03  0.00000000000E+00 0. -1.
          1   -1    0    0  501    0 -0.00000000000E+00 -0.00000000000E+00 -0.70360420467E+02  0.70360420467E+02  0.00000000000E+00 0. -1.
          2    1    1    2  501    0  0.94979816795E+01  0.22174423221E+02 -0.10321937203E+02  0.26238503936E+02  0.00000000000E+00 0. -1.
          1    1    1    2  502    0  0.83077401235E+01 -0.19125493383E+02  0.34064544279E+01  0.21128345294E+02  0.00000000000E+00 0. -1.
         22    1    1    2    0    0  0.11076228129E+02  0.23043421560E+02 -0.34918688952E+02  0.43278134720E+02  0.00000000000E+00 0.  1.
         22    1    1    2    0    0 -0.28881949932E+02 -0.26092351398E+02  0.87788626505E+02  0.96030311761E+02  0.00000000000E+00 0. -1.
</event>
<event>
 6    1  0.2809573E-005  0.4701405E+03  0.7818608E-02  0.1124197E+00
          2   -1    0    0  502    0  0.00000000000E+00  0.00000000000E+00  0.56381129827E+03  0.56381129827E+03  0.00000000000E+00 0.  1.
          1   -1    0    0  501    0 -0.00000000000E+00 -0.00000000000E+00 -0.65232743476E+03  0.65232743476E+03  0.00000000000E+00 0. -1.
          2    1    1    2  501    0 -0.10686612592E+03 -0.38464998972E+03  0.22459856358E+03  0.45806167513E+03  0.00000000000E+00 0.  1.
          1    1    1    2  502    0  0.15772270665E+03  0.40319611869E+03 -0.40671800534E+03  0.59402280948E+03  0.00000000000E+00 0. -1.
         22    1    1    2    0    0 -0.77632174545E+02 -0.28622936090E+02  0.20053385903E+02  0.85136157308E+02  0.00000000000E+00 0.  1.
         22    1    1    2    0    0  0.26775593806E+02  0.10076807114E+02  0.73549919369E+02  0.78918091110E+02  0.00000000000E+00 0. -1.
</event>
<event>
 6    1  0.2809573E-005  0.1803183E+03  0.7818608E-02  0.1193914E+00
          2   -1    0    0  502    0  0.00000000000E+00  0.00000000000E+00  0.88062740718E+03  0.88062740718E+03  0.00000000000E+00 0. -1.
          1   -1    0    0  501    0 -0.00000000000E+00 -0.00000000000E+00 -0.13199891733E+04  0.13199891733E+04  0.00000000000E+00 0.  1.
          2    1    1    2  501    0 -0.96800601219E+02  0.70256835389E+02  0.79165757872E+03  0.80064230544E+03  0.00000000000E+00 0. -1.
          1    1    1    2  502    0 -0.71563417642E+02  0.73811633667E+02 -0.11194204865E+04  0.11241315339E+04  0.00000000000E+00 0.  1.
         22    1    1    2    0    0  0.18674529810E+02 -0.16599915019E+02  0.25850635912E+02  0.35952060015E+02  0.00000000000E+00 0.  1.
         22    1    1    2    0    0  0.14968948905E+03 -0.12746855404E+03 -0.13744949425E+03  0.23989068108E+03  0.00000000000E+00 0.  1.
</event>
<event>
 6    1  0.2809573E-005  0.6447733E+02  0.7818608E-02  0.1382988E+00
          2   -1    0    0  502    0  0.00000000000E+00  0.00000000000E+00  0.30291568221E+02  0.30291568221E+02  0.00000000000E+00 0.  1.
          1   -1    0    0  501    0 -0.00000000000E+00 -0.00000000000E+00 -0.10353169508E+04  0.10353169508E+04  0.00000000000E+00 0.  1.
          2    1    1    2  501    0 -0.26378437864E+02 -0.26571260044E+01 -0.15288684597E+03  0.15516852121E+03  0.00000000000E+00 0.  1.
          1    1    1    2  502    0  0.54099914166E+01  0.35890123794E+02 -0.74041598111E+03  0.74130506141E+03  0.00000000000E+00 0.  1.
         22    1    1    2    0    0  0.54608317425E+02 -0.31231395551E+02 -0.12224835577E+02  0.64085216743E+02  0.00000000000E+00 0.  1.
         22    1    1    2    0    0 -0.33639870978E+02 -0.20016022380E+01 -0.99497719942E+02  0.10504971968E+03  0.00000000000E+00 0.  1.
</event>
<event>
 6    1  0.2809573E-005  0.8772635E+02  0.7818608E-02  0.1386207E+00
          2   -1    0    0  502    0  0.00000000000E+00  0.00000000000E+00  0.75156016577E+02  0.75156016577E+02  0.00000000000E+00 0. -1.
          1   -1    0    0  501    0 -0.00000000000E+00 -0.00000000000E+00 -0.42605568686E+03  0.42605568686E+03  0.00000000000E+00 0.  1.
          2    1    1    2  501    0  0.63716727484E+01 -0.42948154786E+02 -0.86238417097E+02  0.96551575837E+02  0.00000000000E+00 0. -1.
          1    1    1    2  502    0  0.20875738304E+02  0.30882407181E+02 -0.26962156623E+03  0.27218616515E+03  0.00000000000E+00 0.  1.
         22    1    1    2    0    0  0.22465427558E+02  0.54901525602E+01  0.56204306716E+02  0.60776321902E+02  0.00000000000E+00 0. -1.
         22    1    1    2    0    0 -0.49712838610E+02  0.65755950448E+01 -0.51243993671E+02  0.71697640549E+02  0.00000000000E+00 0. -1.
</event>
<event>
 6    1  0.2809573E-005  0.1641303E+03  0.7818608E-02  0.1199248E+00
          2   -1    0    0  502    0  0.00000000000E+00  0.00000000000E+00  0.22391673271E+03  0.22391673271E+03  0.00000000000E+00 0. -1.
          1   -1    0    0  501    0 -0.00000000000E+00 -0.00000000000E+00 -0.69740222268E+03  0.69740222268E+03  0.00000000000E+00 0. -1.
          2    1    1    2  501    0 -0.12155238013E+03  0.35490395345E+02 -0.49077491265E+03  0.50684767353E+03  0.00000000000E+00 0. -1.
          1    1    1    2  502    0  0.19076938127E+02 -0.13209205045E+03  0.13486426420E+03  0.18973826477E+03  0.00000000000E+00 0. -1.
         22    1    1    2    0    0  0.10211711024E+03  0.58296664972E+02 -0.19173890972E+02  0.11913875711E+03  0.00000000000E+00 0. -1.
         22    1    1    2    0    0  0.35833177030E+00  0.38304990135E+02 -0.98400950552E+02  0.10559425998E+03  0.00000000000E+00 0. -1.
</event>
<event>
 6    1  0.2809573E-005  0.5520473E+02  0.7818608E-02  0.1448433E+00
          2   -1    0    0  502    0  0.00000000000E+00  0.00000000000E+00  0.45439497150E+02  0.45439497150E+02  0.00000000000E+00 0.  1.
          1   -1    0    0  501    0 -0.00000000000E+00 -0.00000000000E+00 -0.15563144490E+04  0.15563144490E+04  0.00000000000E+00 0.  1.
          2    1    1    2  501    0  0.27025020452E+02  0.19798184832E+02 -0.27906355942E+02  0.43601428360E+02  0.00000000000E+00 0.  1.
          1    1    1    2  502    0 -0.32596978386E+02 -0.46712296751E+00 -0.14106505427E+04  0.14110271914E+04  0.00000000000E+00 0.  1.
         22    1    1    2    0    0 -0.15546929733E+02 -0.30897330778E+02  0.27660355936E+02  0.44288230534E+02  0.00000000000E+00 0.  1.
         22    1    1    2    0    0  0.21118887667E+02  0.11566268913E+02 -0.99978409187E+02  0.10283709592E+03  0.00000000000E+00 0.  1.
</event>
<event>
 6    1  0.2809573E-005  0.1219591E+03  0.7818608E-02  0.1243398E+00
          2   -1    0    0  502    0  0.00000000000E+00  0.00000000000E+00  0.79235617431E+03  0.79235617431E+03  0.00000000000E+00 0. -1.
          1   -1    0    0  501    0 -0.00000000000E+00 -0.00000000000E+00 -0.59520419025E+02  0.59520419025E+02  0.00000000000E+00 0.  1.
          2    1    1    2  501    0 -0.55289699437E+02 -0.10349770354E+03  0.23396842730E+03  0.26174405528E+03  0.00000000000E+00 0. -1.
          1    1    1    2  502    0  0.11020422907E+02  0.45348143490E+02 -0.20895647381E+02  0.51132493764E+02  0.00000000000E+00 0.  1.
         22    1    1    2    0    0  0.37982055265E+02  0.94568151013E+02  0.43031271450E+03  0.44221578892E+03  0.00000000000E+00 0.  1.
         22    1    1    2    0    0  0.62872212653E+01 -0.36418590962E+02  0.89450260868E+02  0.96784255374E+02  0.00000000000E+00 0. -1.
</event>
<event>
 6    1  0.2809573E-005  0.7180184E+02  0.7818608E-02  0.1398836E+00
          2   -1    0    0  502    0  0.00000000000E+00  0.00000000000E+00  0.37702694086E+02  0.37702694086E+02  0.00000000000E+00 0.  1.
          1   -1    0    0  501    0 -0.00000000000E+00 -0.00000000000E+00 -0.12726139422E+04  0.12726139422E+04  0.00000000000E+00 0.  1.
          2    1    1    2  501    0 -0.13410824880E+02 -0.41152877717E+02 -0.10589941778E+03  0.11440321785E+03  0.00000000000E+00 0.  1.
          1    1    1    2  502    0 -0.42623747538E+01  0.32407468161E+02 -0.10326937140E+04  0.10332108782E+04  0.00000000000E+00 0.  1.
         22    1    1    2    0    0 -0.25321037915E+02  0.21875164923E+02  0.19316612388E+02  0.38636890605E+02  0.00000000000E+00 0.  1.
         22    1    1    2    0    0  0.42994237549E+02 -0.13129755367E+02 -0.11563472868E+03  0.12406564962E+03  0.00000000000E+00 0. -1.
</event>
<event>
 6    1  0.2809573E-005  0.7843351E+02  0.7818608E-02  0.1381657E+00
          2   -1    0    0  502    0  0.00000000000E+00  0.00000000000E+00  0.12861404135E+03  0.12861404135E+03  0.00000000000E+00 0.  1.
          1   -1    0    0  501    0 -0.00000000000E+00 -0.00000000000E+00 -0.81206575518E+03  0.81206575518E+03  0.00000000000E+00 0.  1.
          2    1    1    2  501    0 -0.38723078186E+02  0.34344634488E+02 -0.85807157446E+02  0.10020927587E+03  0.00000000000E+00 0.  1.
          1    1    1    2  502    0  0.51279348165E+02 -0.34172649449E+02 -0.68588162731E+03  0.68864428278E+03  0.00000000000E+00 0.  1.
         22    1    1    2    0    0 -0.27414556635E+02  0.31336922000E+02 -0.13913173381E+02  0.43899168437E+02  0.00000000000E+00 0. -1.
         22    1    1    2    0    0  0.14858286656E+02 -0.31508907038E+02  0.10215024431E+03  0.10792706944E+03  0.00000000000E+00 0.  1.
</event>
<event>
 6    1  0.2809573E-005  0.1124706E+03  0.7818608E-02  0.1260849E+00
          2   -1    0    0  502    0  0.00000000000E+00  0.00000000000E+00  0.26993592127E+03  0.26993592127E+03  0.00000000000E+00 0. -1.
          1   -1    0    0  501    0 -0.00000000000E+00 -0.00000000000E+00 -0.18255353868E+03  0.18255353868E+03  0.00000000000E+00 0. -1.
          2    1    1    2  501    0  0.73800972881E+02  0.74396415999E+02  0.19830737743E+02  0.10665209080E+03  0.00000000000E+00 0. -1.
          1    1    1    2  502    0 -0.18835677831E+02 -0.53619213237E+02 -0.10741161469E+03  0.12151978340E+03  0.00000000000E+00 0. -1.
         22    1    1    2    0    0  0.37218659202E+02  0.41866489256E+01  0.20454130888E+02  0.42674677414E+02  0.00000000000E+00 0. -1.
         22    1    1    2    0    0 -0.92183954252E+02 -0.24963851689E+02  0.15450912865E+03  0.18164290833E+03  0.00000000000E+00 0. -1.
</event>
<event>
 6    1  0.3215809E-005  0.2012545E+03  0.7818608E-02  0.1185941E+00
          2   -1    0    0  502    0  0.00000000000E+00  0.00000000000E+00  0.76306655803E+03  0.76306655803E+03  0.00000000000E+00 0. -1.
          1   -1    0    0  501    0 -0.00000000000E+00 -0.00000000000E+00 -0.44943712425E+03  0.44943712425E+03  0.00000000000E+00 0.  1.
          2    1    1    2  501    0  0.57258508661E+02 -0.15391783275E+03  0.27886292566E+03  0.32362596830E+03  0.00000000000E+00 0. -1.
          1    1    1    2  502    0 -0.13902630896E+02  0.18490919073E+03 -0.39620525461E+03  0.43745090667E+03  0.00000000000E+00 0.  1.
         22    1    1    2    0    0 -0.85266687718E+02 -0.58765405134E+01  0.27792304415E+03  0.29076822425E+03  0.00000000000E+00 0. -1.
         22    1    1    2    0    0  0.41910809954E+02 -0.25114817470E+02  0.15304871858E+03  0.16065858305E+03  0.00000000000E+00 0.  1.
</event>
<event>
 6    1  0.2809573E-005  0.7213528E+02  0.7818608E-02  0.1354049E+00
          2   -1    0    0  502    0  0.00000000000E+00  0.00000000000E+00  0.35559663618E+03  0.35559663618E+03  0.00000000000E+00 0. -1.
          1   -1    0    0  501    0 -0.00000000000E+00 -0.00000000000E+00 -0.22654674022E+03  0.22654674022E+03  0.00000000000E+00 0. -1.
          2    1    1    2  501    0  0.12062164078E+02 -0.37720973022E+02  0.11160740895E+03  0.11842542523E+03  0.00000000000E+00 0. -1.
          1    1    1    2  502    0  0.36760658933E+02 -0.32823993825E+02 -0.19618681751E+03  0.20228205056E+03  0.00000000000E+00 0. -1.
         22    1    1    2    0    0  0.60769305872E+01 -0.23050057389E+02  0.10583440670E+03  0.10848574041E+03  0.00000000000E+00 0. -1.
         22    1    1    2    0    0 -0.54899753598E+02  0.93595024236E+02  0.10779489782E+03  0.15295016019E+03  0.00000000000E+00 0. -1.
</event>
<event>
 6    1  0.2809573E-005  0.5740922E+02  0.7818608E-02  0.1441479E+00
          2   -1    0    0  502    0  0.00000000000E+00  0.00000000000E+00  0.31524454958E+02  0.31524454958E+02  0.00000000000E+00 0. -1.
          1   -1    0    0  501    0 -0.00000000000E+00 -0.00000000000E+00 -0.60238463898E+03  0.60238463898E+03  0.00000000000E+00 0. -1.
          2    1    1    2  501    0  0.23913469743E+02 -0.21134247353E+02 -0.29272924408E+03  0.29446378518E+03  0.00000000000E+00 0. -1.
          1    1    1    2  502    0 -0.82134425812E+00  0.51447775537E+02 -0.13169758217E+03  0.14139236671E+03  0.00000000000E+00 0. -1.
         22    1    1    2    0    0 -0.34644499636E+02 -0.48706403938E+01  0.12143653556E+02  0.37032861279E+02  0.00000000000E+00 0. -1.
         22    1    1    2    0    0  0.11552374151E+02 -0.25442887790E+02 -0.15857701133E+03  0.16102008076E+03  0.00000000000E+00 0. -1.
</event>
<event>
 6    1  0.2809573E-005  0.2130828E+03  0.7818608E-02  0.1268975E+00
          2   -1    0    0  502    0  0.00000000000E+00  0.00000000000E+00  0.77832159622E+02  0.77832159622E+02  0.00000000000E+00 0.  1.
          1   -1    0    0  501    0 -0.00000000000E+00 -0.00000000000E+00 -0.89036270105E+03  0.89036270105E+03  0.00000000000E+00 0.  1.
          2    1    1    2  501    0  0.14450546463E+03  0.26968022817E+01 -0.34838754069E+03  0.37717765119E+03  0.00000000000E+00 0.  1.
          1    1    1    2  502    0 -0.20910777425E+03 -0.28211840216E+02 -0.35858172915E+03  0.41605627703E+03  0.00000000000E+00 0.  1.
         22    1    1    2    0    0  0.96369746119E+01 -0.84925229843E+01  0.25654011723E+02  0.28690112300E+02  0.00000000000E+00 0. -1.
         22    1    1    2    0    0  0.54965335009E+02  0.34007560918E+02 -0.13121528331E+03  0.14627082015E+03  0.00000000000E+00 0.  1.
</event>
<event>
 6    1  0.2809573E-005  0.1153256E+03  0.7818608E-02  0.1253805E+00
          2   -1    0    0  502    0  0.00000000000E+00  0.00000000000E+00  0.62457435977E+02  0.62457435977E+02  0.00000000000E+00 0.  1.
          1   -1    0    0  501    0 -0.00000000000E+00 -0.00000000000E+00 -0.86877335862E+03  0.86877335862E+03  0.00000000000E+00 0.  1.
          2    1    1    2  501    0  0.10439296452E+03  0.29980132427E+02 -0.50976579201E+03  0.52120807945E+03  0.00000000000E+00 0.  1.
          1    1    1    2  502    0 -0.42768065626E+02  0.30963898157E+02 -0.23747227131E+03  0.24327135069E+03  0.00000000000E+00 0.  1.
         22    1    1    2    0    0  0.23708082993E+02  0.46771463153E+01 -0.53796851188E+02  0.58974995503E+02  0.00000000000E+00 0. -1.
         22    1    1    2    0    0 -0.85332981891E+02 -0.65621176900E+02 -0.52810081309E+01  0.10777636895E+03  0.00000000000E+00 0.  1.
</event>
<event>
 6    1  0.2809573E-005  0.5608226E+02  0.7818608E-02  0.1493979E+00
          2   -1    0    0  502    0  0.00000000000E+00  0.00000000000E+00  0.42965093277E+02  0.42965093277E+02  0.00000000000E+00 0. -1.
          1   -1    0    0  501    0 -0.00000000000E+00 -0.00000000000E+00 -0.88084079505E+03  0.88084079505E+03  0.00000000000E+00 0. -1.
          2    1    1    2  501    0  0.20314704888E+02  0.31698751457E+02 -0.20829678482E+03  0.21167203085E+03  0.00000000000E+00 0. -1.
          1    1    1    2  502    0 -0.34554713543E+02 -0.39084862287E+02 -0.56554986864E+03  0.56795097377E+03  0.00000000000E+00 0. -1.
         22    1    1    2    0    0  0.57346431897E+01 -0.16685377154E+02  0.36458369014E+02  0.40503093888E+02  0.00000000000E+00 0. -1.
         22    1    1    2    0    0  0.85053654648E+01  0.24071487984E+02 -0.10048741733E+03  0.10367978982E+03  0.00000000000E+00 0.  1.
</event>
<event>
 6    1  0.2809573E-005  0.9513276E+02  0.7818608E-02  0.1292578E+00
          2   -1    0    0  502    0  0.00000000000E+00  0.00000000000E+00  0.50747000697E+03  0.50747000697E+03  0.00000000000E+00 0. -1.
          1   -1    0    0  501    0 -0.00000000000E+00 -0.00000000000E+00 -0.19910883472E+03  0.19910883472E+03  0.00000000000E+00 0. -1.
          2    1    1    2  501    0  0.32411708189E+02 -0.53879549308E+02  0.31541570233E+03  0.32162181198E+03  0.00000000000E+00 0. -1.
          1    1    1    2  502    0 -0.61741894121E-01  0.25019660190E+02 -0.17318797904E+03  0.17498589455E+03  0.00000000000E+00 0. -1.
         22    1    1    2    0    0  0.10915737177E+02 -0.33270129312E+02  0.11078487677E+03  0.11618667627E+03  0.00000000000E+00 0. -1.
         22    1    1    2    0    0 -0.43265703471E+02  0.62130018430E+02  0.55348572178E+02  0.93784458889E+02  0.00000000000E+00 0. -1.
</event>
<event>
 6    1  0.2809573E-005  0.8460810E+02  0.7818608E-02  0.1325142E+00
          2   -1    0    0  502    0  0.00000000000E+00  0.00000000000E+00  0.20724372685E+03  0.20724372685E+03  0.00000000000E+00 0. -1.
          1   -1    0    0  501    0 -0.00000000000E+00 -0.00000000000E+00 -0.10817934730E+03  0.10817934730E+03  0.00000000000E+00 0. -1.
          2    1    1    2  501    0 -0.25976940702E+02 -0.41793485313E+02 -0.21663010577E+02  0.53766001247E+02  0.00000000000E+00 0. -1.
          1    1    1    2  502    0  0.33462301331E+02  0.10017339279E+02 -0.40100956807E+02  0.53180442208E+02  0.00000000000E+00 0. -1.
         22    1    1    2    0    0  0.78798772689E+01 -0.38538085315E+02  0.88522416375E+01  0.40319209659E+02  0.00000000000E+00 0. -1.
         22    1    1    2    0    0 -0.15365237898E+02  0.70314231349E+02  0.15197610530E+03  0.16815742104E+03  0.00000000000E+00 0. -1.
</event>
<event>
 6    1  0.2809573E-005  0.7511079E+02  0.7818608E-02  0.1456275E+00
          2   -1    0    0  502    0  0.00000000000E+00  0.00000000000E+00  0.44012335705E+02  0.44012335705E+02  0.00000000000E+00 0. -1.
          1   -1    0    0  501    0 -0.00000000000E+00 -0.00000000000E+00 -0.39780117794E+03  0.39780117794E+03  0.00000000000E+00 0. -1.
          2    1    1    2  501    0  0.23696788039E+02 -0.88036061804E+01 -0.44339684517E+02  0.51039679351E+02  0.00000000000E+00 0. -1.
          1    1    1    2  502    0  0.50804964318E+01 -0.40343229690E+02 -0.22103533510E+03  0.22474431470E+03  0.00000000000E+00 0. -1.
         22    1    1    2    0    0 -0.63440690592E+01  0.10836733116E+02  0.33770642553E+02  0.36029686306E+02  0.00000000000E+00 0. -1.
         22    1    1    2    0    0 -0.22433215411E+02  0.38310102755E+02 -0.12218446517E+03  0.12999983329E+03  0.00000000000E+00 0. -1.
</event>
<event>
 6    1  0.2809573E-005  0.8377950E+02  0.7818608E-02  0.1322482E+00
          2   -1    0    0  502    0  0.00000000000E+00  0.00000000000E+00  0.16153888778E+03  0.16153888778E+03  0.00000000000E+00 0. -1.
          1   -1    0    0  501    0 -0.00000000000E+00 -0.00000000000E+00 -0.21033822922E+03  0.21033822922E+03  0.00000000000E+00 0. -1.
          2    1    1    2  501    0 -0.50968325729E+02  0.92241261885E+02 -0.88440675966E+02  0.13757897291E+03  0.00000000000E+00 0. -1.
          1    1    1    2  502    0  0.23899141271E+02 -0.66654878682E+02 -0.39799290489E+02  0.81228229877E+02  0.00000000000E+00 0. -1.
         22    1    1    2    0    0  0.44008889474E+02 -0.57571826384E+02  0.89828706021E+02  0.11541444438E+03  0.00000000000E+00 0. -1.
         22    1    1    2    0    0 -0.16939705016E+02  0.31985443181E+02 -0.10388081002E+02  0.37655469834E+02  0.00000000000E+00 0. -1.
</event>
<event>
 6    1  0.2809573E-005  0.1709873E+03  0.7818608E-02  0.1276455E+00
          2   -1    0    0  502    0  0.00000000000E+00  0.00000000000E+00  0.14090587206E+03  0.14090587206E+03  0.00000000000E+00 0. -1.
          1   -1    0    0  501    0 -0.00000000000E+00 -0.00000000000E+00 -0.11298495097E+03  0.11298495097E+03  0.00000000000E+00 0. -1.
          2    1    1    2  501    0  0.63162302981E+02  0.94222408827E+01  0.30821868503E+02  0.70910103082E+02  0.00000000000E+00 0. -1.
          1    1    1    2  502    0  0.26035170000E+02  0.54903456565E+01 -0.44727390307E+01  0.26981092765E+02  0.00000000000E+00 0. -1.
         22    1    1    2    0    0  0.66117565137E-01 -0.21524725538E+02  0.49852116004E+02  0.54300567686E+02  0.00000000000E+00 0. -1.
         22    1    1    2    0    0 -0.89263590547E+02  0.66121389983E+01 -0.48280324383E+02  0.10169905949E+03  0.00000000000E+00 0. -1.
</event>
<event>
 6    1  0.2809573E-005  0.3328684E+03  0.7818608E-02  0.1070298E+00
          2   -1    0    0  502    0  0.00000000000E+00  0.00000000000E+00  0.44483372890E+03  0.44483372890E+03  0.00000000000E+00 0.  1.
          1   -1    0    0  501    0 -0.00000000000E+00 -0.00000000000E+00 -0.60199327681E+03  0.60199327681E+03  0.00000000000E+00 0.  1.
          2    1    1    2  501    0 -0.33333400304E+03 -0.16883782187E+03 -0.16529318727E+03  0.40858243408E+03  0.00000000000E+00 0.  1.
          1    1    1    2  502    0  0.24545308790E+03 -0.14725436445E+03  0.56934128117E+01  0.28629264950E+03  0.00000000000E+00 0.  1.
         22    1    1    2    0    0 -0.73228882984E+01 -0.98360246953E+01  0.18624395948E+01  0.12403255866E+02  0.00000000000E+00 0.  1.
         22    1    1    2    0    0  0.95203803436E+02  0.32592821101E+03  0.57778696307E+00  0.33954866626E+03  0.00000000000E+00 0. -1.
</event>
<event>
 6    1  0.2809573E-005  0.2699840E+03  0.7818608E-02  0.1226878E+00
          2   -1    0    0  502    0  0.00000000000E+00  0.00000000000E+00  0.96039396097E+02  0.96039396097E+02  0.00000000000E+00 0.  1.
          1   -1    0    0  501    0 -0.00000000000E+00 -0.00000000000E+00 -0.14440564781E+04  0.14440564781E+04  0.00000000000E+00 0.  1.
          2    1    1    2  501    0  0.99814595868E+02  0.18540989577E+03 -0.34325081615E+03  0.40269207316E+03  0.00000000000E+00 0.  1.
          1    1    1    2  502    0 -0.14767381706E+03 -0.22329220165E+03 -0.95087775393E+03  0.98784384721E+03  0.00000000000E+00 0.  1.
         22    1    1    2    0    0  0.44382629711E+02  0.23611486081E+02 -0.94134458705E+02  0.10671746066E+03  0.00000000000E+00 0.  1.
         22    1    1    2    0    0  0.34765914787E+01  0.14270819796E+02  0.40245946790E+02  0.42842493147E+02  0.00000000000E+00 0. -1.
</event>
<event>
 6    1  0.2809573E-005  0.4482050E+03  0.7818608E-02  0.1148479E+00
          2   -1    0    0  502    0  0.00000000000E+00  0.00000000000E+00  0.16411420038E+03  0.16411420038E+03  0.00000000000E+00 0. -1.
          1   -1    0    0  501    0 -0.00000000000E+00 -0.00000000000E+00 -0.78680089237E+03  0.78680089237E+03  0.00000000000E+00 0. -1.
          2    1    1    2  501    0  0.84846223544E+02  0.23156406736E+03 -0.32443363875E+03  0.40752666771E+03  0.00000000000E+00 0. -1.
          1    1    1    2  502    0 -0.95282283647E+01 -0.50913971171E+02  0.82359319735E+02  0.97293767238E+02  0.00000000000E+00 0. -1.
         22    1    1    2    0    0  0.16734891633E+02 -0.74284397569E+01 -0.46015831390E+00  0.18315295817E+02  0.00000000000E+00 0.  1.
         22    1    1    2    0    0 -0.92052886812E+02 -0.17322165643E+03 -0.38015221466E+03  0.42777936198E+03  0.00000000000E+00 0. -1.
</event>
<event>
 6    1  0.2809573E-005  0.1064945E+03  0.7818608E-02  0.1379555E+00
          2   -1    0    0  502    0  0.00000000000E+00  0.00000000000E+00  0.12486150055E+03  0.12486150055E+03  0.00000000000E+00 0.  1.
          1   -1    0    0  501    0 -0.00000000000E+00 -0.00000000000E+00 -0.17877815255E+04  0.17877815255E+04  0.00000000000E+00 0. -1.
          2    1    1    2  501    0 -0.83369748303E+01  0.21128527086E+02  0.19586038906E+02  0.29992211091E+02  0.00000000000E+00 0.  1.
          1    1    1    2  502    0 -0.61688968300E+02 -0.16808757363E+02 -0.17331527993E+04  0.17343317701E+04  0.00000000000E+00 0. -1.
         22    1    1    2    0    0  0.11541665441E+01  0.14356182418E+02  0.72320862521E+02  0.73741028130E+02  0.00000000000E+00 0. -1.
         22    1    1    2    0    0  0.68871776586E+02 -0.18675952140E+02 -0.21674127142E+02  0.74578016773E+02  0.00000000000E+00 0.  1.
</event>
<event>
 6    1  0.2809573E-005  0.2765721E+03  0.7818608E-02  0.1165704E+00
          2   -1    0    0  502    0  0.00000000000E+00  0.00000000000E+00  0.89405812812E+03  0.89405812812E+03  0.00000000000E+00 0. -1.
          1   -1    0    0  501    0 -0.00000000000E+00 -0.00000000000E+00 -0.10588873054E+03  0.10588873054E+03  0.00000000000E+00 0. -1.
          2    1    1    2  501    0  0.40295302271E+02 -0.36226272784E+01  0.20622519538E+02  0.45410605872E+02  0.00000000000E+00 0. -1.
          1    1    1    2  502    0 -0.25045434952E+03 -0.86387785710E+02  0.20721340793E+03  0.33634450663E+03  0.00000000000E+00 0. -1.
         22    1    1    2    0    0  0.20548499014E+03  0.38144731072E+02  0.44337900388E+03  0.49016736199E+03  0.00000000000E+00 0. -1.
         22    1    1    2    0    0  0.46740571098E+01  0.51865681916E+02  0.11695446624E+03  0.12802438417E+03  0.00000000000E+00 0.  1.
</event>
<event>
 6    1  0.2809573E-005  0.5806428E+02  0.7818608E-02  0.1516253E+00
          2   -1    0    0  502    0  0.00000000000E+00  0.00000000000E+00  0.70682754447E+02  0.70682754447E+02  0.00000000000E+00 0. -1.
          1   -1    0    0  501    0 -0.00000000000E+00 -0.00000000000E+00 -0.71611086796E+03  0.71611086796E+03  0.00000000000E+00 0. -1.
          2    1    1    2  501    0 -0.34726395917E+02 -0.19533811710E+02 -0.60818470225E+03  0.60948841205E+03  0.00000000000E+00 0. -1.
          1    1    1    2  502    0  0.42546077498E+02 -0.29716226207E+01 -0.96309989575E+01  0.43723625106E+02  0.00000000000E+00 0. -1.
         22    1    1    2    0    0 -0.73908174013E+01  0.91092315931E+01  0.51766574798E+02  0.53079002896E+02  0.00000000000E+00 0. -1.
         22    1    1    2    0    0 -0.42886417951E+00  0.13396202738E+02 -0.79378987104E+02  0.80502582356E+02  0.00000000000E+00 0. -1.
</event>
<event>
 6    1  0.2809573E-005  0.7704045E+02  0.7818608E-02  0.1343468E+00
          2   -1    0    0  502    0  0.00000000000E+00  0.00000000000E+00  0.99564636470E+02  0.99564636470E+02  0.00000000000E+00 0. -1.
          1   -1    0    0  501    0 -0.00000000000E+00 -0.00000000000E+00 -0.12350418055E+03  0.12350418055E+03  0.00000000000E+00 0.  1.
          2    1    1    2  501    0  0.10320401316E+02  0.25531336251E+02  0.29266116848E+01  0.27693408422E+02  0.00000000000E+00 0. -1.
          1    1    1    2  502    0  0.44915753331E+02 -0.25862711768E+02 -0.25631704807E+02  0.57821181660E+02  0.00000000000E+00 0.  1.
         22    1    1    2    0    0 -0.41409218820E+02 -0.56069584821E+02  0.24706797839E+02  0.73952333329E+02  0.00000000000E+00 0.  1.
         22    1    1    2    0    0 -0.13826935827E+02  0.56400960338E+02 -0.25941248795E+02  0.63601893608E+02  0.00000000000E+00 0. -1.
</event>
<event>
 6    1  0.2809573E-005  0.7936976E+02  0.7818608E-02  0.1345468E+00
          2   -1    0    0  502    0  0.00000000000E+00  0.00000000000E+00  0.31836611247E+03  0.31836611247E+03  0.00000000000E+00 0. -1.
          1   -1    0    0  501    0 -0.00000000000E+00 -0.00000000000E+00 -0.64261473995E+02  0.64261473995E+02  0.00000000000E+00 0. -1.
          2    1    1    2  501    0 -0.79460458827E+01  0.18630072594E+02  0.33282964356E+02  0.38961198215E+02  0.00000000000E+00 0. -1.
          1    1    1    2  502    0 -0.60698167770E+01 -0.25550717601E+02 -0.44011199148E+02  0.51251024341E+02  0.00000000000E+00 0. -1.
         22    1    1    2    0    0  0.53794907583E+02  0.38187802867E+02  0.19725885482E+03  0.20799821195E+03  0.00000000000E+00 0. -1.
         22    1    1    2    0    0 -0.39779044924E+02 -0.31267157860E+02  0.67574018445E+02  0.84417151957E+02  0.00000000000E+00 0. -1.
</event>
<event>
 6    1  0.2809573E-005  0.2427289E+03  0.7818608E-02  0.1163952E+00
          2   -1    0    0  502    0  0.00000000000E+00  0.00000000000E+00  0.51364958525E+03  0.51364958525E+03  0.00000000000E+00 0. -1.
          1   -1    0    0  501    0 -0.00000000000E+00 -0.00000000000E+00 -0.66241697640E+03  0.66241697640E+03  0.00000000000E+00 0. -1.
          2    1    1    2  501    0  0.76860276942E+01  0.11791526207E+03  0.20992954669E+03  0.24090142927E+03  0.00000000000E+00 0. -1.
          1    1    1    2  502    0 -0.58041562137E+01 -0.23510146676E+03 -0.59626209210E+03  0.64096401644E+03  0.00000000000E+00 0. -1.
         22    1    1    2    0    0 -0.63582426077E+02  0.48905146848E+02  0.92832701976E+02  0.12268801429E+03  0.00000000000E+00 0. -1.
         22    1    1    2    0    0  0.61700554596E+02  0.68281057839E+02  0.14473245228E+03  0.17151310166E+03  0.00000000000E+00 0.  1.
</event>
<event>
 6    1  0.2809573E-005  0.9488314E+02  0.7818608E-02  0.1302576E+00
          2   -1    0    0  502    0  0.00000000000E+00  0.00000000000E+00  0.14827640185E+03  0.14827640185E+03  0.00000000000E+00 0.  1.
          1   -1    0    0  501    0 -0.00000000000E+00 -0.00000000000E+00 -0.35340360951E+03  0.35340360951E+03  0.00000000000E+00 0. -1.
          2    1    1    2  501    0 -0.21727849062E+02  0.36416836584E+02  0.23015552988E+02  0.48249363634E+02  0.00000000000E+00 0.  1.
          1    1    1    2  502    0 -0.45585393225E+01  0.23940992159E+02 -0.29715134856E+03  0.29814908240E+03  0.00000000000E+00 0. -1.
         22    1    1    2    0    0  0.15536845706E+02  0.23642210070E+02 -0.18265296138E+02  0.33674451955E+02  0.00000000000E+00 0.  1.
         22    1    1    2    0    0  0.10749542679E+02 -0.84000038813E+02  0.87273884043E+02  0.12160711338E+03  0.00000000000E+00 0. -1.
</event>
<event>
 6    1  0.2809573E-005  0.5437525E+02  0.7818608E-02  0.1441336E+00
          2   -1    0    0  502    0  0.00000000000E+00  0.00000000000E+00  0.14328146152E+03  0.14328146152E+03  0.00000000000E+00 0. -1.
          1   -1    0    0  501    0 -0.00000000000E+00 -0.00000000000E+00 -0.40494513081E+03  0.40494513081E+03  0.00000000000E+00 0.  1.
          2    1    1    2  501    0 -0.22807714543E+02  0.23401760860E+02 -0.83997780526E+02  0.90130246795E+02  0.00000000000E+00 0. -1.
          1    1    1    2  502    0  0.52893404409E+02 -0.41091290582E+01 -0.28445915481E+03  0.28936414417E+03  0.00000000000E+00 0.  1.
         22    1    1    2    0    0 -0.17709877130E+02 -0.37268355368E+02  0.13028768598E+03  0.13666547178E+03  0.00000000000E+00 0. -1.
         22    1    1    2    0    0 -0.12375812736E+02  0.17975723566E+02 -0.23494419924E+02  0.32066729583E+02  0.00000000000E+00 0. -1.
</event>
<event>
 6    1  0.2809573E-005  0.9539797E+02  0.7818608E-02  0.1416837E+00
          2   -1    0    0  502    0  0.00000000000E+00  0.00000000000E+00  0.30675355115E+02  0.30675355115E+02  0.00000000000E+00 0. -1.
          1   -1    0    0  501    0 -0.00000000000E+00 -0.00000000000E+00 -0.64341591259E+03  0.64341591259E+03  0.00000000000E+00 0. -1.
          2    1    1    2  501    0 -0.28701773570E+02  0.14612696421E+02 -0.14847382287E+03  0.15192695212E+03  0.00000000000E+00 0. -1.
          1    1    1    2  502    0  0.31289017450E+02 -0.82443864654E+02 -0.24781302531E+03  0.26303476756E+03  0.00000000000E+00 0. -1.
         22    1    1    2    0    0  0.85375173023E+01  0.70675967116E+01  0.15520279099E+02  0.19071423341E+02  0.00000000000E+00 0. -1.
         22    1    1    2    0    0 -0.11124761183E+02  0.60763571521E+02 -0.23197398839E+03  0.24005812468E+03  0.00000000000E+00 0. -1.
</event>
<event>
 6    1  0.2809573E-005  0.1114216E+03  0.7818608E-02  0.1277228E+00
          2   -1    0    0  502    0  0.00000000000E+00  0.00000000000E+00  0.35829640784E+03  0.35829640784E+03  0.00000000000E+00 0. -1.
          1   -1    0    0  501    0 -0.00000000000E+00 -0.00000000000E+00 -0.73988960433E+02  0.73988960433E+02  0.00000000000E+00 0.  1.
          2    1    1    2  501    0 -0.61513485938E+02 -0.59400823692E+02  0.40575304963E+02  0.94650526572E+02  0.00000000000E+00 0. -1.
          1    1    1    2  502    0  0.67054890302E+01  0.21671081081E+02 -0.23858243721E+02  0.32921347661E+02  0.00000000000E+00 0.  1.
         22    1    1    2    0    0  0.28356756999E+02  0.68340396187E+02  0.24978429122E+03  0.26051239426E+03  0.00000000000E+00 0.  1.
         22    1    1    2    0    0  0.26451239909E+02 -0.30610653575E+02  0.17806094941E+02  0.44201099784E+02  0.00000000000E+00 0.  1.
</event>
<event>
 6    1  0.2809573E-005  0.1680207E+03  0.7818608E-02  0.1206920E+00
          2   -1    0    0  502    0  0.00000000000E+00  0.00000000000E+00  0.41294511818E+03  0.41294511818E+03  0.00000000000E+00 0.  1.
          1   -1    0    0  501    0 -0.00000000000E+00 -0.00000000000E+00 -0.16893305279E+03  0.16893305279E+03  0.00000000000E+00 0.  1.
          2    1    1    2  501    0 -0.26902350973E+02  0.15932335375E+03  0.35866326935E+02  0.16551151303E+03  0.00000000000E+00 0.  1.
          1    1    1    2  502    0 -0.59786101508E+02 -0.14423950466E+03 -0.15326115794E+01  0.15614660270E+03  0.00000000000E+00 0.  1.
         22    1    1    2    0    0  0.79770294897E+02 -0.47542036826E+02  0.20705915552E+03  0.22692959061E+03  0.00000000000E+00 0.  1.
         22    1    1    2    0    0  0.69181575841E+01  0.32458187731E+02  0.26191945155E+01  0.33290464626E+02  0.00000000000E+00 0.  1.
</event>
<event>
 6    1  0.2809573E-005  0.1802337E+03  0.7818608E-02  0.1211923E+00
          2   -1    0    0  502    0  0.00000000000E+00  0.00000000000E+00  0.41607194634E+03  0.41607194634E+03  0.00000000000E+00 0.  1.
          1   -1    0    0  501    0 -0.00000000000E+00 -0.00000000000E+00 -0.72036142896E+03  0.72036142896E+03  0.00000000000E+00 0. -1.
          2    1    1    2  501    0 -0.32266274939E+02  0.21577780728E+03 -0.22021988898E+02  0.21928552758E+03  0.00000000000E+00 0.  1.
          1    1    1    2  502    0  0.37592370629E+02 -0.14439022814E+03 -0.57380510674E+03  0.59288618202E+03  0.00000000000E+00 0. -1.
         22    1    1    2    0    0 -0.15728029544E+02 -0.45867021262E+01 -0.72538715485E+01  0.17917237571E+02  0.00000000000E+00 0.  1.
         22    1    1    2    0    0  0.10401933855E+02 -0.66800877015E+02  0.29879148457E+03  0.30634442813E+03  0.00000000000E+00 0.  1.
</event>
<event>
 6    1  0.2809573E-005  0.4377602E+02  0.7818608E-02  0.1498416E+00
          2   -1    0    0  502    0  0.00000000000E+00  0.00000000000E+00  0.35678127388E+03  0.35678127388E+03  0.00000000000E+00 0.  1.
          1   -1    0    0  501    0 -0.00000000000E+00 -0.00000000000E+00 -0.13346031370E+03  0.13346031370E+03  0.00000000000E+00 0.  1.
          2    1    1    2  501    0 -0.57767059378E+01  0.22520023150E+02 -0.10037866168E+03  0.10303590391E+03  0.00000000000E+00 0.  1.
          1    1    1    2  502    0 -0.51411642767E+02 -0.31644779279E+02  0.45904020377E+02  0.75840148697E+02  0.00000000000E+00 0.  1.
         22    1    1    2    0    0  0.82176892846E+01  0.66494320290E+01 -0.12834955096E+02  0.16627730928E+02  0.00000000000E+00 0. -1.
         22    1    1    2    0    0  0.48970659420E+02  0.24753241002E+01  0.29063055658E+03  0.29473780404E+03  0.00000000000E+00 0.  1.
</event>
<event>
 6    1  0.2809573E-005  0.2102761E+03  0.7818608E-02  0.1283228E+00
          2   -1    0    0  502    0  0.00000000000E+00  0.00000000000E+00  0.13158409437E+03  0.13158409437E+03  0.00000000000E+00 0.  1.
          1   -1    0    0  501    0 -0.00000000000E+00 -0.00000000000E+00 -0.32628946286E+03  0.32628946286E+03  0.00000000000E+00 0.  1.
          2    1    1    2  501    0  0.49377358693E+02  0.13227027207E+03 -0.63092697804E+02  0.15464228704E+03  0.00000000000E+00 0.  1.
          1    1    1    2  502    0 -0.84890549545E+02 -0.72383578080E+02 -0.11622463191E+03  0.16110230551E+03  0.00000000000E+00 0.  1.
         22    1    1    2    0    0  0.44046897237E+02 -0.54348496610E+02 -0.62574249151E+02  0.93858536622E+02  0.00000000000E+00 0. -1.
         22    1    1    2    0    0 -0.85337063848E+01 -0.55381973851E+01  0.47186210374E+02  0.48270428053E+02  0.00000000000E+00 0. -1.
</event>
<event>
 6    1  0.2809573E-005  0.8109509E+02  0.7818608E-02  0.1367434E+00
          2   -1    0    0  502    0  0.00000000000E+00  0.00000000000E+00  0.12043014534E+03  0.12043014534E+03  0.00000000000E+00 0.  1.
          1   -1    0    0  501    0 -0.00000000000E+00 -0.00000000000E+00 -0.14528267587E+03  0.14528267587E+03  0.00000000000E+00 0. -1.
          2    1    1    2  501    0  0.17236673478E+02  0.23601311099E+02  0.90782213025E+01  0.30602923066E+02  0.00000000000E+00 0.  1.
          1    1    1    2  502    0  0.15047802871E+02 -0.44661208609E+02 -0.85913564895E+02  0.97990818747E+02  0.00000000000E+00 0. -1.
         22    1    1    2    0    0  0.23659134473E+02 -0.32032947879E+02  0.44365930954E+02  0.59617113510E+02  0.00000000000E+00 0.  1.
         22    1    1    2    0    0 -0.55943610821E+02  0.53092845389E+02  0.76168821103E+01  0.77501965887E+02  0.00000000000E+00 0. -1.
</event>
<event>
 6    1  0.2809573E-005  0.8609393E+02  0.7818608E-02  0.1314943E+00
          2   -1    0    0  502    0  0.00000000000E+00  0.00000000000E+00  0.26741508371E+03  0.26741508371E+03  0.00000000000E+00 0.  1.
          1   -1    0    0  501    0 -0.00000000000E+00 -0.00000000000E+00 -0.89856686564E+03  0.89856686564E+03  0.00000000000E+00 0. -1.
          2    1    1    2  501    0 -0.25935580951E+02  0.29287842129E+02  0.45486040577E+02  0.59995099327E+02  0.00000000000E+00 0.  1.
          1    1    1    2  502    0  0.31622012249E+02  0.36611672644E+01 -0.87071790921E+03  0.87129962310E+03  0.00000000000E+00 0. -1.
         22    1    1    2    0    0 -0.12545791251E+02  0.48294066073E+02  0.83986517665E+02  0.97690577056E+02  0.00000000000E+00 0.  1.
         22    1    1    2    0    0  0.68593599526E+01 -0.81243075467E+02  0.11009356904E+03  0.13699664986E+03  0.00000000000E+00 0.  1.
</event>
<event>
 6    1  0.2809573E-005  0.6852888E+02  0.7818608E-02  0.1381746E+00
          2   -1    0    0  502    0  0.00000000000E+00  0.00000000000E+00  0.22784528684E+03  0.22784528684E+03  0.00000000000E+00 0. -1.
          1   -1    0    0  501    0 -0.00000000000E+00 -0.00000000000E+00 -0.11747282708E+03  0.11747282708E+03  0.00000000000E+00 0. -1.
          2    1    1    2  501    0 -0.23150431188E+02 -0.15765809950E+02 -0.28280987170E+02  0.39803485562E+02  0.00000000000E+00 0. -1.
          1    1    1    2  502    0  0.63506265451E+02 -0.54943724301E+02 -0.23636924012E+02  0.87238539467E+02  0.00000000000E+00 0. -1.
         22    1    1    2    0    0 -0.29209712720E+02  0.43207430694E+02  0.17744825659E+03  0.18495397577E+03  0.00000000000E+00 0. -1.
         22    1    1    2    0    0 -0.11146121542E+02  0.27502103557E+02 -0.15157885645E+02  0.33322113120E+02  0.00000000000E+00 0. -1.
</event>
<event>
 6    1  0.2809573E-005  0.1009455E+03  0.7818608E-02  0.1281622E+00
          2   -1    0    0  502    0  0.00000000000E+00  0.00000000000E+00  0.46947747526E+03  0.46947747526E+03  0.00000000000E+00 0. -1.
          1   -1    0    0  501    0 -0.00000000000E+00 -0.00000000000E+00 -0.25412941222E+03  0.25412941222E+03  0.00000000000E+00 0.  1.
          2    1    1    2  501    0  0.90876514535E+01 -0.61945829904E+02 -0.15578826452E+02  0.64517990398E+02  0.00000000000E+00 0. -1.
          1    1    1    2  502    0 -0.17686363841E+02 -0.11709639242E+02 -0.20112544820E+03  0.20224086884E+03  0.00000000000E+00 0.  1.
         22    1    1    2    0    0  0.10281170081E+02 -0.22292850840E+02  0.14719117193E+02  0.28623872340E+02  0.00000000000E+00 0. -1.
         22    1    1    2    0    0 -0.16824576933E+01  0.95948319986E+02  0.41733322050E+03  0.42822415591E+03  0.00000000000E+00 0. -1.
</event>
<event>
 6    1  0.2809573E-005  0.1027589E+03  0.7818608E-02  0.1324559E+00
          2   -1    0    0  502    0  0.00000000000E+00  0.00000000000E+00  0.16833581339E+02  0.16833581339E+02  0.00000000000E+00 0.  1.
          1   -1    0    0  501    0 -0.00000000000E+00 -0.00000000000E+00 -0.65253881588E+03  0.65253881588E+03  0.00000000000E+00 0.  1.
          2    1    1    2  501    0 -0.20226191592E+02  0.11827593471E+02 -0.19064638146E+03  0.19208079956E+03  0.00000000000E+00 0.  1.
          1    1    1    2  502    0 -0.34304607482E+02  0.89289403912E+01 -0.97622899512E+02  0.10385934036E+03  0.00000000000E+00 0.  1.
         22    1    1    2    0    0 -0.31238496507E+02 -0.22699240302E+02 -0.46172092179E+02  0.60191039786E+02  0.00000000000E+00 0.  1.
         22    1    1    2    0    0  0.85769295581E+02  0.19427064403E+01 -0.30126386139E+03  0.31324121752E+03  0.00000000000E+00 0.  1.
</event>
<event>
 6    1  0.2809573E-005  0.1905156E+03  0.7818608E-02  0.1249515E+00
          2   -1    0    0  502    0  0.00000000000E+00  0.00000000000E+00  0.75791340364E+02  0.75791340364E+02  0.00000000000E+00 0.  1.
          1   -1    0    0  501    0 -0.00000000000E+00 -0.00000000000E+00 -0.10832438870E+04  0.10832438870E+04  0.00000000000E+00 0.  1.
          2    1    1    2  501    0 -0.53193187225E+02 -0.53543252087E+02 -0.10243801925E+03  0.12723970606E+03  0.00000000000E+00 0.  1.
          1    1    1    2  502    0 -0.49256396921E+02 -0.14543878682E+02 -0.84303923598E+03  0.84460219657E+03  0.00000000000E+00 0.  1.
         22    1    1    2    0    0  0.77444774868E+02  0.76423012813E+02 -0.95346105697E+02  0.14466875929E+03  0.00000000000E+00 0.  1.
         22    1    1    2    0    0  0.25004809278E+02 -0.83358820431E+01  0.33370814314E+02  0.42524565423E+02  0.00000000000E+00 0.  1.
</event>
<event>
 6    1  0.2809573E-005  0.7817704E+02  0.7818608E-02  0.1336737E+00
          2   -1    0    0  502    0  0.00000000000E+00  0.00000000000E+00  0.24683987108E+02  0.24683987108E+02  0.00000000000E+00 0. -1.
          1   -1    0    0  501    0 -0.00000000000E+00 -0.00000000000E+00 -0.68150228966E+03  0.68150228966E+03  0.00000000000E+00 0. -1.
          2    1    1    2  501    0  0.19003596914E+02 -0.15425435690E+02 -0.20113471104E+02  0.31680159118E+02  0.00000000000E+00 0. -1.
          1    1    1    2  502    0  0.61803577361E+01  0.70790367948E+02 -0.31342134171E+03  0.32137580876E+03  0.00000000000E+00 0. -1.
         22    1    1    2    0    0  0.50080221514E+02 -0.34162104853E+02 -0.10473297983E+03  0.12101270618E+03  0.00000000000E+00 0.  1.
         22    1    1    2    0    0 -0.75264176164E+02 -0.21202827405E+02 -0.21855050991E+03  0.23211760270E+03  0.00000000000E+00 0. -1.
</event>
<event>
 6    1  0.2809573E-005  0.3329022E+03  0.7818608E-02  0.1144210E+00
          2   -1    0    0  502    0  0.00000000000E+00  0.00000000000E+00  0.12507565530E+03  0.12507565530E+03  0.00000000000E+00 0. -1.
          1   -1    0    0  501    0 -0.00000000000E+00 -0.00000000000E+00 -0.71265362553E+03  0.71265362553E+03  0.00000000000E+00 0. -1.
          2    1    1    2  501    0 -0.74104772018E+02  0.18637933669E+02 -0.30414433486E+03  0.31359634282E+03  0.00000000000E+00 0. -1.
          1    1    1    2  502    0  0.62177593512E+01 -0.35328044118E+02 -0.36113495547E+03  0.36291209307E+03  0.00000000000E+00 0. -1.
         22    1    1    2    0    0  0.84601801638E+02 -0.31483216960E+02  0.49481900743E+02  0.10294229593E+03  0.00000000000E+00 0. -1.
         22    1    1    2    0    0 -0.16714788971E+02  0.48173327409E+02  0.28219419358E+02  0.58278548995E+02  0.00000000000E+00 0. -1.
</event>
<event>
 6    1  0.2809573E-005  0.3133652E+03  0.7818608E-02  0.1182348E+00
          2   -1    0    0  502    0  0.00000000000E+00  0.00000000000E+00  0.17180610294E+03  0.17180610294E+03  0.00000000000E+00 0. -1.
          1   -1    0    0  501    0 -0.00000000000E+00 -0.00000000000E+00 -0.89789772205E+03  0.89789772205E+03  0.00000000000E+00 0. -1.
          2    1    1    2  501    0  0.50747417793E+01 -0.31118249101E+02 -0.51544892767E+03  0.51641233087E+03  0.00000000000E+00 0. -1.
          1    1    1    2  502    0 -0.19764975128E+03 -0.33642949509E+02  0.43894449628E+02  0.20524130905E+03  0.00000000000E+00 0. -1.
         22    1    1    2    0    0  0.22514250953E+02 -0.97407985270E+01  0.86097968473E+01  0.25998139427E+02  0.00000000000E+00 0. -1.
         22    1    1    2    0    0  0.17006075855E+03  0.74501997137E+02 -0.26314693791E+03  0.32205204565E+03  0.00000000000E+00 0.  1.
</event>
<event>
 6    1  0.2809573E-005  0.1024127E+03  0.7818608E-02  0.1403845E+00
          2   -1    0    0  502    0  0.00000000000E+00  0.00000000000E+00  0.27195978888E+02  0.27195978888E+02  0.00000000000E+00 0. -1.
          1   -1    0    0  501    0 -0.00000000000E+00 -0.00000000000E+00 -0.89227081552E+03  0.89227081552E+03  0.00000000000E+00 0. -1.
          2    1    1    2  501    0  0.30822115659E+02 -0.20201964182E+02 -0.12144633009E+03  0.12691466922E+03  0.00000000000E+00 0. -1.
          1    1    1    2  502    0  0.19671673825E+02 -0.67783210228E+01 -0.57748383535E+03  0.57785854711E+03  0.00000000000E+00 0. -1.
         22    1    1    2    0    0 -0.57600932117E+02  0.35337818402E+02 -0.18272030536E+03  0.19481616663E+03  0.00000000000E+00 0. -1.
         22    1    1    2    0    0  0.71071426338E+01 -0.83575331970E+01  0.16575634167E+02  0.19877411441E+02  0.00000000000E+00 0.  1.
</event>
<event>
 6    1  0.2809573E-005  0.2249542E+03  0.7818608E-02  0.1196883E+00
          2   -1    0    0  502    0  0.00000000000E+00  0.00000000000E+00  0.12328002790E+03  0.12328002790E+03  0.00000000000E+00 0. -1.
          1   -1    0    0  501    0 -0.00000000000E+00 -0.00000000000E+00 -0.12541894052E+04  0.12541894052E+04  0.00000000000E+00 0. -1.
          2    1    1    2  501    0 -0.79490890495E+02  0.74856266156E+02  0.37275875220E+02  0.11537657097E+03  0.00000000000E+00 0. -1.
          1    1    1    2  502    0  0.37384760049E+02 -0.11381091011E+03 -0.11027308720E+04  0.11092186076E+04  0.00000000000E+00 0. -1.
         22    1    1    2    0    0  0.36721040403E+02 -0.88288412295E+01 -0.90926635411E+02  0.98458297125E+02  0.00000000000E+00 0.  1.
         22    1    1    2    0    0  0.53850900430E+01  0.47783485187E+02  0.25472254846E+02  0.54415957387E+02  0.00000000000E+00 0. -1.
</event>
<event>
 6    1  0.2809573E-005  0.1167179E+03  0.7818608E-02  0.1258871E+00
          2   -1    0    0  502    0  0.00000000000E+00  0.00000000000E+00  0.29389437483E+03  0.29389437483E+03  0.00000000000E+00 0.  1.
          1   -1    0    0  501    0 -0.00000000000E+00 -0.00000000000E+00 -0.10479419273E+03  0.10479419273E+03  0.00000000000E+00 0.  1.
          2    1    1    2  501    0 -0.30776383409E+02  0.82026127303E+02  0.30569614594E+02  0.92789938423E+02  0.00000000000E+00 0.  1.
          1    1    1    2  502    0  0.48133150734E+02  0.57397434677E+01 -0.34259779534E+02  0.59358886010E+02  0.00000000000E+00 0.  1.
         22    1    1    2    0    0 -0.42811636748E+02  0.19247951439E+01  0.14319730895E+02  0.45184021183E+02  0.00000000000E+00 0. -1.
         22    1    1    2    0    0  0.25454869423E+02 -0.89690665915E+02  0.17847061615E+03  0.20135572194E+03  0.00000000000E+00 0. -1.
</event>
<event>
 6    1  0.2809573E-005  0.1475169E+03  0.7818608E-02  0.1204582E+00
          2   -1    0    0  502    0  0.00000000000E+00  0.00000000000E+00  0.11408485286E+04  0.11408485286E+04  0.00000000000E+00 0. -1.
          1   -1    0    0  501    0 -0.00000000000E+00 -0.00000000000E+00 -0.49221623456E+02  0.49221623456E+02  0.00000000000E+00 0. -1.
          2    1    1    2  501    0  0.10187175095E+03  0.44261286100E+00  0.22702067318E+03  0.24883013403E+03  0.00000000000E+00 0. -1.
          1    1    1    2  502    0  0.21473248228E+02  0.63310235861E+02  0.11189199703E+02  0.67782627156E+02  0.00000000000E+00 0. -1.
         22    1    1    2    0    0  0.22726087082E+02  0.65867615718E+01  0.94590604886E+02  0.97505092148E+02  0.00000000000E+00 0. -1.
         22    1    1    2    0    0 -0.14607108626E+03 -0.70339610293E+02  0.75882642735E+03  0.77595229870E+03  0.00000000000E+00 0. -1.
</event>
<event>
 6    1  0.2809573E-005  0.2365577E+03  0.7818608E-02  0.1225001E+00
          2   -1    0    0  502    0  0.00000000000E+00  0.00000000000E+00  0.49851169758E+02  0.49851169758E+02  0.00000000000E+00 0.  1.
          1   -1    0    0  501    0 -0.00000000000E+00 -0.00000000000E+00 -0.10763560020E+04  0.10763560020E+04  0.00000000000E+00 0.  1.
          2    1    1    2  501    0 -0.30854224133E+02 -0.10550633370E+03 -0.26483777269E+03  0.28674486123E+03  0.00000000000E+00 0.  1.
          1    1    1    2  502    0 -0.68233020889E+02  0.15506334741E+03 -0.52489907817E+03  0.55156090245E+03  0.00000000000E+00 0.  1.
         22    1    1    2    0    0 -0.19652469271E+02  0.11369958558E+02 -0.10072333286E+02  0.24838425954E+02  0.00000000000E+00 0.  1.
         22    1    1    2    0    0  0.11873971429E+03 -0.60926972271E+02 -0.22669564814E+03  0.26306298217E+03  0.00000000000E+00 0.  1.
</event>
<event>
 6    1  0.2809573E-005  0.2773161E+03  0.7818608E-02  0.1202599E+00
          2   -1    0    0  502    0  0.00000000000E+00  0.00000000000E+00  0.29266031999E+03  0.29266031999E+03  0.00000000000E+00 0. -1.
          1   -1    0    0  501    0 -0.00000000000E+00 -0.00000000000E+00 -0.14033369605E+03  0.14033369605E+03  0.00000000000E+00 0. -1.
          2    1    1    2  501    0 -0.11308707164E+03  0.57957702711E+02  0.90892721680E+01  0.12739857120E+03  0.00000000000E+00 0. -1.
          1    1    1    2  502    0 -0.19152853045E+02 -0.79253250131E+02  0.62709581168E+02  0.10286107624E+03  0.00000000000E+00 0. -1.
         22    1    1    2    0    0  0.14764025801E+03  0.46605411426E+01  0.34892766127E+02  0.15177902212E+03  0.00000000000E+00 0. -1.
         22    1    1    2    0    0 -0.15400333324E+02  0.16635006278E+02  0.45635004479E+02  0.50955346473E+02  0.00000000000E+00 0.  1.
</event>
<event>
 6    1  0.2809573E-005  0.9591080E+02  0.7818608E-02  0.1311431E+00
          2   -1    0    0  502    0  0.00000000000E+00  0.00000000000E+00  0.10504360175E+03  0.10504360175E+03  0.00000000000E+00 0. -1.
          1   -1    0    0  501    0 -0.00000000000E+00 -0.00000000000E+00 -0.24470937145E+04  0.24470937145E+04  0.00000000000E+00 0. -1.
          2    1    1    2  501    0  0.92120308505E+02  0.58938406527E+02 -0.60209337288E+03  0.61194470066E+03  0.00000000000E+00 0. -1.
          1    1    1    2  502    0 -0.24637666305E+02 -0.71491062302E+02 -0.17882233168E+04  0.17898213925E+04  0.00000000000E+00 0. -1.
         22    1    1    2    0    0 -0.63578788256E+02 -0.15425019968E+01  0.87688738634E+02  0.10832338857E+03  0.00000000000E+00 0. -1.
         22    1    1    2    0    0 -0.39038539429E+01  0.14095157771E+02 -0.39422161746E+02  0.42047834485E+02  0.00000000000E+00 0. -1.
</event>
<event>
 6    1  0.2809573E-005  0.1057681E+03  0.7818608E-02  0.1270960E+00
          2   -1    0    0  502    0  0.00000000000E+00  0.00000000000E+00  0.18205125783E+03  0.18205125783E+03  0.00000000000E+00 0.  1.
          1   -1    0    0  501    0 -0.00000000000E+00 -0.00000000000E+00 -0.29600312195E+03  0.29600312195E+03  0.00000000000E+00 0.  1.
          2    1    1    2  501    0  0.69933822712E+02 -0.12211231374E+02  0.69577817909E+01  0.71332071737E+02  0.00000000000E+00 0.  1.
          1    1    1    2  502    0 -0.48581481102E+02 -0.67800171985E+02 -0.21419816914E+03  0.22986491531E+03  0.00000000000E+00 0.  1.
         22    1    1    2    0    0  0.24063860025E+02 -0.24320588365E+02  0.93771070548E+01  0.35475209857E+02  0.00000000000E+00 0.  1.
         22    1    1    2    0    0 -0.45416201635E+02  0.10433199172E+03  0.83911416176E+02  0.14138218287E+03  0.00000000000E+00 0. -1.
</event>
<event>
 6    1  0.2809573E-005  0.7430598E+02  0.7818608E-02  0.1348343E+00
          2   -1    0    0  502    0  0.00000000000E+00  0.00000000000E+00  0.71035299798E+02  0.71035299798E+02  0.00000000000E+00 0.  1.
          1   -1    0    0  501    0 -0.00000000000E+00 -0.00000000000E+00 -0.18091482093E+04  0.18091482093E+04  0.00000000000E+00 0.  1.
          2    1    1    2  501    0  0.35204303390E+02 -0.29618474563E+02 -0.42791145476E+02  0.62830558996E+02  0.00000000000E+00 0.  1.
          1    1    1    2  502    0 -0.39406214001E+02 -0.18101423367E+02 -0.16827852730E+04  0.16833439299E+04  0.00000000000E+00 0.  1.
         22    1    1    2    0    0 -0.90923424810E+01  0.72902584719E+02  0.32811443075E+02  0.80461471197E+02  0.00000000000E+00 0.  1.
         22    1    1    2    0    0  0.13294253092E+02 -0.25182686790E+02 -0.45347934083E+02  0.53547549008E+02  0.00000000000E+00 0. -1.
</event>
<event>
 6    1  0.2809573E-005  0.3558306E+03  0.7818608E-02  0.1180233E+00
          2   -1    0    0  502    0  0.00000000000E+00  0.00000000000E+00  0.21712963911E+02  0.21712963911E+02  0.00000000000E+00 0. -1.
          1   -1    0    0  501    0 -0.00000000000E+00 -0.00000000000E+00 -0.21648662092E+04  0.21648662092E+04  0.00000000000E+00 0. -1.
          2    1    1    2  501    0  0.12611934597E+03  0.86715044954E+02 -0.10404798936E+04  0.10516767552E+04  0.00000000000E+00 0. -1.
          1    1    1    2  502    0  0.92737717585E+01  0.22664077767E+02 -0.38446354720E+03  0.38524262795E+03  0.00000000000E+00 0. -1.
         22    1    1    2    0    0  0.54903135677E+01  0.16688754932E+02 -0.21551112274E+02  0.27804829158E+02  0.00000000000E+00 0.  1.
         22    1    1    2    0    0 -0.14088343130E+03 -0.12606787765E+03 -0.69665869220E+03  0.72185496079E+03  0.00000000000E+00 0. -1.
</event>
<event>
 6    1  0.2809573E-005  0.9038521E+02  0.7818608E-02  0.1307667E+00
          2   -1    0    0  502    0  0.00000000000E+00  0.00000000000E+00  0.60799519413E+03  0.60799519413E+03  0.00000000000E+00 0.  1.
          1   -1    0    0  501    0 -0.00000000000E+00 -0.00000000000E+00 -0.24532279475E+02  0.24532279475E+02  0.00000000000E+00 0.  1.
          2    1    1    2  501    0  0.27380003292E+02 -0.16340559439E+02  0.42664078547E+02  0.53262576556E+02  0.00000000000E+00 0.  1.
          1    1    1    2  502    0  0.16835002173E+01 -0.22389757937E+02  0.12758253329E+01  0.22489178814E+02  0.00000000000E+00 0.  1.
         22    1    1    2    0    0  0.49407408671E+02  0.81751007636E+01  0.14620310524E+03  0.15454213757E+03  0.00000000000E+00 0.  1.
         22    1    1    2    0    0 -0.78470912181E+02  0.30555216612E+02  0.39331990554E+03  0.40223358067E+03  0.00000000000E+00 0.  1.
</event>
<event>
 6    1  0.2809573E-005  0.6557850E+02  0.7818608E-02  0.1391507E+00
          2   -1    0    0  502    0  0.00000000000E+00  0.00000000000E+00  0.27362666393E+03  0.27362666393E+03  0.00000000000E+00 0.  1.
          1   -1    0    0  501    0 -0.00000000000E+00 -0.00000000000E+00 -0.13194168645E+03  0.13194168645E+03  0.00000000000E+00 0.  1.
          2    1    1    2  501    0  0.46733973897E+02  0.48923501080E+02 -0.16223896848E+02  0.69575772386E+02  0.00000000000E+00 0.  1.
          1    1    1    2  502    0 -0.16315130375E+02 -0.19913779033E+02 -0.67655415752E+02  0.72387826015E+02  0.00000000000E+00 0.  1.
         22    1    1    2    0    0 -0.22931684965E+02 -0.44189270602E+02  0.23764898535E+03  0.24280773062E+03  0.00000000000E+00 0.  1.
         22    1    1    2    0    0 -0.74871585571E+01  0.15179548556E+02 -0.12084695266E+02  0.20797021356E+02  0.00000000000E+00 0.  1.
</event>
<event>
 6    1  0.2809573E-005  0.1219643E+03  0.7818608E-02  0.1338336E+00
          2   -1    0    0  502    0  0.00000000000E+00  0.00000000000E+00  0.41244212179E+02  0.41244212179E+02  0.00000000000E+00 0.  1.
          1   -1    0    0  501    0 -0.00000000000E+00 -0.00000000000E+00 -0.56773619571E+03  0.56773619571E+03  0.00000000000E+00 0.  1.
          2    1    1    2  501    0  0.22633340207E+02 -0.32108093201E+02 -0.11217719157E+03  0.11885672066E+03  0.00000000000E+00 0.  1.
          1    1    1    2  502    0 -0.23456899868E+02 -0.52566534223E+02 -0.28060303491E+03  0.28644638220E+03  0.00000000000E+00 0.  1.
         22    1    1    2    0    0  0.19739641364E+02  0.81430192227E+02 -0.15426829266E+03  0.17555408218E+03  0.00000000000E+00 0.  1.
         22    1    1    2    0    0 -0.18916081703E+02  0.32444351965E+01  0.20556535620E+02  0.28123222849E+02  0.00000000000E+00 0.  1.
</event>
<event>
 6    1  0.2809573E-005  0.3319688E+03  0.7818608E-02  0.1189276E+00
          2   -1    0    0  502    0  0.00000000000E+00  0.00000000000E+00  0.14959587910E+03  0.14959587910E+03  0.00000000000E+00 0.  1.
          1   -1    0    0  501    0 -0.00000000000E+00 -0.00000000000E+00 -0.88042562903E+03  0.88042562903E+03  0.00000000000E+00 0.  1.
          2    1    1    2  501    0  0.69683008817E+02 -0.10527310046E+03 -0.11503996297E+03  0.17079912318E+03  0.00000000000E+00 0.  1.
          1    1    1    2  502    0 -0.25992692861E+03  0.20223291323E+03 -0.46468604817E+03  0.56955533776E+03  0.00000000000E+00 0.  1.
         22    1    1    2    0    0  0.17685419198E+02 -0.62808499729E-01  0.20959721125E+02  0.27424221170E+02  0.00000000000E+00 0.  1.
         22    1    1    2    0    0  0.17255850060E+03 -0.96897004272E+02 -0.17206345991E+03  0.26224282603E+03  0.00000000000E+00 0.  1.
</event>
<event>
 6    1  0.2809573E-005  0.1254654E+03  0.7818608E-02  0.1280434E+00
          2   -1    0    0  502    0  0.00000000000E+00  0.00000000000E+00  0.89960728015E+02  0.89960728015E+02  0.00000000000E+00 0.  1.
          1   -1    0    0  501    0 -0.00000000000E+00 -0.00000000000E+00 -0.93469244654E+03  0.93469244654E+03  0.00000000000E+00 0. -1.
          2    1    1    2  501    0 -0.17188556983E+02 -0.14283640346E+02 -0.61525802854E+02  0.65459096308E+02  0.00000000000E+00 0.  1.
          1    1    1    2  502    0 -0.27161347169E+02  0.32677178014E+02 -0.82038390776E+03  0.82148359256E+03  0.00000000000E+00 0. -1.
         22    1    1    2    0    0 -0.14359085801E+02  0.43332654709E+02  0.23792507283E+02  0.51478011927E+02  0.00000000000E+00 0. -1.
         22    1    1    2    0    0  0.58708989953E+02 -0.61726192377E+02  0.13385484804E+02  0.86232473756E+02  0.00000000000E+00 0.  1.
</event>
<event>
 6    1  0.2809573E-005  0.8470989E+02  0.7818608E-02  0.1430642E+00
          2   -1    0    0  502    0  0.00000000000E+00  0.00000000000E+00  0.11332660167E+03  0.11332660167E+03  0.00000000000E+00 0. -1.
          1   -1    0    0  501    0 -0.00000000000E+00 -0.00000000000E+00 -0.19789072007E+03  0.19789072007E+03  0.00000000000E+00 0.  1.
          2    1    1    2  501    0  0.20088272039E+02  0.12011708172E+01 -0.20733713326E+02  0.28894088550E+02  0.00000000000E+00 0. -1.
          1    1    1    2  502    0 -0.71268742631E+02  0.24072302415E+02 -0.11676500825E+03  0.13889843977E+03  0.00000000000E+00 0.  1.
         22    1    1    2    0    0  0.62369759897E+02 -0.31523329458E+02 -0.17330513958E+02  0.72000374747E+02  0.00000000000E+00 0. -1.
         22    1    1    2    0    0 -0.11189289304E+02  0.62498562261E+01  0.70265117131E+02  0.71424418678E+02  0.00000000000E+00 0. -1.
</event>
<event>
 6    1  0.2809573E-005  0.1115840E+03  0.7818608E-02  0.1258714E+00
          2   -1    0    0  502    0  0.00000000000E+00  0.00000000000E+00  0.87321373253E+03  0.87321373253E+03  0.00000000000E+00 0. -1.
          1   -1    0    0  501    0 -0.00000000000E+00 -0.00000000000E+00 -0.19361654112E+03  0.19361654112E+03  0.00000000000E+00 0.  1.
          2    1    1    2  501    0 -0.57450326868E+02  0.27224587551E+01  0.13667365258E+03  0.14828229547E+03  0.00000000000E+00 0. -1.
          1    1    1    2  502    0 -0.43917467540E+02 -0.75880818115E+01 -0.17624825625E+03  0.18179595917E+03  0.00000000000E+00 0.  1.
         22    1    1    2    0    0 -0.28942618387E+02  0.58353994759E+01  0.12100718775E+03  0.12455708142E+03  0.00000000000E+00 0.  1.
         22    1    1    2    0    0  0.13031041280E+03 -0.96977641957E+00  0.59816460733E+03  0.61219493759E+03  0.00000000000E+00 0. -1.
</event>
<event>
 6    1  0.2809573E-005  0.8284977E+02  0.7818608E-02  0.1342754E+00
          2   -1    0    0  502    0  0.00000000000E+00  0.00000000000E+00  0.84917713612E+02  0.84917713612E+02  0.00000000000E+00 0. -1.
          1   -1    0    0  501    0 -0.00000000000E+00 -0.00000000000E+00 -0.95999995654E+03  0.95999995654E+03  0.00000000000E+00 0.  1.
          2    1    1    2  501    0  0.87388739832E+01  0.23992862731E+02 -0.20658645784E+02  0.32845167470E+02  0.00000000000E+00 0. -1.
          1    1    1    2  502    0 -0.39388462396E+02 -0.41697441059E+02 -0.88049299678E+03  0.88235936270E+03  0.00000000000E+00 0.  1.
         22    1    1    2    0    0 -0.74115068869E+01  0.59757651659E+02  0.38732919994E+02  0.71597112074E+02  0.00000000000E+00 0. -1.
         22    1    1    2    0    0  0.38061095299E+02 -0.42053073331E+02 -0.12663520355E+02  0.58116027907E+02  0.00000000000E+00 0.  1.
</event>
<event>
 6    1  0.2809573E-005  0.9176432E+02  0.7818608E-02  0.1309993E+00
          2   -1    0    0  502    0  0.00000000000E+00  0.00000000000E+00  0.90449058411E+02  0.90449058411E+02  0.00000000000E+00 0.  1.
          1   -1    0    0  501    0 -0.00000000000E+00 -0.00000000000E+00 -0.10170195690E+04  0.10170195690E+04  0.00000000000E+00 0. -1.
          2    1    1    2  501    0  0.35435305467E+02 -0.18436783271E+02 -0.18320847572E+02  0.43945754137E+02  0.00000000000E+00 0.  1.
          1    1    1    2  502    0 -0.31715741865E+01  0.64259591279E+02 -0.92310342808E+03  0.92534279750E+03  0.00000000000E+00 0. -1.
         22    1    1    2    0    0  0.40436500675E+02 -0.12961463214E+02  0.35970564296E+02  0.55650620942E+02  0.00000000000E+00 0.  1.
         22    1    1    2    0    0 -0.72700231955E+02 -0.32861344794E+02 -0.21116799259E+02  0.82529454857E+02  0.00000000000E+00 0. -1.
</event>
<event>
 6    1  0.2809573E-005  0.7348607E+02  0.7818608E-02  0.1349838E+00
          2   -1    0    0  502    0  0.00000000000E+00  0.00000000000E+00  0.21688486138E+03  0.21688486138E+03  0.00000000000E+00 0. -1.
          1   -1    0    0  501    0 -0.00000000000E+00 -0.00000000000E+00 -0.27486134444E+03  0.27486134444E+03  0.00000000000E+00 0. -1.
          2    1    1    2  501    0 -0.14920343825E+01 -0.24507487735E+02  0.32662411784E+02  0.40861672326E+02  0.00000000000E+00 0. -1.
          1    1    1    2  502    0  0.30479134459E+02  0.10440847656E+02 -0.24632867352E+03  0.24842665786E+03  0.00000000000E+00 0. -1.
         22    1    1    2    0    0 -0.41480455342E+02  0.61868351862E+02  0.63573923226E+02  0.97928365921E+02  0.00000000000E+00 0. -1.
         22    1    1    2    0    0  0.12493355266E+02 -0.47801711782E+02  0.92115855447E+02  0.10452950971E+03  0.00000000000E+00 0. -1.
</event>
<event>
 6    1  0.2809573E-005  0.1048523E+03  0.7818608E-02  0.1273796E+00
          2   -1    0    0  502    0  0.00000000000E+00  0.00000000000E+00  0.48251041202E+03  0.48251041202E+03  0.00000000000E+00 0.  1.
          1   -1    0    0  501    0 -0.00000000000E+00 -0.00000000000E+00 -0.11096715588E+03  0.11096715588E+03  0.00000000000E+00 0. -1.
          2    1    1    2  501    0 -0.52492553416E+02  0.14080276541E+02  0.91287319630E+02  0.10624075055E+03  0.00000000000E+00 0.  1.
          1    1    1    2  502    0 -0.29348495508E+02  0.11846110410E+02 -0.84916329771E+02  0.90622555593E+02  0.00000000000E+00 0. -1.
         22    1    1    2    0    0 -0.29086227353E+02  0.11707731240E+02  0.13200022065E+03  0.13567290756E+03  0.00000000000E+00 0.  1.
         22    1    1    2    0    0  0.11092727628E+03 -0.37634118192E+02  0.23317204562E+03  0.26094135420E+03  0.00000000000E+00 0.  1.
</event>
<event>
 6    1  0.2809573E-005  0.1648734E+03  0.7818608E-02  0.1283233E+00
          2   -1    0    0  502    0  0.00000000000E+00  0.00000000000E+00  0.20617223441E+02  0.20617223441E+02  0.00000000000E+00 0.  1.
          1   -1    0    0  501    0 -0.00000000000E+00 -0.00000000000E+00 -0.28178057753E+04  0.28178057753E+04  0.00000000000E+00 0.  1.
          2    1    1    2  501    0  0.63969158930E+01  0.63519527402E+02 -0.99813748002E+03  0.10001770243E+04  0.00000000000E+00 0.  1.
          1    1    1    2  502    0 -0.11763613270E+02 -0.22190738151E+02 -0.16054356484E+04  0.16056320975E+04  0.00000000000E+00 0.  1.
         22    1    1    2    0    0  0.82188196613E+01  0.19436720215E+02  0.75800355094E+01  0.22423024498E+02  0.00000000000E+00 0.  1.
         22    1    1    2    0    0 -0.28521222840E+01 -0.60765509466E+02 -0.20119545895E+03  0.21019085243E+03  0.00000000000E+00 0.  1.
</event>
<event>
 6    1  0.2809573E-005  0.1038999E+03  0.7818608E-02  0.1348486E+00
          2   -1    0    0  502    0  0.00000000000E+00  0.00000000000E+00  0.75432732845E+02  0.75432732845E+02  0.00000000000E+00 0. -1.
          1   -1    0    0  501    0 -0.00000000000E+00 -0.00000000000E+00 -0.93192694638E+03  0.93192694638E+03  0.00000000000E+00 0.  1.
          2    1    1    2  501    0  0.15311144007E+02  0.15523224149E+02 -0.46852850109E+02  0.51677762936E+02  0.00000000000E+00 0. -1.
          1    1    1    2  502    0 -0.14473606922E+02  0.42179708454E+02 -0.81987567484E+03  0.82108753206E+03  0.00000000000E+00 0.  1.
         22    1    1    2    0    0  0.17669076487E+02  0.19157341365E+02  0.41971821822E+02  0.49404795507E+02  0.00000000000E+00 0.  1.
         22    1    1    2    0    0 -0.18506613573E+02 -0.76860273967E+02 -0.31737510406E+02  0.85189588725E+02  0.00000000000E+00 0. -1.
</event>
<event>
 6    1  0.2809573E-005  0.1425723E+03  0.7818608E-02  0.1288718E+00
          2   -1    0    0  502    0  0.00000000000E+00  0.00000000000E+00  0.46271151013E+02  0.46271151013E+02  0.00000000000E+00 0. -1.
          1   -1    0    0  501    0 -0.00000000000E+00 -0.00000000000E+00 -0.65151149329E+03  0.65151149329E+03  0.00000000000E+00 0.  1.
          2    1    1    2  501    0 -0.11059017263E+02 -0.27564923889E+02 -0.25325289601E+03  0.25498854136E+03  0.00000000000E+00 0. -1.
          1    1    1    2  502    0 -0.35961564935E+02  0.15158126188E+02 -0.28904525781E+03  0.29166790020E+03  0.00000000000E+00 0.  1.
         22    1    1    2    0    0  0.75534208638E+02  0.19692204750E+02 -0.84204097781E+02  0.11481955271E+03  0.00000000000E+00 0.  1.
         22    1    1    2    0    0 -0.28513626440E+02 -0.72854070486E+01  0.21261909317E+02  0.36306650030E+02  0.00000000000E+00 0. -1.
</event>
<event>
 6    1  0.2809573E-005  0.8604140E+02  0.7818608E-02  0.1388908E+00
          2   -1    0    0  502    0  0.00000000000E+00  0.00000000000E+00  0.35157865050E+02  0.35157865050E+02  0.00000000000E+00 0. -1.
          1   -1    0    0  501    0 -0.00000000000E+00 -0.00000000000E+00 -0.11244481280E+04  0.11244481280E+04  0.00000000000E+00 0.  1.
          2    1    1    2  501    0 -0.13628788464E+02  0.53077682431E+02 -0.22158324414E+03  0.22825888445E+03  0.00000000000E+00 0. -1.
          1    1    1    2  502    0  0.23766713547E+02 -0.33366389577E+02 -0.76387296308E+03  0.76497063758E+03  0.00000000000E+00 0.  1.
         22    1    1    2    0    0  0.23460213778E+02  0.56516155209E+00  0.23453024514E+02  0.33177483282E+02  0.00000000000E+00 0. -1.
         22    1    1    2    0    0 -0.33598138860E+02 -0.20276454407E+02 -0.12728708022E+03  0.13319898772E+03  0.00000000000E+00 0. -1.
</event>
<event>
 6    1  0.2809573E-005  0.1396694E+03  0.7818608E-02  0.1225142E+00
          2   -1    0    0  502    0  0.00000000000E+00  0.00000000000E+00  0.20289591037E+04  0.20289591037E+04  0.00000000000E+00 0.  1.
          1   -1    0    0  501    0 -0.00000000000E+00 -0.00000000000E+00 -0.23037924773E+02  0.23037924773E+02  0.00000000000E+00 0.  1.
          2    1    1    2  501    0 -0.61459708815E+01 -0.38670669611E+02  0.46308858802E+02  0.60644076790E+02  0.00000000000E+00 0.  1.
          1    1    1    2  502    0  0.11697284917E+03 -0.76320822205E+02  0.10453331065E+04  0.10546225955E+04  0.00000000000E+00 0.  1.
         22    1    1    2    0    0 -0.12080067349E+03  0.11243886885E+03  0.91114289759E+03  0.92596797016E+03  0.00000000000E+00 0.  1.
         22    1    1    2    0    0  0.99737952034E+01  0.25526229697E+01  0.31363160204E+01  0.10762386026E+02  0.00000000000E+00 0. -1.
</event>
<event>
 6    1  0.2809573E-005  0.1169686E+03  0.7818608E-02  0.1259568E+00
          2   -1    0    0  502    0  0.00000000000E+00  0.00000000000E+00  0.72236169033E+03  0.72236169033E+03  0.00000000000E+00 0. -1.
          1   -1    0    0  501    0 -0.00000000000E+00 -0.00000000000E+00 -0.12085419781E+04  0.12085419781E+04  0.00000000000E+00 0. -1.
          2    1    1    2  501    0  0.25969402472E+02  0.15002374423E+02  0.11318077552E+03  0.11708701487E+03  0.00000000000E+00 0. -1.
          1    1    1    2  502    0 -0.11539989962E+03  0.71288401369E+01 -0.11940356489E+04  0.11996203933E+04  0.00000000000E+00 0. -1.
         22    1    1    2    0    0  0.31683563186E+02  0.51158633155E+02  0.22053642670E+03  0.22859870827E+03  0.00000000000E+00 0.  1.
         22    1    1    2    0    0  0.57746933963E+02 -0.73289847715E+02  0.37413815890E+03  0.38559755200E+03  0.00000000000E+00 0. -1.
</event>
<event>
 6    1  0.2809573E-005  0.1764159E+03  0.7818608E-02  0.1298997E+00
          2   -1    0    0  502    0  0.00000000000E+00  0.00000000000E+00  0.61901793263E+02  0.61901793263E+02  0.00000000000E+00 0.  1.
          1   -1    0    0  501    0 -0.00000000000E+00 -0.00000000000E+00 -0.18003423882E+04  0.18003423882E+04  0.00000000000E+00 0. -1.
          2    1    1    2  501    0  0.16439335896E+02 -0.26403326681E+02 -0.14344221355E+02  0.34251191378E+02  0.00000000000E+00 0.  1.
          1    1    1    2  502    0 -0.43145979018E+02 -0.11105862021E+03 -0.15994365638E+04  0.16038681100E+04  0.00000000000E+00 0. -1.
         22    1    1    2    0    0  0.15628120881E+02  0.14393014888E+03 -0.14184314512E+03  0.20268103942E+03  0.00000000000E+00 0.  1.
         22    1    1    2    0    0  0.11078522242E+02 -0.64682019879E+01  0.17183335310E+02  0.21443840710E+02  0.00000000000E+00 0.  1.
</event>
<event>
 6    1  0.2809573E-005  0.1857301E+03  0.7818608E-02  0.1255151E+00
          2   -1    0    0  502    0  0.00000000000E+00  0.00000000000E+00  0.34711965929E+02  0.34711965929E+02  0.00000000000E+00 0.  1.
          1   -1    0    0  501    0 -0.00000000000E+00 -0.00000000000E+00 -0.57022392010E+03  0.57022392010E+03  0.00000000000E+00 0.  1.
          2    1    1    2  501    0 -0.52360224534E+02  0.58598448012E+02 -0.15450401187E+03  0.17334030376E+03  0.00000000000E+00 0.  1.
          1    1    1    2  502    0 -0.32221210645E+02 -0.43333806926E+02 -0.10599806147E+03  0.11896055763E+03  0.00000000000E+00 0.  1.
         22    1    1    2    0    0  0.10020007175E+03 -0.35332882495E+02 -0.26464110692E+03  0.28517254853E+03  0.00000000000E+00 0.  1.
         22    1    1    2    0    0 -0.15618636570E+02  0.20068241409E+02 -0.10368773918E+02  0.27462476111E+02  0.00000000000E+00 0. -1.
</event>
<event>
 6    1  0.2809573E-005  0.1643330E+03  0.7818608E-02  0.1211745E+00
          2   -1    0    0  502    0  0.00000000000E+00  0.00000000000E+00  0.17445887039E+03  0.17445887039E+03  0.00000000000E+00 0.  1.
          1   -1    0    0  501    0 -0.00000000000E+00 -0.00000000000E+00 -0.21260591848E+04  0.21260591848E+04  0.00000000000E+00 0.  1.
          2    1    1    2  501    0 -0.17789538538E+02  0.22394044484E+02 -0.41761697776E+02  0.50616206010E+02  0.00000000000E+00 0.  1.
          1    1    1    2  502    0 -0.66376572933E+02 -0.70384520327E+02 -0.20413937861E+04  0.20436850100E+04  0.00000000000E+00 0.  1.
         22    1    1    2    0    0 -0.52953456296E+01  0.44488031547E+02  0.10287161756E+03  0.11220425721E+03  0.00000000000E+00 0.  1.
         22    1    1    2    0    0  0.89461457100E+02  0.35024442957E+01  0.28683551901E+02  0.94012581989E+02  0.00000000000E+00 0.  1.
</event>
<event>
 6    1  0.2809573E-005  0.8984199E+02  0.7818608E-02  0.1306019E+00
          2   -1    0    0  502    0  0.00000000000E+00  0.00000000000E+00  0.91045139112E+03  0.91045139112E+03  0.00000000000E+00 0. -1.
          1   -1    0    0  501    0 -0.00000000000E+00 -0.00000000000E+00 -0.16149262854E+03  0.16149262854E+03  0.00000000000E+00 0. -1.
          2    1    1    2  501    0 -0.35707226856E+02  0.52869486585E+02  0.27582897260E+03  0.28311095137E+03  0.00000000000E+00 0. -1.
          1    1    1    2  502    0  0.19744197134E+02 -0.56331972853E+02 -0.14577808643E+03  0.15752579144E+03  0.00000000000E+00 0. -1.
         22    1    1    2    0    0  0.61981459283E+02 -0.27741801859E+02  0.30007038943E+03  0.30765816660E+03  0.00000000000E+00 0. -1.
         22    1    1    2    0    0 -0.46018429562E+02  0.31204288127E+02  0.31883748698E+03  0.32364911025E+03  0.00000000000E+00 0. -1.
</event>
<event>
 6    1  0.2809573E-005  0.6715321E+02  0.7818608E-02  0.1424599E+00
          2   -1    0    0  502    0  0.00000000000E+00  0.00000000000E+00  0.25105885591E+03  0.25105885591E+03  0.00000000000E+00 0.  1.
          1   -1    0    0  501    0 -0.00000000000E+00 -0.00000000000E+00 -0.19821163445E+03  0.19821163445E+03  0.00000000000E+00 0.  1.
          2    1    1    2  501    0 -0.85260342763E+01 -0.22084241679E+02  0.30452808319E+02  0.38571758134E+02  0.00000000000E+00 0.  1.
          1    1    1    2  502    0 -0.41275690571E+02 -0.35993359836E+02 -0.16566380078E+03  0.17448122957E+03  0.00000000000E+00 0.  1.
         22    1    1    2    0    0 -0.11701050565E+02  0.26017873099E+02  0.15812308235E+03  0.16067592687E+03  0.00000000000E+00 0.  1.
         22    1    1    2    0    0  0.61502775412E+02  0.32059728417E+02  0.29935131573E+02  0.75541575784E+02  0.00000000000E+00 0.  1.
</event>
<event>
 6    1  0.2809573E-005  0.4868511E+02  0.7818608E-02  0.1488316E+00
          2   -1    0    0  502    0  0.00000000000E+00  0.00000000000E+00  0.15977385000E+03  0.15977385000E+03  0.00000000000E+00 0.  1.
          1   -1    0    0  501    0 -0.00000000000E+00 -0.00000000000E+00 -0.15720657895E+03  0.15720657895E+03  0.00000000000E+00 0.  1.
          2    1    1    2  501    0 -0.73671877718E+01 -0.18641942260E+02 -0.41716818202E+00  0.20049226823E+02  0.00000000000E+00 0.  1.
          1    1    1    2  502    0 -0.33269489288E+02  0.12881204112E+02 -0.11338321545E+03  0.11886352629E+03  0.00000000000E+00 0.  1.
         22    1    1    2    0    0  0.24195775814E+02 -0.18346243981E+02 -0.21461527068E+02  0.37183563298E+02  0.00000000000E+00 0.  1.
         22    1    1    2    0    0  0.16440901246E+02  0.24106982128E+02  0.13782918175E+03  0.14088411253E+03  0.00000000000E+00 0.  1.
</event>
<event>
 6    1  0.2809573E-005  0.1285376E+03  0.7818608E-02  0.1329045E+00
          2   -1    0    0  502    0  0.00000000000E+00  0.00000000000E+00  0.15345271239E+03  0.15345271239E+03  0.00000000000E+00 0.  1.
          1   -1    0    0  501    0 -0.00000000000E+00 -0.00000000000E+00 -0.33085663644E+03  0.33085663644E+03  0.00000000000E+00 0.  1.
          2    1    1    2  501    0  0.78961944343E+02 -0.78029161147E+01  0.17247120624E+02  0.81199367757E+02  0.00000000000E+00 0.  1.
          1    1    1    2  502    0 -0.56516175058E+02  0.39256511631E+02 -0.25406088365E+03  0.26321490146E+03  0.00000000000E+00 0.  1.
         22    1    1    2    0    0  0.15306761727E+01 -0.19228411507E+02  0.94061830101E+02  0.96019282754E+02  0.00000000000E+00 0. -1.
         22    1    1    2    0    0 -0.23976445458E+02 -0.12225184009E+02 -0.34651991121E+02  0.43875796853E+02  0.00000000000E+00 0. -1.
</event>
<event>
 6    1  0.2809573E-005  0.7308707E+02  0.7818608E-02  0.1422373E+00
          2   -1    0    0  502    0  0.00000000000E+00  0.00000000000E+00  0.22391361540E+03  0.22391361540E+03  0.00000000000E+00 0. -1.
          1   -1    0    0  501    0 -0.00000000000E+00 -0.00000000000E+00 -0.31722936954E+03  0.31722936954E+03  0.00000000000E+00 0. -1.
          2    1    1    2  501    0  0.11068947576E+02  0.53940860451E+02 -0.26427028755E+03  0.26994614817E+03  0.00000000000E+00 0. -1.
          1    1    1    2  502    0  0.39917498524E+01 -0.52899541259E+02  0.12218588258E+03  0.13320542569E+03  0.00000000000E+00 0. -1.
         22    1    1    2    0    0  0.24816409794E+01 -0.15344375850E+02  0.89797761683E+02  0.91133124688E+02  0.00000000000E+00 0. -1.
         22    1    1    2    0    0 -0.17542338408E+02  0.14303056658E+02 -0.41029110847E+02  0.46858286390E+02  0.00000000000E+00 0.  1.
</event>
<event>
 6    1  0.2809573E-005  0.1597638E+03  0.7818608E-02  0.1298579E+00
          2   -1    0    0  502    0  0.00000000000E+00  0.00000000000E+00  0.31799965159E+03  0.31799965159E+03  0.00000000000E+00 0. -1.
          1   -1    0    0  501    0 -0.00000000000E+00 -0.00000000000E+00 -0.23242997462E+03  0.23242997462E+03  0.00000000000E+00 0. -1.
          2    1    1    2  501    0  0.69093047157E+02  0.10934966661E+03 -0.12810919500E+03  0.18205264238E+03  0.00000000000E+00 0. -1.
          1    1    1    2  502    0 -0.10715580130E+03 -0.96915664113E+02  0.18831771996E+03  0.23735748430E+03  0.00000000000E+00 0. -1.
         22    1    1    2    0    0  0.89941789371E+01 -0.14902535674E+02  0.73060919757E+02  0.75105784199E+02  0.00000000000E+00 0.  1.
         22    1    1    2    0    0  0.29068575206E+02  0.24685331784E+01 -0.47699767737E+02  0.55913715336E+02  0.00000000000E+00 0.  1.
</event>
<event>
 6    1  0.2809573E-005  0.4656176E+02  0.7818608E-02  0.1527068E+00
          2   -1    0    0  502    0  0.00000000000E+00  0.00000000000E+00  0.10364469135E+03  0.10364469135E+03  0.00000000000E+00 0.  1.
          1   -1    0    0  501    0 -0.00000000000E+00 -0.00000000000E+00 -0.59924118946E+03  0.59924118946E+03  0.00000000000E+00 0.  1.
          2    1    1    2  501    0  0.17743511913E+02  0.11023096238E+02 -0.15899855551E+02  0.26251595613E+02  0.00000000000E+00 0.  1.
          1    1    1    2  502    0  0.26262635426E+01 -0.36235350730E+02 -0.53592527340E+03  0.53715528162E+03  0.00000000000E+00 0.  1.
         22    1    1    2    0    0 -0.17201597928E+02 -0.95848043465E+01  0.89254005393E+02  0.91400442692E+02  0.00000000000E+00 0.  1.
         22    1    1    2    0    0 -0.31681775278E+01  0.34797058839E+02 -0.33025374545E+02  0.48078560882E+02  0.00000000000E+00 0.  1.
</event>
<event>
 6    1  0.2809573E-005  0.7683807E+02  0.7818608E-02  0.1435931E+00
          2   -1    0    0  502    0  0.00000000000E+00  0.00000000000E+00  0.60333469172E+02  0.60333469172E+02  0.00000000000E+00 0.  1.
          1   -1    0    0  501    0 -0.00000000000E+00 -0.00000000000E+00 -0.67351003304E+03  0.67351003304E+03  0.00000000000E+00 0. -1.
          2    1    1    2  501    0  0.58544651868E+02  0.19231392952E+02 -0.19632943432E+03  0.20577310202E+03  0.00000000000E+00 0.  1.
          1    1    1    2  502    0 -0.36263647582E+02 -0.42397804580E+02 -0.38814922704E+03  0.39213830267E+03  0.00000000000E+00 0. -1.
         22    1    1    2    0    0 -0.80073283849E+01  0.16263270995E+02 -0.80107545661E+02  0.82133002887E+02  0.00000000000E+00 0. -1.
         22    1    1    2    0    0 -0.14273675902E+02  0.69031406333E+01  0.51409643151E+02  0.53799094632E+02  0.00000000000E+00 0.  1.
</event>
<event>
 6    1  0.2809573E-005  0.3826721E+03  0.7818608E-02  0.1049951E+00
          2   -1    0    0  502    0  0.00000000000E+00  0.00000000000E+00  0.52167361240E+03  0.52167361240E+03  0.00000000000E+00 0. -1.
          1   -1    0    0  501    0 -0.00000000000E+00 -0.00000000000E+00 -0.48489756240E+03  0.48489756240E+03  0.00000000000E+00 0.  1.
          2    1    1    2  501    0 -0.16387354616E+02 -0.75285341124E+02  0.19825934913E+02  0.79558127646E+02  0.00000000000E+00 0. -1.
          1    1    1    2  502    0  0.53553999688E+02  0.33325402566E+03 -0.33320392835E+03  0.47429013733E+03  0.00000000000E+00 0.  1.
         22    1    1    2    0    0 -0.54313528722E+02 -0.13553727277E+03  0.11068424151E+03  0.18322476097E+03  0.00000000000E+00 0. -1.
         22    1    1    2    0    0  0.17146883651E+02 -0.12243141176E+03  0.23946980192E+03  0.26949814886E+03  0.00000000000E+00 0.  1.
</event>
<event>
 6    1  0.2809573E-005  0.1014192E+03  0.7818608E-02  0.1329932E+00
          2   -1    0    0  502    0  0.00000000000E+00  0.00000000000E+00  0.29103048928E+03  0.29103048928E+03  0.00000000000E+00 0. -1.
          1   -1    0    0  501    0 -0.00000000000E+00 -0.00000000000E+00 -0.30700556327E+03  0.30700556327E+03  0.00000000000E+00 0.  1.
          2    1    1    2  501    0 -0.21121554675E+02 -0.19340810168E+02  0.19366594220E+02  0.34572416484E+02  0.00000000000E+00 0. -1.
          1    1    1    2  502    0 -0.15475735742E+02  0.21902003390E+02 -0.28328888395E+03  0.28455542153E+03  0.00000000000E+00 0.  1.
         22    1    1    2    0    0  0.11089891610E+02  0.44532497751E+02  0.20552037105E+03  0.21058193647E+03  0.00000000000E+00 0. -1.
         22    1    1    2    0    0  0.25507398807E+02 -0.47093690973E+02  0.42426844696E+02  0.68326278065E+02  0.00000000000E+00 0. -1.
</event>
<event>
 6    1  0.2809573E-005  0.1545118E+03  0.7818608E-02  0.1239266E+00
          2   -1    0    0  502    0  0.00000000000E+00  0.00000000000E+00  0.95707429748E+02  0.95707429748E+02  0.00000000000E+00 0. -1.
          1   -1    0    0  501    0 -0.00000000000E+00 -0.00000000000E+00 -0.46210892766E+03  0.46210892766E+03  0.00000000000E+00 0.  1.
          2    1    1    2  501    0 -0.51010103042E+02 -0.90992739954E+02 -0.45044210436E+02  0.11362521829E+03  0.00000000000E+00 0. -1.
          1    1    1    2  502    0  0.97420420586E+02  0.10088977692E+03 -0.67245880326E+02  0.15553614967E+03  0.00000000000E+00 0.  1.
         22    1    1    2    0    0 -0.10587409116E+02 -0.58964861012E+02 -0.58136975055E+02  0.83479673781E+02  0.00000000000E+00 0. -1.
         22    1    1    2    0    0 -0.35822908427E+02  0.49067824045E+02 -0.19597443209E+03  0.20517531567E+03  0.00000000000E+00 0.  1.
</event>
<event>
 6    1  0.2809573E-005  0.3853293E+03  0.7818608E-02  0.1096237E+00
          2   -1    0    0  502    0  0.00000000000E+00  0.00000000000E+00  0.27539875821E+03  0.27539875821E+03  0.00000000000E+00 0.  1.
          1   -1    0    0  501    0 -0.00000000000E+00 -0.00000000000E+00 -0.62143620635E+03  0.62143620635E+03  0.00000000000E+00 0.  1.
          2    1    1    2  501    0 -0.18858016853E+02  0.47872185882E+02 -0.13374352179E+03  0.14329933916E+03  0.00000000000E+00 0.  1.
          1    1    1    2  502    0  0.14545528640E+03 -0.24770930509E+03 -0.34955174580E+03  0.45244177876E+03  0.00000000000E+00 0.  1.
         22    1    1    2    0    0 -0.10290282279E+03  0.96618632204E+02  0.13477341285E+03  0.19516153268E+03  0.00000000000E+00 0.  1.
         22    1    1    2    0    0 -0.23694446754E+02  0.10321848701E+03  0.24844066059E+01  0.10593231397E+03  0.00000000000E+00 0. -1.
</event>
<event>
 6    1  0.2809573E-005  0.1277874E+03  0.7818608E-02  0.1234557E+00
          2   -1    0    0  502    0  0.00000000000E+00  0.00000000000E+00  0.72413949160E+03  0.72413949160E+03  0.00000000000E+00 0.  1.
          1   -1    0    0  501    0 -0.00000000000E+00 -0.00000000000E+00 -0.39200371732E+02  0.39200371732E+02  0.00000000000E+00 0.  1.
          2    1    1    2  501    0  0.13987668879E+01  0.11339256698E+03  0.18654965873E+03  0.21831309161E+03  0.00000000000E+00 0.  1.
          1    1    1    2  502    0  0.27909937835E+02 -0.45022897597E+02  0.46604366897E+02  0.70554893181E+02  0.00000000000E+00 0.  1.
         22    1    1    2    0    0 -0.16122508640E+02  0.36165541843E+02  0.12252363792E+03  0.12876305197E+03  0.00000000000E+00 0.  1.
         22    1    1    2    0    0 -0.13186196083E+02 -0.10453521123E+03  0.32926145631E+03  0.34570882657E+03  0.00000000000E+00 0.  1.
</event>
<event>
 6    1  0.2809573E-005  0.1091432E+03  0.7818608E-02  0.1276255E+00
          2   -1    0    0  502    0  0.00000000000E+00  0.00000000000E+00  0.58402872991E+03  0.58402872991E+03  0.00000000000E+00 0.  1.
          1   -1    0    0  501    0 -0.00000000000E+00 -0.00000000000E+00 -0.34776053560E+03  0.34776053560E+03  0.00000000000E+00 0. -1.
          2    1    1    2  501    0 -0.23034727014E+02 -0.53378513898E+02  0.84838128148E+02  0.10284635328E+03  0.00000000000E+00 0.  1.
          1    1    1    2  502    0 -0.17428861874E+02  0.24788380821E+02 -0.32890410856E+03  0.33029705067E+03  0.00000000000E+00 0. -1.
         22    1    1    2    0    0  0.89192912013E+01  0.76135224555E+02  0.28796473787E+03  0.29799298050E+03  0.00000000000E+00 0.  1.
         22    1    1    2    0    0  0.31544297687E+02 -0.47545091477E+02  0.19236943686E+03  0.20065288106E+03  0.00000000000E+00 0.  1.
</event>
<event>
 6    1  0.2809573E-005  0.1507909E+03  0.7818608E-02  0.1201143E+00
          2   -1    0    0  502    0  0.00000000000E+00  0.00000000000E+00  0.40187900248E+03  0.40187900248E+03  0.00000000000E+00 0.  1.
          1   -1    0    0  501    0 -0.00000000000E+00 -0.00000000000E+00 -0.70957819287E+03  0.70957819287E+03  0.00000000000E+00 0.  1.
          2    1    1    2  501    0  0.97885328967E+01 -0.13541111915E+03  0.17576422453E+03  0.22209243388E+03  0.00000000000E+00 0.  1.
          1    1    1    2  502    0  0.47542110421E+02  0.42627574073E+02 -0.65050228947E+03  0.65362878680E+03  0.00000000000E+00 0.  1.
         22    1    1    2    0    0 -0.41697826363E+02  0.12251879406E+03  0.11149781667E+03  0.17082542769E+03  0.00000000000E+00 0.  1.
         22    1    1    2    0    0 -0.15632816954E+02 -0.29735248985E+02  0.55541057879E+02  0.64910546974E+02  0.00000000000E+00 0.  1.
</event>
<event>
 6    1  0.2809573E-005  0.1145104E+03  0.7818608E-02  0.1295671E+00
          2   -1    0    0  502    0  0.00000000000E+00  0.00000000000E+00  0.37008743856E+03  0.37008743856E+03  0.00000000000E+00 0. -1.
          1   -1    0    0  501    0 -0.00000000000E+00 -0.00000000000E+00 -0.10431662376E+03  0.10431662376E+03  0.00000000000E+00 0. -1.
          2    1    1    2  501    0  0.40238547403E+02  0.82061409034E+01  0.60826560470E+02  0.73391770003E+02  0.00000000000E+00 0. -1.
          1    1    1    2  502    0 -0.19012398528E+02  0.76915550835E+01 -0.84157362080E+02  0.86620395460E+02  0.00000000000E+00 0. -1.
         22    1    1    2    0    0  0.43639844481E+02 -0.33050882724E+02  0.15617645460E+03  0.16549284531E+03  0.00000000000E+00 0. -1.
         22    1    1    2    0    0 -0.64865993356E+02  0.17153186737E+02  0.13292516180E+03  0.14889905154E+03  0.00000000000E+00 0.  1.
</event>
<event>
 6    1  0.2809573E-005  0.2224462E+03  0.7818608E-02  0.1263553E+00
          2   -1    0    0  502    0  0.00000000000E+00  0.00000000000E+00  0.26524659925E+03  0.26524659925E+03  0.00000000000E+00 0. -1.
          1   -1    0    0  501    0 -0.00000000000E+00 -0.00000000000E+00 -0.38444103189E+03  0.38444103189E+03  0.00000000000E+00 0. -1.
          2    1    1    2  501    0 -0.11503410745E+03  0.13461232820E+03 -0.23440841208E+03  0.29376968604E+03  0.00000000000E+00 0. -1.
          1    1    1    2  502    0  0.11573908172E+03 -0.17102278614E+03  0.89603782470E+02  0.22510701067E+03  0.00000000000E+00 0. -1.
         22    1    1    2    0    0 -0.95171424698E+01  0.45341087125E+02 -0.41705698288E+02  0.62335827997E+02  0.00000000000E+00 0. -1.
         22    1    1    2    0    0  0.88121681918E+01 -0.89306291814E+01  0.67315895264E+02  0.68475106433E+02  0.00000000000E+00 0. -1.
</event>
<event>
 6    1  0.2809573E-005  0.9004195E+02  0.7818608E-02  0.1307081E+00
          2   -1    0    0  502    0  0.00000000000E+00  0.00000000000E+00  0.31775442845E+03  0.31775442845E+03  0.00000000000E+00 0.  1.
          1   -1    0    0  501    0 -0.00000000000E+00 -0.00000000000E+00 -0.24657737079E+03  0.24657737079E+03  0.00000000000E+00 0.  1.
          2    1    1    2  501    0 -0.90291411952E+02  0.68360022070E+02 -0.49916815666E+02  0.12376316163E+03  0.00000000000E+00 0.  1.
          1    1    1    2  502    0  0.53914995657E+02 -0.23291053956E+02 -0.13641485778E+03  0.14852041400E+03  0.00000000000E+00 0.  1.
         22    1    1    2    0    0  0.60245026687E+02 -0.52466532700E+02  0.25466101642E+03  0.26689779612E+03  0.00000000000E+00 0.  1.
         22    1    1    2    0    0 -0.23868610392E+02  0.73975645858E+01  0.28477146874E+01  0.25150427488E+02  0.00000000000E+00 0. -1.
</event>
<event>
 6    1  0.2809573E-005  0.1711567E+03  0.7818608E-02  0.1289343E+00
          2   -1    0    0  502    0  0.00000000000E+00  0.00000000000E+00  0.98327617966E+02  0.98327617966E+02  0.00000000000E+00 0.  1.
          1   -1    0    0  501    0 -0.00000000000E+00 -0.00000000000E+00 -0.54762853164E+03  0.54762853164E+03  0.00000000000E+00 0.  1.
          2    1    1    2  501    0  0.29456955785E+02  0.45986675267E+02 -0.27377377352E+02  0.61090157447E+02  0.00000000000E+00 0.  1.
          1    1    1    2  502    0 -0.87566400767E+02 -0.13790430189E+03 -0.37754828606E+03  0.41137352775E+03  0.00000000000E+00 0.  1.
         22    1    1    2    0    0  0.73555428703E+02  0.98555693327E+02  0.32147784873E+01  0.12302016330E+03  0.00000000000E+00 0.  1.
         22    1    1    2    0    0 -0.15445983721E+02 -0.66380666997E+01 -0.47590028750E+02  0.50472301107E+02  0.00000000000E+00 0.  1.
</event>
<event>
 6    1  0.2809573E-005  0.1422132E+03  0.7818608E-02  0.1289678E+00
          2   -1    0    0  502    0  0.00000000000E+00  0.00000000000E+00  0.21648081095E+03  0.21648081095E+03  0.00000000000E+00 0.  1.
          1   -1    0    0  501    0 -0.00000000000E+00 -0.00000000000E+00 -0.10553266220E+04  0.10553266220E+04  0.00000000000E+00 0.  1.
          2    1    1    2  501    0  0.19730510360E+02 -0.20044657987E+02 -0.66823134772E+02  0.72501122016E+02  0.00000000000E+00 0.  1.
          1    1    1    2  502    0 -0.60413467019E+02 -0.13640025171E+02 -0.96253490380E+03  0.96452541611E+03  0.00000000000E+00 0.  1.
         22    1    1    2    0    0  0.12048410053E+02 -0.26515279387E+02  0.15790858321E+03  0.16057193054E+03  0.00000000000E+00 0.  1.
         22    1    1    2    0    0  0.28634546605E+02  0.60199962545E+02  0.32603644353E+02  0.74208964248E+02  0.00000000000E+00 0.  1.
</event>
<event>
 6    1  0.2809573E-005  0.1441419E+03  0.7818608E-02  0.1271501E+00
          2   -1    0    0  502    0  0.00000000000E+00  0.00000000000E+00  0.47786836111E+02  0.47786836111E+02  0.00000000000E+00 0.  1.
          1   -1    0    0  501    0 -0.00000000000E+00 -0.00000000000E+00 -0.85188886561E+03  0.85188886561E+03  0.00000000000E+00 0.  1.
          2    1    1    2  501    0 -0.14498862754E+02  0.22967958301E+02 -0.14050041167E+03  0.14310174636E+03  0.00000000000E+00 0.  1.
          1    1    1    2  502    0  0.27635985011E+01 -0.86575478396E+02 -0.58579016504E+03  0.59215966461E+03  0.00000000000E+00 0.  1.
         22    1    1    2    0    0 -0.55163172553E+01 -0.39131804371E+02 -0.12464392216E+02  0.41437771932E+02  0.00000000000E+00 0. -1.
         22    1    1    2    0    0  0.17251581508E+02  0.10273932447E+03 -0.65347060568E+02  0.12297651882E+03  0.00000000000E+00 0.  1.
</event>
<event>
 6    1  0.2809573E-005  0.1384365E+03  0.7818608E-02  0.1263061E+00
          2   -1    0    0  502    0  0.00000000000E+00  0.00000000000E+00  0.37868587611E+03  0.37868587611E+03  0.00000000000E+00 0.  1.
          1   -1    0    0  501    0 -0.00000000000E+00 -0.00000000000E+00 -0.13741667925E+03  0.13741667925E+03  0.00000000000E+00 0.  1.
          2    1    1    2  501    0 -0.75180774039E+02  0.64957379712E+02  0.81376495738E+02  0.12842797212E+03  0.00000000000E+00 0.  1.
          1    1    1    2  502    0  0.10863762325E+03 -0.55838195508E+02 -0.58351527829E+02  0.13536963494E+03  0.00000000000E+00 0.  1.
         22    1    1    2    0    0 -0.66750543332E+02  0.31545862278E+02  0.12020807019E+03  0.14107004147E+03  0.00000000000E+00 0.  1.
         22    1    1    2    0    0  0.33293694123E+02 -0.40665046481E+02  0.98036158759E+02  0.11123490683E+03  0.00000000000E+00 0. -1.
</event>
<event>
 6    1  0.2809573E-005  0.1058276E+03  0.7818608E-02  0.1375024E+00
          2   -1    0    0  502    0  0.00000000000E+00  0.00000000000E+00  0.11046400375E+03  0.11046400375E+03  0.00000000000E+00 0.  1.
          1   -1    0    0  501    0 -0.00000000000E+00 -0.00000000000E+00 -0.61871235488E+03  0.61871235488E+03  0.00000000000E+00 0.  1.
          2    1    1    2  501    0  0.80021598881E+02 -0.23022741387E+02 -0.19484758840E+03  0.21189404336E+03  0.00000000000E+00 0.  1.
          1    1    1    2  502    0 -0.10455298000E+03  0.28787948708E+02 -0.36334208773E+03  0.37918009485E+03  0.00000000000E+00 0.  1.
         22    1    1    2    0    0  0.10427040774E+02 -0.12901517283E+02 -0.41819768120E+02  0.44989613614E+02  0.00000000000E+00 0. -1.
         22    1    1    2    0    0  0.14104340340E+02  0.71363099613E+01  0.91761093115E+02  0.93112606804E+02  0.00000000000E+00 0.  1.
</event>
<event>
 6    1  0.2809573E-005  0.1127587E+03  0.7818608E-02  0.1306689E+00
          2   -1    0    0  502    0  0.00000000000E+00  0.00000000000E+00  0.23670372444E+03  0.23670372444E+03  0.00000000000E+00 0. -1.
          1   -1    0    0  501    0 -0.00000000000E+00 -0.00000000000E+00 -0.70343410476E+03  0.70343410476E+03  0.00000000000E+00 0. -1.
          2    1    1    2  501    0  0.74980765665E+02  0.30099230900E+02  0.85834188039E+02  0.11787954342E+03  0.00000000000E+00 0. -1.
          1    1    1    2  502    0 -0.34540316373E+02 -0.31506982189E+02 -0.65379964772E+03  0.65546907077E+03  0.00000000000E+00 0. -1.
         22    1    1    2    0    0 -0.17038952095E+02 -0.39110215070E+02 -0.11959320798E+02  0.44305306288E+02  0.00000000000E+00 0. -1.
         22    1    1    2    0    0 -0.23401497196E+02  0.40517966358E+02  0.11319440016E+03  0.12248390872E+03  0.00000000000E+00 0. -1.
</event>
<event>
 6    1  0.2809573E-005  0.2700658E+03  0.7818608E-02  0.1159359E+00
          2   -1    0    0  502    0  0.00000000000E+00  0.00000000000E+00  0.56309986886E+03  0.56309986886E+03  0.00000000000E+00 0.  1.
          1   -1    0    0  501    0 -0.00000000000E+00 -0.00000000000E+00 -0.60031567514E+03  0.60031567514E+03  0.00000000000E+00 0.  1.
          2    1    1    2  501    0 -0.39765682806E+02 -0.15562096775E+03  0.14600782035E+03  0.21706560929E+03  0.00000000000E+00 0.  1.
          1    1    1    2  502    0  0.24806112190E+02  0.26154729842E+03 -0.51294567804E+03  0.57631206922E+03  0.00000000000E+00 0.  1.
         22    1    1    2    0    0  0.62340718267E+02 -0.17646591659E+02  0.16465430729E+03  0.17694295200E+03  0.00000000000E+00 0. -1.
         22    1    1    2    0    0 -0.47381147651E+02 -0.88279739015E+02  0.16506774411E+03  0.19309491350E+03  0.00000000000E+00 0. -1.
</event>
<event>
 6    1  0.2809573E-005  0.2423135E+03  0.7818608E-02  0.1217768E+00
          2   -1    0    0  502    0  0.00000000000E+00  0.00000000000E+00  0.64402833036E+03  0.64402833036E+03  0.00000000000E+00 0. -1.
          1   -1    0    0  501    0 -0.00000000000E+00 -0.00000000000E+00 -0.57808856121E+02  0.57808856121E+02  0.00000000000E+00 0. -1.
          2    1    1    2  501    0 -0.86033191557E+02  0.52940432704E+02  0.24263572650E+03  0.26282407659E+03  0.00000000000E+00 0. -1.
          1    1    1    2  502    0  0.87181006088E+02  0.17144073820E+02  0.25270313725E+03  0.26786810684E+03  0.00000000000E+00 0. -1.
         22    1    1    2    0    0 -0.45355300628E+01 -0.94430766589E+02  0.20693327295E+02  0.96777861653E+02  0.00000000000E+00 0. -1.
         22    1    1    2    0    0  0.33877155325E+01  0.24346260065E+02  0.70187283196E+02  0.74367141388E+02  0.00000000000E+00 0.  1.
</event>
<event>
 6    1  0.2809573E-005  0.1818395E+03  0.7818608E-02  0.1230765E+00
          2   -1    0    0  502    0  0.00000000000E+00  0.00000000000E+00  0.56130054265E+03  0.56130054265E+03  0.00000000000E+00 0.  1.
          1   -1    0    0  501    0 -0.00000000000E+00 -0.00000000000E+00 -0.11974698844E+03  0.11974698844E+03  0.00000000000E+00 0. -1.
          2    1    1    2  501    0  0.42724865006E+02 -0.32833484823E+02  0.20472664278E+02  0.57641840690E+02  0.00000000000E+00 0.  1.
          1    1    1    2  502    0  0.19945706083E+02 -0.78563320582E+01 -0.90023428969E+02  0.92540644626E+02  0.00000000000E+00 0. -1.
         22    1    1    2    0    0 -0.94041017002E+02  0.10252469312E+02  0.27679825504E+03  0.29251683712E+03  0.00000000000E+00 0.  1.
         22    1    1    2    0    0  0.31370445912E+02  0.30437347569E+02  0.23430606387E+03  0.23834820866E+03  0.00000000000E+00 0.  1.
</event>
<event>
 6    1  0.2809573E-005  0.9456780E+02  0.7818608E-02  0.1392336E+00
          2   -1    0    0  502    0  0.00000000000E+00  0.00000000000E+00  0.84733870595E+02  0.84733870595E+02  0.00000000000E+00 0.  1.
          1   -1    0    0  501    0 -0.00000000000E+00 -0.00000000000E+00 -0.32458325959E+04  0.32458325959E+04  0.00000000000E+00 0.  1.
          2    1    1    2  501    0 -0.58904341685E+02 -0.34941660766E+02 -0.52485802457E+03  0.52930764881E+03  0.00000000000E+00 0.  1.
          1    1    1    2  502    0  0.84852334626E+02  0.26668110161E+02 -0.26709150823E+04  0.26723956451E+04  0.00000000000E+00 0.  1.
         22    1    1    2    0    0 -0.10597608885E+02  0.12942989497E+02  0.79506064413E+02  0.81246812674E+02  0.00000000000E+00 0.  1.
         22    1    1    2    0    0 -0.15350384055E+02 -0.46694388931E+01 -0.44831682832E+02  0.47616359959E+02  0.00000000000E+00 0. -1.
</event>
<event>
 6    1  0.2809573E-005  0.1723234E+03  0.7818608E-02  0.1251558E+00
          2   -1    0    0  502    0  0.00000000000E+00  0.00000000000E+00  0.66264336324E+02  0.66264336324E+02  0.00000000000E+00 0. -1.
          1   -1    0    0  501    0 -0.00000000000E+00 -0.00000000000E+00 -0.46551240289E+03  0.46551240289E+03  0.00000000000E+00 0. -1.
          2    1    1    2  501    0  0.58869206983E+02 -0.17693969818E+02 -0.21070468575E+02  0.64981726236E+02  0.00000000000E+00 0. -1.
          1    1    1    2  502    0  0.33859997293E+02 -0.10051285831E+02 -0.27699189284E+03  0.27923473362E+03  0.00000000000E+00 0. -1.
         22    1    1    2    0    0  0.24448576121E+02  0.23906984732E+02 -0.47713191749E+02  0.58701153823E+02  0.00000000000E+00 0. -1.
         22    1    1    2    0    0 -0.11717778040E+03  0.38382709167E+01 -0.53472513402E+02  0.12885912553E+03  0.00000000000E+00 0. -1.
</event>
<event>
 6    1  0.2809573E-005  0.6876443E+03  0.7818608E-02  0.1084894E+00
          2   -1    0    0  502    0  0.00000000000E+00  0.00000000000E+00  0.14537060374E+04  0.14537060374E+04  0.00000000000E+00 0. -1.
          1   -1    0    0  501    0 -0.00000000000E+00 -0.00000000000E+00 -0.19686822950E+03  0.19686822950E+03  0.00000000000E+00 0. -1.
          2    1    1    2  501    0 -0.27470329801E+03 -0.17249255920E+03  0.39080808180E+02  0.32671531106E+03  0.00000000000E+00 0. -1.
          1    1    1    2  502    0  0.15318418858E+03  0.26797886432E+03  0.60448533967E+03  0.67873455285E+03  0.00000000000E+00 0. -1.
         22    1    1    2    0    0  0.11678873211E+03 -0.12017973579E+03  0.57804080857E+03  0.60184213313E+03  0.00000000000E+00 0. -1.
         22    1    1    2    0    0  0.47303773257E+01  0.24693430671E+02  0.35230851429E+02  0.43282269815E+02  0.00000000000E+00 0.  1.
</event>
<event>
 6    1  0.2809573E-005  0.7710862E+02  0.7818608E-02  0.1370236E+00
          2   -1    0    0  502    0  0.00000000000E+00  0.00000000000E+00  0.14911490435E+03  0.14911490435E+03  0.00000000000E+00 0. -1.
          1   -1    0    0  501    0 -0.00000000000E+00 -0.00000000000E+00 -0.60362633758E+03  0.60362633758E+03  0.00000000000E+00 0.  1.
          2    1    1    2  501    0 -0.16646374723E+01 -0.32760105962E+02  0.35985655035E+02  0.48692534631E+02  0.00000000000E+00 0. -1.
          1    1    1    2  502    0  0.28411654419E+02  0.30004891342E+02 -0.56064594409E+03  0.56216669257E+03  0.00000000000E+00 0.  1.
         22    1    1    2    0    0  0.37038310929E+02  0.16572921359E+02  0.64724529424E+02  0.76392165227E+02  0.00000000000E+00 0. -1.
         22    1    1    2    0    0 -0.63785327876E+02 -0.13817706739E+02  0.54243263899E+01  0.65489849507E+02  0.00000000000E+00 0. -1.
</event>
<event>
 6    1  0.2809573E-005  0.3002575E+03  0.7818608E-02  0.1209387E+00
          2   -1    0    0  502    0  0.00000000000E+00  0.00000000000E+00  0.31713087524E+03  0.31713087524E+03  0.00000000000E+00 0. -1.
          1   -1    0    0  501    0 -0.00000000000E+00 -0.00000000000E+00 -0.39518051836E+03  0.39518051836E+03  0.00000000000E+00 0.  1.
          2    1    1    2  501    0 -0.32656124503E+02  0.12637609909E+03 -0.15501684812E+02  0.13144444880E+03  0.00000000000E+00 0. -1.
          1    1    1    2  502    0  0.17222620072E+03 -0.10838353518E+03 -0.24488589054E+03  0.31839904883E+03  0.00000000000E+00 0.  1.
         22    1    1    2    0    0 -0.14464929776E+03 -0.32567617264E+02  0.10034306362E+03  0.17903295634E+03  0.00000000000E+00 0. -1.
         22    1    1    2    0    0  0.50792215431E+01  0.14575053360E+02  0.81994868610E+02  0.83434939626E+02  0.00000000000E+00 0.  1.
</event>
<event>
 6    1  0.2809573E-005  0.1312583E+03  0.7818608E-02  0.1269520E+00
          2   -1    0    0  502    0  0.00000000000E+00  0.00000000000E+00  0.81747298040E+02  0.81747298040E+02  0.00000000000E+00 0.  1.
          1   -1    0    0  501    0 -0.00000000000E+00 -0.00000000000E+00 -0.16680461492E+04  0.16680461492E+04  0.00000000000E+00 0.  1.
          2    1    1    2  501    0 -0.15513279919E+02  0.82777827722E+02  0.41211864744E+02  0.93761657472E+02  0.00000000000E+00 0.  1.
          1    1    1    2  502    0 -0.50434178676E+01 -0.10660455266E+03 -0.12857603228E+04  0.12901819927E+04  0.00000000000E+00 0.  1.
         22    1    1    2    0    0  0.51811767391E+02  0.16502496466E+02 -0.32523406798E+03  0.32974837468E+03  0.00000000000E+00 0.  1.
         22    1    1    2    0    0 -0.31255069605E+02  0.73242284700E+01 -0.16516325099E+02  0.36101422319E+02  0.00000000000E+00 0.  1.
</event>
<event>
 6    1  0.4276071E-005  0.4675188E+02  0.7818608E-02  0.1553962E+00
          2   -1    0    0  502    0  0.00000000000E+00  0.00000000000E+00  0.82827823376E+02  0.82827823376E+02  0.00000000000E+00 0.  1.
          1   -1    0    0  501    0 -0.00000000000E+00 -0.00000000000E+00 -0.13961834319E+04  0.13961834319E+04  0.00000000000E+00 0.  1.
          2    1    1    2  501    0  0.24572456273E+01 -0.20982983407E+02 -0.13544711217E+03  0.13708480530E+03  0.00000000000E+00 0.  1.
          1    1    1    2  502    0  0.31218351923E+01  0.42707778186E+02 -0.12080928310E+04  0.12088515163E+04  0.00000000000E+00 0.  1.
         22    1    1    2    0    0 -0.13198366927E+02 -0.37078740644E+01  0.79159347551E+02  0.80337709230E+02  0.00000000000E+00 0.  1.
         22    1    1    2    0    0  0.76192861070E+01 -0.18016920715E+02 -0.48975012974E+02  0.52737224507E+02  0.00000000000E+00 0. -1.
</event>
<event>
 6    1  0.2809573E-005  0.6165225E+02  0.7818608E-02  0.1471220E+00
          2   -1    0    0  502    0  0.00000000000E+00  0.00000000000E+00  0.12745230958E+03  0.12745230958E+03  0.00000000000E+00 0.  1.
          1   -1    0    0  501    0 -0.00000000000E+00 -0.00000000000E+00 -0.46064416229E+03  0.46064416229E+03  0.00000000000E+00 0. -1.
          2    1    1    2  501    0  0.17036845214E+02 -0.11855868596E+02  0.11275613607E+02  0.23621074853E+02  0.00000000000E+00 0.  1.
          1    1    1    2  502    0 -0.36957180994E+02  0.18975204551E+01 -0.41591052482E+03  0.41755358754E+03  0.00000000000E+00 0. -1.
         22    1    1    2    0    0 -0.99928045370E+01 -0.15325643001E+02  0.97939680247E+02  0.99633892039E+02  0.00000000000E+00 0.  1.
         22    1    1    2    0    0  0.29913140317E+02  0.25283991142E+02 -0.26496621746E+02  0.47287917438E+02  0.00000000000E+00 0.  1.
</event>
<event>
 6    1  0.2809573E-005  0.2759163E+03  0.7818608E-02  0.1198040E+00
          2   -1    0    0  502    0  0.00000000000E+00  0.00000000000E+00  0.31913228909E+03  0.31913228909E+03  0.00000000000E+00 0. -1.
          1   -1    0    0  501    0 -0.00000000000E+00 -0.00000000000E+00 -0.17499026291E+04  0.17499026291E+04  0.00000000000E+00 0.  1.
          2    1    1    2  501    0  0.88176794365E+02  0.17504987513E+03  0.42433256162E+02  0.20054472587E+03  0.00000000000E+00 0. -1.
          1    1    1    2  502    0 -0.10220640718E+03 -0.24899902500E+03 -0.16321003067E+04  0.16541457237E+04  0.00000000000E+00 0.  1.
         22    1    1    2    0    0 -0.20251832971E+02 -0.15348022725E+02  0.97328707899E+02  0.10059113242E+03  0.00000000000E+00 0. -1.
         22    1    1    2    0    0  0.34281445782E+02  0.89297172591E+02  0.61568002594E+02  0.11375333622E+03  0.00000000000E+00 0. -1.
</event>
<event>
 6    1  0.2809573E-005  0.9588979E+02  0.7818608E-02  0.1302143E+00
          2   -1    0    0  502    0  0.00000000000E+00  0.00000000000E+00  0.18718410261E+03  0.18718410261E+03  0.00000000000E+00 0.  1.
          1   -1    0    0  501    0 -0.00000000000E+00 -0.00000000000E+00 -0.18299719799E+03  0.18299719799E+03  0.00000000000E+00 0.  1.
          2    1    1    2  501    0 -0.32045926623E+02 -0.31798963394E+02  0.13769820855E+02  0.47198765370E+02  0.00000000000E+00 0.  1.
          1    1    1    2  502    0 -0.19531186212E+02  0.18878747471E+02 -0.13655109232E+03  0.13922670417E+03  0.00000000000E+00 0.  1.
         22    1    1    2    0    0  0.29372829381E+02  0.66149138072E+02  0.88959621150E+02  0.11468341540E+03  0.00000000000E+00 0.  1.
         22    1    1    2    0    0  0.22204283454E+02 -0.53228922148E+02  0.38008554931E+02  0.69072415657E+02  0.00000000000E+00 0.  1.
</event>
<event>
 6    1  0.2809573E-005  0.1501681E+03  0.7818608E-02  0.1281161E+00
          2   -1    0    0  502    0  0.00000000000E+00  0.00000000000E+00  0.33495758089E+03  0.33495758089E+03  0.00000000000E+00 0.  1.
          1   -1    0    0  501    0 -0.00000000000E+00 -0.00000000000E+00 -0.11696592244E+04  0.11696592244E+04  0.00000000000E+00 0.  1.
          2    1    1    2  501    0 -0.41031252407E+02  0.38022931486E+02  0.57991030956E+02  0.80574603096E+02  0.00000000000E+00 0.  1.
          1    1    1    2  502    0  0.12659854561E+03 -0.57883380999E+02 -0.11321745043E+04  0.11407001296E+04  0.00000000000E+00 0.  1.
         22    1    1    2    0    0 -0.10909090014E+03  0.28174797477E+01  0.12832350782E+03  0.16845083955E+03  0.00000000000E+00 0.  1.
         22    1    1    2    0    0  0.23523606939E+02  0.17042969765E+02  0.11115832194E+03  0.11489123308E+03  0.00000000000E+00 0. -1.
</event>
<event>
 6    1  0.3084149E-005  0.6346973E+02  0.7818608E-02  0.1392270E+00
          2   -1    0    0  502    0  0.00000000000E+00  0.00000000000E+00  0.18160457541E+03  0.18160457541E+03  0.00000000000E+00 0.  1.
          1   -1    0    0  501    0 -0.00000000000E+00 -0.00000000000E+00 -0.43828143891E+03  0.43828143891E+03  0.00000000000E+00 0.  1.
          2    1    1    2  501    0 -0.69116436426E+02  0.19919654447E+02 -0.11839783307E+03  0.13853491002E+03  0.00000000000E+00 0.  1.
          1    1    1    2  502    0  0.31206726360E+02 -0.87394313778E+01 -0.28415979635E+03  0.28600179596E+03  0.00000000000E+00 0.  1.
         22    1    1    2    0    0  0.54366717781E+02 -0.33320691063E+01  0.16206281580E+03  0.17097133956E+03  0.00000000000E+00 0.  1.
         22    1    1    2    0    0 -0.16457007714E+02 -0.78481539625E+01 -0.16182049874E+02  0.24377968776E+02  0.00000000000E+00 0.  1.
</event>
<event>
 6    1  0.2809573E-005  0.1952214E+03  0.7818608E-02  0.1290791E+00
          2   -1    0    0  502    0  0.00000000000E+00  0.00000000000E+00  0.56611662551E+02  0.56611662551E+02  0.00000000000E+00 0. -1.
          1   -1    0    0  501    0 -0.00000000000E+00 -0.00000000000E+00 -0.18697871940E+04  0.18697871940E+04  0.00000000000E+00 0. -1.
          2    1    1    2  501    0 -0.10480384996E+03  0.95310524328E+02 -0.29661271005E+03  0.32870510001E+03  0.00000000000E+00 0. -1.
          1    1    1    2  502    0  0.15776689272E+03 -0.74068890182E+02 -0.14088696448E+04  0.14196091959E+04  0.00000000000E+00 0. -1.
         22    1    1    2    0    0  0.63525286202E+01 -0.90127460562E+01  0.27672479402E+02  0.29788426068E+02  0.00000000000E+00 0. -1.
         22    1    1    2    0    0 -0.59315571385E+02 -0.12228888089E+02 -0.13536565591E+03  0.14829613452E+03  0.00000000000E+00 0. -1.
</event>
<event>
 6    1  0.2809573E-005  0.5226547E+02  0.7818608E-02  0.1441784E+00
          2   -1    0    0  502    0  0.00000000000E+00  0.00000000000E+00  0.68765084317E+02  0.68765084317E+02  0.00000000000E+00 0. -1.
          1   -1    0    0  501    0 -0.00000000000E+00 -0.00000000000E+00 -0.45496932514E+03  0.45496932514E+03  0.00000000000E+00 0. -1.
          2    1    1    2  501    0 -0.39362659793E+01  0.22343535798E+02 -0.19743128520E+02  0.30075220790E+02  0.00000000000E+00 0. -1.
          1    1    1    2  502    0  0.20093063107E+02  0.58123967570E+01 -0.36386705358E+03  0.36446775965E+03  0.00000000000E+00 0. -1.
         22    1    1    2    0    0 -0.18223675287E+02 -0.43787680717E+02  0.53164930869E+02  0.71245864426E+02  0.00000000000E+00 0. -1.
         22    1    1    2    0    0  0.20668781591E+01  0.15631748162E+02 -0.55758989591E+02  0.57945564594E+02  0.00000000000E+00 0. -1.
</event>
<event>
 6    1  0.2809573E-005  0.1042935E+03  0.7818608E-02  0.1303771E+00
          2   -1    0    0  502    0  0.00000000000E+00  0.00000000000E+00  0.13061145862E+03  0.13061145862E+03  0.00000000000E+00 0. -1.
          1   -1    0    0  501    0 -0.00000000000E+00 -0.00000000000E+00 -0.63055935791E+03  0.63055935791E+03  0.00000000000E+00 0.  1.
          2    1    1    2  501    0  0.93935626826E+01 -0.43941058534E+02 -0.98246577453E+01  0.45995429608E+02  0.00000000000E+00 0. -1.
          1    1    1    2  502    0 -0.26314144244E+02  0.27417909726E+02 -0.56540951808E+03  0.56668518517E+03  0.00000000000E+00 0.  1.
         22    1    1    2    0    0 -0.52267498476E+02 -0.99173038903E+00  0.51178025638E+02  0.73157810480E+02  0.00000000000E+00 0. -1.
         22    1    1    2    0    0  0.69188080037E+02  0.17514879197E+02  0.24108250896E+02  0.75332391266E+02  0.00000000000E+00 0. -1.
</event>
<event>
 6    1  0.2809573E-005  0.4879998E+03  0.7818608E-02  0.1162334E+00
          2   -1    0    0  502    0  0.00000000000E+00  0.00000000000E+00  0.30500992060E+03  0.30500992060E+03  0.00000000000E+00 0. -1.
          1   -1    0    0  501    0 -0.00000000000E+00 -0.00000000000E+00 -0.18184059731E+04  0.18184059731E+04  0.00000000000E+00 0.  1.
          2    1    1    2  501    0  0.22557899402E+03 -0.68173788225E+02 -0.92380520779E+02  0.25311599824E+03  0.00000000000E+00 0. -1.
          1    1    1    2  502    0 -0.43567469558E+03  0.15685302145E+03 -0.15229855773E+04  0.15918229737E+04  0.00000000000E+00 0.  1.
         22    1    1    2    0    0  0.20494640784E+03 -0.97539293060E+02  0.59297900959E+02  0.23459152763E+03  0.00000000000E+00 0. -1.
         22    1    1    2    0    0  0.51492937243E+01  0.88600598319E+01  0.42672144693E+02  0.43885394140E+02  0.00000000000E+00 0. -1.
</event>
<event>
 6    1  0.2809573E-005  0.8858831E+02  0.7818608E-02  0.1320496E+00
          2   -1    0    0  502    0  0.00000000000E+00  0.00000000000E+00  0.33467444533E+03  0.33467444533E+03  0.00000000000E+00 0. -1.
          1   -1    0    0  501    0 -0.00000000000E+00 -0.00000000000E+00 -0.98377130050E+02  0.98377130050E+02  0.00000000000E+00 0.  1.
          2    1    1    2  501    0 -0.64750760724E+01  0.38695143906E+02  0.70357344515E+02  0.80556791764E+02  0.00000000000E+00 0. -1.
          1    1    1    2  502    0  0.38855899798E+02 -0.37277349729E+02 -0.67446885604E+02  0.86304484991E+02  0.00000000000E+00 0.  1.
         22    1    1    2    0    0  0.43272909973E+02  0.15821135446E+02  0.55605054868E+02  0.72213400358E+02  0.00000000000E+00 0.  1.
         22    1    1    2    0    0 -0.75653733699E+02 -0.17238929624E+02  0.17778180150E+03  0.19397689827E+03  0.00000000000E+00 0.  1.
</event>
<event>
 6    1  0.2809573E-005  0.7917531E+02  0.7818608E-02  0.1338870E+00
          2   -1    0    0  502    0  0.00000000000E+00  0.00000000000E+00  0.65188554948E+02  0.65188554948E+02  0.00000000000E+00 0.  1.
          1   -1    0    0  501    0 -0.00000000000E+00 -0.00000000000E+00 -0.30493150259E+03  0.30493150259E+03  0.00000000000E+00 0. -1.
          2    1    1    2  501    0 -0.35382140078E+02  0.17098681119E+01 -0.36954182488E+01  0.35615665114E+02  0.00000000000E+00 0.  1.
          1    1    1    2  502    0  0.12281973337E+02  0.35293406707E+02 -0.18565278877E+03  0.18937642251E+03  0.00000000000E+00 0. -1.
         22    1    1    2    0    0  0.58420154659E+02 -0.69816004106E+01 -0.72832308281E+02  0.93627999787E+02  0.00000000000E+00 0. -1.
         22    1    1    2    0    0 -0.35319987917E+02 -0.30021674408E+02  0.22437567655E+02  0.51499970126E+02  0.00000000000E+00 0.  1.
</event>
<event>
 6    1  0.2809573E-005  0.2243232E+03  0.7818608E-02  0.1130885E+00
          2   -1    0    0  502    0  0.00000000000E+00  0.00000000000E+00  0.11983158536E+04  0.11983158536E+04  0.00000000000E+00 0.  1.
          1   -1    0    0  501    0 -0.00000000000E+00 -0.00000000000E+00 -0.42531415921E+03  0.42531415921E+03  0.00000000000E+00 0. -1.
          2    1    1    2  501    0  0.58686514972E+01  0.22670166562E+03  0.67833845281E+03  0.71524201696E+03  0.00000000000E+00 0.  1.
          1    1    1    2  502    0 -0.18945460893E+03 -0.12295269877E+03 -0.34085467521E+03  0.40889158049E+03  0.00000000000E+00 0. -1.
         22    1    1    2    0    0 -0.72000138051E+01  0.15204357753E+02  0.55050036507E+02  0.57563175841E+02  0.00000000000E+00 0.  1.
         22    1    1    2    0    0  0.19078597124E+03 -0.11895332461E+03  0.38046788027E+03  0.44193323950E+03  0.00000000000E+00 0.  1.
</event>
<event>
 6    1  0.2809573E-005  0.9264184E+02  0.7818608E-02  0.1356638E+00
          2   -1    0    0  502    0  0.00000000000E+00  0.00000000000E+00  0.22904008741E+03  0.22904008741E+03  0.00000000000E+00 0.  1.
          1   -1    0    0  501    0 -0.00000000000E+00 -0.00000000000E+00 -0.15267972137E+03  0.15267972137E+03  0.00000000000E+00 0.  1.
          2    1    1    2  501    0  0.37033221525E+02  0.82894060802E+01  0.26298034993E+02  0.46170990830E+02  0.00000000000E+00 0.  1.
          1    1    1    2  502    0 -0.88827571034E+02 -0.77937569931E+00 -0.99489096183E+02  0.13337550398E+03  0.00000000000E+00 0.  1.
         22    1    1    2    0    0  0.59836450790E+02  0.23470553091E+02  0.17948360922E+02  0.66733884686E+02  0.00000000000E+00 0.  1.
         22    1    1    2    0    0 -0.80421012807E+01 -0.30980583471E+02  0.13160306630E+03  0.13543942928E+03  0.00000000000E+00 0.  1.
</event>
<event>
 6    1  0.2809573E-005  0.1038742E+03  0.7818608E-02  0.1342640E+00
          2   -1    0    0  502    0  0.00000000000E+00  0.00000000000E+00  0.83958792634E+02  0.83958792634E+02  0.00000000000E+00 0. -1.
          1   -1    0    0  501    0 -0.00000000000E+00 -0.00000000000E+00 -0.14039234651E+04  0.14039234651E+04  0.00000000000E+00 0. -1.
          2    1    1    2  501    0 -0.35652941651E+02 -0.27105765044E+02 -0.75838713927E+02  0.88075906337E+02  0.00000000000E+00 0. -1.
          1    1    1    2  502    0  0.49890594522E+02  0.11718744233E+01 -0.12662125850E+04  0.12671956262E+04  0.00000000000E+00 0. -1.
         22    1    1    2    0    0 -0.13321703832E+02  0.54755392821E+02 -0.36618904514E+02  0.67205394157E+02  0.00000000000E+00 0.  1.
         22    1    1    2    0    0 -0.91594903938E+00 -0.28821502201E+02  0.58705531001E+02  0.65405330990E+02  0.00000000000E+00 0. -1.
</event>
<event>
 6    1  0.2809573E-005  0.1414681E+03  0.7818608E-02  0.1335415E+00
          2   -1    0    0  502    0  0.00000000000E+00  0.00000000000E+00  0.57825574859E+02  0.57825574859E+02  0.00000000000E+00 0. -1.
          1   -1    0    0  501    0 -0.00000000000E+00 -0.00000000000E+00 -0.14647251279E+04  0.14647251279E+04  0.00000000000E+00 0.  1.
          2    1    1    2  501    0 -0.69339004469E+02  0.52750198191E+02 -0.21567172608E+03  0.23260433009E+03  0.00000000000E+00 0. -1.
          1    1    1    2  502    0  0.11830091611E+03 -0.45959450472E+02 -0.11364143586E+04  0.11434793275E+04  0.00000000000E+00 0.  1.
         22    1    1    2    0    0 -0.60587700981E+02 -0.11088803523E+01 -0.90269824074E+02  0.10872322780E+03  0.00000000000E+00 0. -1.
         22    1    1    2    0    0  0.11625789340E+02 -0.56818673676E+01  0.35456355703E+02  0.37743817431E+02  0.00000000000E+00 0. -1.
</event>
<event>
 6    1  0.2809573E-005  0.4700501E+03  0.7818608E-02  0.1151315E+00
          2   -1    0    0  502    0  0.00000000000E+00  0.00000000000E+00  0.79135644138E+03  0.79135644138E+03  0.00000000000E+00 0. -1.
          1   -1    0    0  501    0 -0.00000000000E+00 -0.00000000000E+00 -0.31937781815E+03  0.31937781815E+03  0.00000000000E+00 0. -1.
          2    1    1    2  501    0 -0.36147492521E+03  0.70246900744E+02  0.47935730136E+02  0.37134429152E+03  0.00000000000E+00 0. -1.
          1    1    1    2  502    0  0.42419422376E+03 -0.14132086089E+03  0.32473160524E+03  0.55259654417E+03  0.00000000000E+00 0. -1.
         22    1    1    2    0    0 -0.55857641188E+02  0.84234419825E+02  0.16193404480E+02  0.10236083192E+03  0.00000000000E+00 0. -1.
         22    1    1    2    0    0 -0.68616573595E+01 -0.13160459677E+02  0.83117883379E+02  0.84432591918E+02  0.00000000000E+00 0. -1.
</event>
<event>
 6    1  0.2809573E-005  0.3133233E+03  0.7818608E-02  0.1188286E+00
          2   -1    0    0  502    0  0.00000000000E+00  0.00000000000E+00  0.39813179635E+03  0.39813179635E+03  0.00000000000E+00 0. -1.
          1   -1    0    0  501    0 -0.00000000000E+00 -0.00000000000E+00 -0.15126464658E+03  0.15126464658E+03  0.00000000000E+00 0.  1.
          2    1    1    2  501    0 -0.46437472877E+01 -0.12908097157E+03  0.87687354224E+01  0.12946177943E+03  0.00000000000E+00 0. -1.
          1    1    1    2  502    0  0.37554549115E+02  0.58772862365E+01 -0.61340178533E+02  0.72163038706E+02  0.00000000000E+00 0.  1.
         22    1    1    2    0    0  0.16873080740E+02 -0.13325651600E+02  0.92098291811E+02  0.94574675250E+02  0.00000000000E+00 0. -1.
         22    1    1    2    0    0 -0.49783882567E+02  0.13652933694E+03  0.20734030107E+03  0.25319694954E+03  0.00000000000E+00 0. -1.
</event>
<event>
 6    1  0.2809573E-005  0.5230705E+02  0.7818608E-02  0.1503890E+00
          2   -1    0    0  502    0  0.00000000000E+00  0.00000000000E+00  0.69565914785E+02  0.69565914785E+02  0.00000000000E+00 0.  1.
          1   -1    0    0  501    0 -0.00000000000E+00 -0.00000000000E+00 -0.18985051084E+03  0.18985051084E+03  0.00000000000E+00 0.  1.
          2    1    1    2  501    0  0.18720750860E+02  0.77793411296E+01 -0.57304474570E+02  0.60784763444E+02  0.00000000000E+00 0.  1.
          1    1    1    2  502    0 -0.48730552534E+02 -0.25246219258E+02 -0.62990672869E+01  0.55242344137E+02  0.00000000000E+00 0.  1.
         22    1    1    2    0    0  0.31825700016E+02 -0.14190825249E+01 -0.95233737670E+02  0.10042088312E+03  0.00000000000E+00 0.  1.
         22    1    1    2    0    0 -0.18158983414E+01  0.18885960653E+02  0.38552683472E+02  0.42968434920E+02  0.00000000000E+00 0.  1.
</event>
<event>
 6    1  0.2809573E-005  0.7806722E+02  0.7818608E-02  0.1346963E+00
          2   -1    0    0  502    0  0.00000000000E+00  0.00000000000E+00  0.45920262899E+03  0.45920262899E+03  0.00000000000E+00 0.  1.
          1   -1    0    0  501    0 -0.00000000000E+00 -0.00000000000E+00 -0.46186637657E+02  0.46186637657E+02  0.00000000000E+00 0.  1.
          2    1    1    2  501    0  0.35902791585E+02 -0.49601953013E+02  0.40801109136E+02  0.73580532024E+02  0.00000000000E+00 0.  1.
          1    1    1    2  502    0  0.13391738177E+02  0.64531261170E+02  0.49339510607E+02  0.82328668315E+02  0.00000000000E+00 0.  1.
         22    1    1    2    0    0  0.79354115434E+01  0.11556472531E+02 -0.55336217275E+01  0.15071290029E+02  0.00000000000E+00 0.  1.
         22    1    1    2    0    0 -0.57229941305E+02 -0.26485780688E+02  0.32840899332E+03  0.33440877628E+03  0.00000000000E+00 0.  1.
</event>
<event>
 6    1  0.2809573E-005  0.7364553E+02  0.7818608E-02  0.1366970E+00
          2   -1    0    0  502    0  0.00000000000E+00  0.00000000000E+00  0.33647334175E+03  0.33647334175E+03  0.00000000000E+00 0. -1.
          1   -1    0    0  501    0 -0.00000000000E+00 -0.00000000000E+00 -0.14570521853E+04  0.14570521853E+04  0.00000000000E+00 0.  1.
          2    1    1    2  501    0 -0.24528262803E+02 -0.10923645605E+02 -0.95382737991E+01  0.28494567491E+02  0.00000000000E+00 0. -1.
          1    1    1    2  502    0  0.48782028847E+02  0.82288114774E+00 -0.14252197023E+04  0.14260545443E+04  0.00000000000E+00 0.  1.
         22    1    1    2    0    0 -0.28690975637E+00 -0.39604659915E+02  0.30523016582E+02  0.50002659383E+02  0.00000000000E+00 0.  1.
         22    1    1    2    0    0 -0.23966856287E+02  0.49705424372E+02  0.28365611601E+03  0.28897375584E+03  0.00000000000E+00 0. -1.
</event>
<event>
 6    1  0.2809573E-005  0.8638185E+02  0.7818608E-02  0.1334496E+00
          2   -1    0    0  502    0  0.00000000000E+00  0.00000000000E+00  0.21809844444E+03  0.21809844444E+03  0.00000000000E+00 0.  1.
          1   -1    0    0  501    0 -0.00000000000E+00 -0.00000000000E+00 -0.12234246722E+03  0.12234246722E+03  0.00000000000E+00 0.  1.
          2    1    1    2  501    0  0.18923327334E+02 -0.76552599594E+02 -0.28087721289E+02  0.83709694237E+02  0.00000000000E+00 0.  1.
          1    1    1    2  502    0  0.28149487936E+02  0.29499407136E+02 -0.25392585388E+02  0.48035321225E+02  0.00000000000E+00 0.  1.
         22    1    1    2    0    0 -0.24898111754E+02  0.51214065720E+02  0.16922737454E+03  0.17855167541E+03  0.00000000000E+00 0.  1.
         22    1    1    2    0    0 -0.22174703516E+02 -0.41608732623E+01 -0.19991090636E+02  0.30144220791E+02  0.00000000000E+00 0.  1.
</event>
<event>
 6    1  0.2809573E-005  0.1111092E+03  0.7818608E-02  0.1317432E+00
          2   -1    0    0  502    0  0.00000000000E+00  0.00000000000E+00  0.12273229812E+03  0.12273229812E+03  0.00000000000E+00 0. -1.
          1   -1    0    0  501    0 -0.00000000000E+00 -0.00000000000E+00 -0.77397274162E+03  0.77397274162E+03  0.00000000000E+00 0.  1.
          2    1    1    2  501    0  0.64770109279E+02  0.15366436411E+02  0.29692668557E+02  0.72889978667E+02  0.00000000000E+00 0. -1.
          1    1    1    2  502    0 -0.93565377514E+02 -0.37393250244E+02 -0.68583868010E+03  0.69320085845E+03  0.00000000000E+00 0.  1.
         22    1    1    2    0    0  0.44494258466E+02  0.55214275363E+02  0.38640354168E+02  0.80755385025E+02  0.00000000000E+00 0. -1.
         22    1    1    2    0    0 -0.15698990231E+02 -0.33187461529E+02 -0.33734786130E+02  0.49858817598E+02  0.00000000000E+00 0. -1.
</event>
<event>
 6    1  0.2809573E-005  0.8421112E+02  0.7818608E-02  0.1319623E+00
          2   -1    0    0  502    0  0.00000000000E+00  0.00000000000E+00  0.17005163801E+02  0.17005163801E+02  0.00000000000E+00 0.  1.
          1   -1    0    0  501    0 -0.00000000000E+00 -0.00000000000E+00 -0.12479092506E+04  0.12479092506E+04  0.00000000000E+00 0.  1.
          2    1    1    2  501    0  0.36588842351E+02 -0.27194451750E+02 -0.80076671694E+02  0.92144207307E+02  0.00000000000E+00 0.  1.
          1    1    1    2  502    0  0.10291214384E+02 -0.18480062713E+02 -0.67787148488E+03  0.67820142423E+03  0.00000000000E+00 0.  1.
         22    1    1    2    0    0  0.12244025204E+02 -0.31094710349E+02 -0.46622624451E+02  0.57362586025E+02  0.00000000000E+00 0.  1.
         22    1    1    2    0    0 -0.59124081938E+02  0.76769224812E+02 -0.42633330575E+03  0.43720619682E+03  0.00000000000E+00 0. -1.
</event>
<event>
 6    1  0.2809573E-005  0.5694977E+03  0.7818608E-02  0.1036933E+00
          2   -1    0    0  502    0  0.00000000000E+00  0.00000000000E+00  0.12757400451E+04  0.12757400451E+04  0.00000000000E+00 0. -1.
          1   -1    0    0  501    0 -0.00000000000E+00 -0.00000000000E+00 -0.10523033664E+04  0.10523033664E+04  0.00000000000E+00 0. -1.
          2    1    1    2  501    0  0.62381468390E+03 -0.34512128662E+02  0.69521193819E+03  0.93469539738E+03  0.00000000000E+00 0. -1.
          1    1    1    2  502    0 -0.53496526249E+03  0.16165500077E+03 -0.81951100299E+03  0.99192663810E+03  0.00000000000E+00 0. -1.
         22    1    1    2    0    0  0.20253037382E+02  0.20874940981E+01  0.79236774720E+01  0.21847833290E+02  0.00000000000E+00 0. -1.
         22    1    1    2    0    0 -0.10910245879E+03 -0.12923036621E+03  0.33981206609E+03  0.37957354271E+03  0.00000000000E+00 0. -1.
</event>
<event>
 6    1  0.2809573E-005  0.5537349E+02  0.7818608E-02  0.1455174E+00
          2   -1    0    0  502    0  0.00000000000E+00  0.00000000000E+00  0.32669039492E+02  0.32669039492E+02  0.00000000000E+00 0.  1.
          1   -1    0    0  501    0 -0.00000000000E+00 -0.00000000000E+00 -0.34282023158E+03  0.34282023158E+03  0.00000000000E+00 0.  1.
          2    1    1    2  501    0  0.24741504102E+01  0.30715010752E+02 -0.86381587831E+02  0.91713205276E+02  0.00000000000E+00 0.  1.
          1    1    1    2  502    0  0.20935277051E+01 -0.40617512572E+02 -0.85381571211E+02  0.94573663819E+02  0.00000000000E+00 0.  1.
         22    1    1    2    0    0  0.13770063224E+02  0.35940931406E+02 -0.15033800896E+03  0.15518660422E+03  0.00000000000E+00 0.  1.
         22    1    1    2    0    0 -0.18337741339E+02 -0.26038429586E+02  0.11949975912E+02  0.34015797757E+02  0.00000000000E+00 0.  1.
</event>
<event>
 6    1  0.2809573E-005  0.1205065E+03  0.7818608E-02  0.1278305E+00
          2   -1    0    0  502    0  0.00000000000E+00  0.00000000000E+00  0.31361795188E+02  0.31361795188E+02  0.00000000000E+00 0.  1.
          1   -1    0    0  501    0 -0.00000000000E+00 -0.00000000000E+00 -0.21488449972E+04  0.21488449972E+04  0.00000000000E+00 0.  1.
          2    1    1    2  501    0 -0.24181740047E+02  0.79978916009E+01 -0.14765663720E+03  0.14983726283E+03  0.00000000000E+00 0.  1.
          1    1    1    2  502    0  0.46872545798E+02  0.86360567961E+01 -0.18680815289E+04  0.18686894379E+04  0.00000000000E+00 0.  1.
         22    1    1    2    0    0 -0.21757625097E+02  0.43600791057E+02 -0.67492746833E+01  0.49193250954E+02  0.00000000000E+00 0.  1.
         22    1    1    2    0    0 -0.93318065381E+00 -0.60234739454E+02 -0.94995761280E+02  0.11248684067E+03  0.00000000000E+00 0.  1.
</event>
<event>
 6    1  0.2809573E-005  0.1094167E+03  0.7818608E-02  0.1352371E+00
          2   -1    0    0  502    0  0.00000000000E+00  0.00000000000E+00  0.71522993961E+02  0.71522993961E+02  0.00000000000E+00 0.  1.
          1   -1    0    0  501    0 -0.00000000000E+00 -0.00000000000E+00 -0.50649350580E+03  0.50649350580E+03  0.00000000000E+00 0.  1.
          2    1    1    2  501    0  0.37438925830E+02 -0.54118208974E+02 -0.12820549806E+03  0.14410795760E+03  0.00000000000E+00 0.  1.
          1    1    1    2  502    0 -0.14539952239E+02  0.72340076227E+02 -0.30031459759E+03  0.30924642984E+03  0.00000000000E+00 0.  1.
         22    1    1    2    0    0  0.11865132918E+02  0.17186636826E+02  0.47180733252E+02  0.51596351176E+02  0.00000000000E+00 0.  1.
         22    1    1    2    0    0 -0.34764106509E+02 -0.35408504080E+02 -0.53631149433E+02  0.73065761147E+02  0.00000000000E+00 0.  1.
</event>
<event>
 6    1  0.2809573E-005  0.1275241E+03  0.7818608E-02  0.1233340E+00
          2   -1    0    0  502    0  0.00000000000E+00  0.00000000000E+00  0.13134424291E+03  0.13134424291E+03  0.00000000000E+00 0.  1.
          1   -1    0    0  501    0 -0.00000000000E+00 -0.00000000000E+00 -0.87276879209E+03  0.87276879209E+03  0.00000000000E+00 0.  1.
          2    1    1    2  501    0 -0.92637906924E+02  0.16602251576E+01 -0.60419790519E+02  0.11061233762E+03  0.00000000000E+00 0.  1.
          1    1    1    2  502    0 -0.20736763136E+02  0.25331429832E+02 -0.71602235035E+03  0.71677032645E+03  0.00000000000E+00 0.  1.
         22    1    1    2    0    0  0.12498839485E+03 -0.29447759443E+02  0.65404123216E+02  0.14410749015E+03  0.00000000000E+00 0.  1.
         22    1    1    2    0    0 -0.11613724787E+02  0.24561044533E+01 -0.30386531528E+02  0.32622880787E+02  0.00000000000E+00 0. -1.
</event>
<event>
 6    1  0.2809573E-005  0.5490939E+02  0.7818608E-02  0.1431771E+00
          2   -1    0    0  502    0  0.00000000000E+00  0.00000000000E+00  0.72223162604E+02  0.72223162604E+02  0.00000000000E+00 0.  1.
          1   -1    0    0  501    0 -0.00000000000E+00 -0.00000000000E+00 -0.82654876922E+03  0.82654876922E+03  0.00000000000E+00 0.  1.
          2    1    1    2  501    0  0.68913043589E+01 -0.19002869196E+02 -0.16091139093E+02  0.25836483328E+02  0.00000000000E+00 0.  1.
          1    1    1    2  502    0 -0.49465910928E+02  0.14093151780E+01 -0.73423827801E+03  0.73590400964E+03  0.00000000000E+00 0.  1.
         22    1    1    2    0    0  0.48581034024E+02 -0.28274942189E+02 -0.47452240309E+02  0.73561568315E+02  0.00000000000E+00 0.  1.
         22    1    1    2    0    0 -0.60064274552E+01  0.45868496206E+02  0.43456050797E+02  0.63469870536E+02  0.00000000000E+00 0.  1.
</event>
<event>
 6    1  0.2809573E-005  0.1074666E+03  0.7818608E-02  0.1329044E+00
          2   -1    0    0  502    0  0.00000000000E+00  0.00000000000E+00  0.16902856018E+03  0.16902856018E+03  0.00000000000E+00 0. -1.
          1   -1    0    0  501    0 -0.00000000000E+00 -0.00000000000E+00 -0.19912773161E+03  0.19912773161E+03  0.00000000000E+00 0. -1.
          2    1    1    2  501    0 -0.46207703352E+02 -0.41706779881E+02 -0.50072069791E+02  0.79886291129E+02  0.00000000000E+00 0. -1.
          1    1    1    2  502    0  0.10587379543E+02  0.99994269397E+02 -0.67802534804E+02  0.12127708046E+03  0.00000000000E+00 0. -1.
         22    1    1    2    0    0  0.13233146723E+02 -0.30237560689E+02  0.11646168730E+03  0.12104854752E+03  0.00000000000E+00 0. -1.
         22    1    1    2    0    0  0.22387177087E+02 -0.28049928827E+02 -0.28686254137E+02  0.45944372686E+02  0.00000000000E+00 0. -1.
</event>
<event>
 6    1  0.2809573E-005  0.3073196E+03  0.7818608E-02  0.1195179E+00
          2   -1    0    0  502    0  0.00000000000E+00  0.00000000000E+00  0.10504483567E+03  0.10504483567E+03  0.00000000000E+00 0.  1.
          1   -1    0    0  501    0 -0.00000000000E+00 -0.00000000000E+00 -0.17130051479E+04  0.17130051479E+04  0.00000000000E+00 0.  1.
          2    1    1    2  501    0  0.92308990779E+02 -0.52263424923E+02 -0.19720474578E+03  0.22392437814E+03  0.00000000000E+00 0.  1.
          1    1    1    2  502    0 -0.25208851140E+03  0.10445209032E+03 -0.13506351855E+04  0.13779238953E+04  0.00000000000E+00 0.  1.
         22    1    1    2    0    0  0.16158362844E+03 -0.71680786098E+02 -0.74586830704E+02  0.19186088551E+03  0.00000000000E+00 0.  1.
         22    1    1    2    0    0 -0.18041078225E+01  0.19492120699E+02  0.14466449799E+02  0.24340824640E+02  0.00000000000E+00 0.  1.
</event>
<event>
 6    1  0.4368327E-005  0.2511097E+03  0.7818608E-02  0.1217678E+00
          2   -1    0    0  502    0  0.00000000000E+00  0.00000000000E+00  0.11813938630E+04  0.11813938630E+04  0.00000000000E+00 0.  1.
          1   -1    0    0  501    0 -0.00000000000E+00 -0.00000000000E+00 -0.27206877859E+03  0.27206877859E+03  0.00000000000E+00 0. -1.
          2    1    1    2  501    0  0.11945725222E+02 -0.21982171913E+02  0.24727892606E+02  0.35176482284E+02  0.00000000000E+00 0.  1.
          1    1    1    2  502    0 -0.11858900984E+03 -0.14126136508E+03 -0.22145395750E+03  0.28820128697E+03  0.00000000000E+00 0. -1.
         22    1    1    2    0    0  0.96427569785E+02  0.18287333923E+03  0.10422140228E+04  0.10625210604E+04  0.00000000000E+00 0.  1.
         22    1    1    2    0    0  0.10215714828E+02 -0.19629802236E+02  0.63837126468E+02  0.67563811919E+02  0.00000000000E+00 0. -1.
</event>
<event>
 6    1  0.2809573E-005  0.1168751E+03  0.7818608E-02  0.1295993E+00
          2   -1    0    0  502    0  0.00000000000E+00  0.00000000000E+00  0.41569162247E+03  0.41569162247E+03  0.00000000000E+00 0. -1.
          1   -1    0    0  501    0 -0.00000000000E+00 -0.00000000000E+00 -0.94453060637E+02  0.94453060637E+02  0.00000000000E+00 0. -1.
          2    1    1    2  501    0  0.75754831515E+02 -0.74875468805E+01 -0.26946886775E+02  0.80752662885E+02  0.00000000000E+00 0. -1.
          1    1    1    2  502    0 -0.87037415343E+02  0.44991553018E+02  0.67555324805E+02  0.11901039208E+03  0.00000000000E+00 0. -1.
         22    1    1    2    0    0 -0.29236142428E+02 -0.36340813280E+02  0.26137769767E+03  0.26550651136E+03  0.00000000000E+00 0. -1.
         22    1    1    2    0    0  0.40518726256E+02 -0.11631928572E+01  0.19252426138E+02  0.44875116793E+02  0.00000000000E+00 0. -1.
</event>
<event>
 6    1  0.2809573E-005  0.2512243E+03  0.7818608E-02  0.1148391E+00
          2   -1    0    0  502    0  0.00000000000E+00  0.00000000000E+00  0.29287026806E+03  0.29287026806E+03  0.00000000000E+00 0.  1.
          1   -1    0    0  501    0 -0.00000000000E+00 -0.00000000000E+00 -0.29821962933E+04  0.29821962933E+04  0.00000000000E+00 0. -1.
          2    1    1    2  501    0  0.18655490113E+03 -0.48815996426E+02  0.10087539485E+03  0.21762715347E+03  0.00000000000E+00 0.  1.
          1    1    1    2  502    0 -0.24165770151E+03 -0.48520648151E+02 -0.28634442870E+04  0.28740330344E+04  0.00000000000E+00 0. -1.
         22    1    1    2    0    0  0.50272548928E+02 -0.67422725297E+01  0.59701160309E+02  0.78339108731E+02  0.00000000000E+00 0. -1.
         22    1    1    2    0    0  0.48302514491E+01  0.10407891711E+03  0.13541706570E+02  0.10506726480E+03  0.00000000000E+00 0.  1.
</event>
<event>
 6    1  0.2809573E-005  0.1454013E+03  0.7818608E-02  0.1210572E+00
          2   -1    0    0  502    0  0.00000000000E+00  0.00000000000E+00  0.87342596848E+03  0.87342596848E+03  0.00000000000E+00 0.  1.
          1   -1    0    0  501    0 -0.00000000000E+00 -0.00000000000E+00 -0.48627890114E+02  0.48627890114E+02  0.00000000000E+00 0.  1.
          2    1    1    2  501    0 -0.13653043781E+03  0.44262369149E+02  0.36166806030E+03  0.38910603132E+03  0.00000000000E+00 0.  1.
          1    1    1    2  502    0  0.82981841397E+02  0.17820043247E+02  0.62118053939E+02  0.10517695835E+03  0.00000000000E+00 0.  1.
         22    1    1    2    0    0  0.68016412677E+02 -0.91337198108E+02  0.27605178643E+03  0.29861899628E+03  0.00000000000E+00 0.  1.
         22    1    1    2    0    0 -0.14467816264E+02  0.29254785712E+02  0.12496017771E+03  0.12915187264E+03  0.00000000000E+00 0.  1.
</event>
<event>
 6    1  0.2809573E-005  0.1524121E+03  0.7818608E-02  0.1243501E+00
          2   -1    0    0  502    0  0.00000000000E+00  0.00000000000E+00  0.18695433987E+03  0.18695433987E+03  0.00000000000E+00 0. -1.
          1   -1    0    0  501    0 -0.00000000000E+00 -0.00000000000E+00 -0.13247025449E+04  0.13247025449E+04  0.00000000000E+00 0. -1.
          2    1    1    2  501    0  0.58077505445E+02  0.10871675145E+03 -0.41314682701E+01  0.12332638693E+03  0.00000000000E+00 0. -1.
          1    1    1    2  502    0 -0.65436324332E+02 -0.88398450448E+02 -0.12244179638E+04  0.12293476110E+04  0.00000000000E+00 0. -1.
         22    1    1    2    0    0 -0.56579145857E+02 -0.13177062742E+02  0.70856249776E+02  0.91626649293E+02  0.00000000000E+00 0. -1.
         22    1    1    2    0    0  0.63937964744E+02 -0.71412382543E+01  0.19944977260E+02  0.67356237553E+02  0.00000000000E+00 0.  1.
</event>
<event>
 6    1  0.2809573E-005  0.1364827E+03  0.7818608E-02  0.1259260E+00
          2   -1    0    0  502    0  0.00000000000E+00  0.00000000000E+00  0.27620604031E+03  0.27620604031E+03  0.00000000000E+00 0.  1.
          1   -1    0    0  501    0 -0.00000000000E+00 -0.00000000000E+00 -0.21147699325E+03  0.21147699325E+03  0.00000000000E+00 0.  1.
          2    1    1    2  501    0 -0.91746296683E+02 -0.16761511845E+01  0.15724604515E+03  0.18206183333E+03  0.00000000000E+00 0.  1.
          1    1    1    2  502    0  0.12660190108E+03 -0.27875742774E+02 -0.11089872625E+03  0.17059784839E+03  0.00000000000E+00 0.  1.
         22    1    1    2    0    0 -0.19989423880E+02  0.55606682841E+02 -0.38632944687E+02  0.70598758196E+02  0.00000000000E+00 0. -1.
         22    1    1    2    0    0 -0.14866180517E+02 -0.26054788882E+02  0.57014672846E+02  0.64424593647E+02  0.00000000000E+00 0. -1.
</event>
<event>
 6    1  0.2809573E-005  0.2224304E+03  0.7818608E-02  0.1207871E+00
          2   -1    0    0  502    0  0.00000000000E+00  0.00000000000E+00  0.17312179105E+03  0.17312179105E+03  0.00000000000E+00 0. -1.
          1   -1    0    0  501    0 -0.00000000000E+00 -0.00000000000E+00 -0.50483255068E+03  0.50483255068E+03  0.00000000000E+00 0.  1.
          2    1    1    2  501    0 -0.19647300014E+02 -0.31160086215E+02 -0.52839889899E+02  0.64412897275E+02  0.00000000000E+00 0. -1.
          1    1    1    2  502    0  0.11807730860E+03 -0.33472037615E+02 -0.39056461324E+03  0.40939387541E+03  0.00000000000E+00 0.  1.
         22    1    1    2    0    0 -0.81815202549E+02  0.10015730234E+03  0.99189378571E+02  0.16298388080E+03  0.00000000000E+00 0. -1.
         22    1    1    2    0    0 -0.16614806035E+02 -0.35525178507E+02  0.12504364936E+02  0.41163688246E+02  0.00000000000E+00 0. -1.
</event>
<event>
 6    1  0.2809573E-005  0.1236188E+03  0.7818608E-02  0.1279525E+00
          2   -1    0    0  502    0  0.00000000000E+00  0.00000000000E+00  0.77139399552E+02  0.77139399552E+02  0.00000000000E+00 0. -1.
          1   -1    0    0  501    0 -0.00000000000E+00 -0.00000000000E+00 -0.58931355338E+03  0.58931355338E+03  0.00000000000E+00 0. -1.
          2    1    1    2  501    0 -0.31000522402E+02 -0.15909475907E+02  0.25976126571E+02  0.43461511300E+02  0.00000000000E+00 0. -1.
          1    1    1    2  502    0  0.40578801125E+02  0.17625933277E+02 -0.47849908940E+03  0.48053999957E+03  0.00000000000E+00 0. -1.
         22    1    1    2    0    0  0.15180913550E+02  0.56221496554E+02 -0.53613414486E+02  0.79156269643E+02  0.00000000000E+00 0. -1.
         22    1    1    2    0    0 -0.24759192274E+02 -0.57937953924E+02 -0.60377765115E+01  0.63295172424E+02  0.00000000000E+00 0. -1.
</event>
<event>
 6    1  0.2809573E-005  0.8226753E+03  0.7818608E-02  0.1082637E+00
          2   -1    0    0  502    0  0.00000000000E+00  0.00000000000E+00  0.12769905626E+04  0.12769905626E+04  0.00000000000E+00 0. -1.
          1   -1    0    0  501    0 -0.00000000000E+00 -0.00000000000E+00 -0.24846310491E+03  0.24846310491E+03  0.00000000000E+00 0. -1.
          2    1    1    2  501    0 -0.34887162773E+02 -0.84091249108E+02 -0.12461362200E+03  0.15432759666E+03  0.00000000000E+00 0. -1.
          1    1    1    2  502    0  0.23222116936E+03 -0.11007559975E+03  0.10154804701E+03  0.27632465509E+03  0.00000000000E+00 0. -1.
         22    1    1    2    0    0 -0.10517156525E+02 -0.11517166223E+02  0.15093422580E+02  0.21704080362E+02  0.00000000000E+00 0.  1.
         22    1    1    2    0    0 -0.18681685006E+03  0.20568401508E+03  0.10364996101E+04  0.10730973354E+04  0.00000000000E+00 0. -1.
</event>
<event>
 6    1  0.2809573E-005  0.7246152E+02  0.7818608E-02  0.1354936E+00
          2   -1    0    0  502    0  0.00000000000E+00  0.00000000000E+00  0.54923593063E+03  0.54923593063E+03  0.00000000000E+00 0.  1.
          1   -1    0    0  501    0 -0.00000000000E+00 -0.00000000000E+00 -0.66029725674E+02  0.66029725674E+02  0.00000000000E+00 0.  1.
          2    1    1    2  501    0  0.40393544343E+02  0.43548864114E+02  0.83464215089E+02  0.10244226272E+03  0.00000000000E+00 0.  1.
          1    1    1    2  502    0 -0.13145166846E+02 -0.50811161756E+02 -0.32881090892E+02  0.61933316629E+02  0.00000000000E+00 0.  1.
         22    1    1    2    0    0  0.37967622352E+02  0.14252309595E+02  0.59250919190E+02  0.71800697077E+02  0.00000000000E+00 0.  1.
         22    1    1    2    0    0 -0.65215999850E+02 -0.69900119526E+01  0.37337216157E+03  0.37908937988E+03  0.00000000000E+00 0.  1.
</event>
<event>
 6    1  0.3300985E-005  0.7681010E+02  0.7818608E-02  0.1364744E+00
          2   -1    0    0  502    0  0.00000000000E+00  0.00000000000E+00  0.28328770548E+03  0.28328770548E+03  0.00000000000E+00 0. -1.
          1   -1    0    0  501    0 -0.00000000000E+00 -0.00000000000E+00 -0.78716891736E+03  0.78716891736E+03  0.00000000000E+00 0.  1.
          2    1    1    2  501    0  0.39959239481E+02  0.40657288002E+01  0.69525011998E+02  0.80293201854E+02  0.00000000000E+00 0. -1.
          1    1    1    2  502    0 -0.58333141383E+02  0.27399148552E+02 -0.76031918469E+03  0.76304569413E+03  0.00000000000E+00 0.  1.
         22    1    1    2    0    0  0.29538061721E+02  0.16259935745E+02  0.17287688122E+03  0.17613431994E+03  0.00000000000E+00 0. -1.
         22    1    1    2    0    0 -0.11164159819E+02 -0.47724813098E+02  0.14036079585E+02  0.50983406907E+02  0.00000000000E+00 0. -1.
</event>
<event>
 6    1  0.2809573E-005  0.9329858E+02  0.7818608E-02  0.1321215E+00
          2   -1    0    0  502    0  0.00000000000E+00  0.00000000000E+00  0.47261984372E+03  0.47261984372E+03  0.00000000000E+00 0. -1.
          1   -1    0    0  501    0 -0.00000000000E+00 -0.00000000000E+00 -0.41505023344E+02  0.41505023344E+02  0.00000000000E+00 0. -1.
          2    1    1    2  501    0  0.14356217844E+02  0.32517598106E+02  0.16051195344E+02  0.39001744183E+02  0.00000000000E+00 0. -1.
          1    1    1    2  502    0 -0.58215638725E+02 -0.73560403492E+02  0.13854236422E+03  0.16731461454E+03  0.00000000000E+00 0. -1.
         22    1    1    2    0    0  0.49366134645E+02 -0.16646282241E+02  0.44053299393E+02  0.68226147111E+02  0.00000000000E+00 0. -1.
         22    1    1    2    0    0 -0.55067137647E+01  0.57689087628E+02  0.23246796142E+03  0.23958236123E+03  0.00000000000E+00 0. -1.
</event>
<event>
 6    1  0.2809573E-005  0.1918904E+03  0.7818608E-02  0.1186969E+00
          2   -1    0    0  502    0  0.00000000000E+00  0.00000000000E+00  0.75655822071E+02  0.75655822071E+02  0.00000000000E+00 0. -1.
          1   -1    0    0  501    0 -0.00000000000E+00 -0.00000000000E+00 -0.13350196692E+04  0.13350196692E+04  0.00000000000E+00 0. -1.
          2    1    1    2  501    0 -0.13868629880E+03 -0.42742715230E+02 -0.23882940744E+03  0.27946433590E+03  0.00000000000E+00 0. -1.
          1    1    1    2  502    0  0.13669160083E+03  0.11587249246E+03 -0.95216581762E+03  0.96888119628E+03  0.00000000000E+00 0. -1.
         22    1    1    2    0    0  0.51593267947E+02 -0.81400215286E+02 -0.38047773015E+02  0.10361222600E+03  0.00000000000E+00 0. -1.
         22    1    1    2    0    0 -0.49598569984E+02  0.82704380585E+01 -0.30320849004E+02  0.58717733049E+02  0.00000000000E+00 0. -1.
</event>
<event>
 6    1  0.2809573E-005  0.1300580E+03  0.7818608E-02  0.1248507E+00
          2   -1    0    0  502    0  0.00000000000E+00  0.00000000000E+00  0.27362223798E+03  0.27362223798E+03  0.00000000000E+00 0. -1.
          1   -1    0    0  501    0 -0.00000000000E+00 -0.00000000000E+00 -0.62362420130E+03  0.62362420130E+03  0.00000000000E+00 0.  1.
          2    1    1    2  501    0  0.76125230925E+01  0.13695647668E+03 -0.82613572558E+02  0.16012504296E+03  0.00000000000E+00 0. -1.
          1    1    1    2  502    0  0.71680041073E+02 -0.98296508209E+02 -0.46935185606E+03  0.48486224497E+03  0.00000000000E+00 0.  1.
         22    1    1    2    0    0 -0.65075333938E+02 -0.53960439839E+02  0.21262138406E+03  0.22881079763E+03  0.00000000000E+00 0. -1.
         22    1    1    2    0    0 -0.14217230227E+02  0.15300471371E+02 -0.10657918756E+02  0.23448353710E+02  0.00000000000E+00 0.  1.
</event>
<event>
 6    1  0.2809573E-005  0.1926865E+03  0.7818608E-02  0.1253715E+00
          2   -1    0    0  502    0  0.00000000000E+00  0.00000000000E+00  0.56896742316E+03  0.56896742316E+03  0.00000000000E+00 0. -1.
          1   -1    0    0  501    0 -0.00000000000E+00 -0.00000000000E+00 -0.48084344363E+03  0.48084344363E+03  0.00000000000E+00 0.  1.
          2    1    1    2  501    0 -0.42699755302E+01  0.25712921461E+02  0.84184431624E+01  0.27390823397E+02  0.00000000000E+00 0. -1.
          1    1    1    2  502    0 -0.39103791414E+02  0.10526590377E+03 -0.44852459417E+03  0.46236817426E+03  0.00000000000E+00 0.  1.
         22    1    1    2    0    0  0.32593131311E+02 -0.15178313261E+03  0.38847159175E+03  0.41834269344E+03  0.00000000000E+00 0. -1.
         22    1    1    2    0    0  0.10780635633E+02  0.20804307387E+02  0.13975853879E+03  0.14170917569E+03  0.00000000000E+00 0. -1.
</event>
<event>
 6    1  0.2809573E-005  0.4206542E+02  0.7818608E-02  0.1501602E+00
          2   -1    0    0  502    0  0.00000000000E+00  0.00000000000E+00  0.43982089019E+02  0.43982089019E+02  0.00000000000E+00 0.  1.
          1   -1    0    0  501    0 -0.00000000000E+00 -0.00000000000E+00 -0.90762398032E+03  0.90762398032E+03  0.00000000000E+00 0.  1.
          2    1    1    2  501    0  0.18124592293E+02  0.20807659891E+02 -0.43025948094E+02  0.51114496626E+02  0.00000000000E+00 0.  1.
          1    1    1    2  502    0 -0.30437315558E+02 -0.90921297744E+01 -0.76273511892E+03  0.76339633130E+03  0.00000000000E+00 0.  1.
         22    1    1    2    0    0 -0.25403950579E+02 -0.25300315970E+02  0.25891555254E+02  0.44224872263E+02  0.00000000000E+00 0.  1.
         22    1    1    2    0    0  0.37716673845E+02  0.13584785853E+02 -0.83772379537E+02  0.92870369149E+02  0.00000000000E+00 0.  1.
</event>
<event>
 6    1  0.2809573E-005  0.1654701E+03  0.7818608E-02  0.1322110E+00
          2   -1    0    0  502    0  0.00000000000E+00  0.00000000000E+00  0.31106269008E+02  0.31106269008E+02  0.00000000000E+00 0.  1.
          1   -1    0    0  501    0 -0.00000000000E+00 -0.00000000000E+00 -0.11896771759E+04  0.11896771759E+04  0.00000000000E+00 0.  1.
          2    1    1    2  501    0  0.35219953276E+02 -0.23395870743E+01 -0.24311511118E+03  0.24566415298E+03  0.00000000000E+00 0.  1.
          1    1    1    2  502    0 -0.14127873055E+03  0.65443243310E+02 -0.52703487642E+03  0.54955278069E+03  0.00000000000E+00 0.  1.
         22    1    1    2    0    0 -0.41438098192E+01 -0.93461085109E+01  0.64555453295E+01  0.12091111182E+02  0.00000000000E+00 0.  1.
         22    1    1    2    0    0  0.11020258709E+03 -0.53757547725E+02 -0.39487646466E+03  0.41347540010E+03  0.00000000000E+00 0.  1.
</event>
<event>
 6    1  0.2809573E-005  0.8746598E+02  0.7818608E-02  0.1311409E+00
          2   -1    0    0  502    0  0.00000000000E+00  0.00000000000E+00  0.30332534090E+03  0.30332534090E+03  0.00000000000E+00 0.  1.
          1   -1    0    0  501    0 -0.00000000000E+00 -0.00000000000E+00 -0.14577203636E+04  0.14577203636E+04  0.00000000000E+00 0.  1.
          2    1    1    2  501    0  0.60888455219E+02  0.94207677913E+01  0.15613848909E+03  0.16785524306E+03  0.00000000000E+00 0.  1.
          1    1    1    2  502    0  0.22193127016E+02  0.28608837804E+02 -0.14079208615E+04  0.14083863649E+04  0.00000000000E+00 0.  1.
         22    1    1    2    0    0 -0.10264674628E+03 -0.27757695803E+02  0.25156849448E+02  0.10926898586E+03  0.00000000000E+00 0.  1.
         22    1    1    2    0    0  0.19565164042E+02 -0.10271909792E+02  0.72230500288E+02  0.75535110688E+02  0.00000000000E+00 0.  1.
</event>
<event>
 6    1  0.2809573E-005  0.3084281E+03  0.7818608E-02  0.1161032E+00
          2   -1    0    0  502    0  0.00000000000E+00  0.00000000000E+00  0.41329043526E+03  0.41329043526E+03  0.00000000000E+00 0.  1.
          1   -1    0    0  501    0 -0.00000000000E+00 -0.00000000000E+00 -0.10599873182E+03  0.10599873182E+03  0.00000000000E+00 0.  1.
          2    1    1    2  501    0  0.93802257239E+01  0.26149761868E+02 -0.69576802339E+02  0.74918156038E+02  0.00000000000E+00 0.  1.
          1    1    1    2  502    0  0.82849554938E+01  0.25438664473E+02 -0.14077949493E+02  0.30231685358E+02  0.00000000000E+00 0.  1.
         22    1    1    2    0    0  0.14475606048E+02  0.37826566346E+02  0.93781550185E+02  0.10215366585E+03  0.00000000000E+00 0. -1.
         22    1    1    2    0    0 -0.32140787266E+02 -0.89414992687E+02  0.29716490509E+03  0.31198565983E+03  0.00000000000E+00 0.  1.
</event>
<event>
 6    1  0.2809573E-005  0.1532159E+03  0.7818608E-02  0.1239775E+00
          2   -1    0    0  502    0  0.00000000000E+00  0.00000000000E+00  0.57549742056E+03  0.57549742056E+03  0.00000000000E+00 0.  1.
          1   -1    0    0  501    0 -0.00000000000E+00 -0.00000000000E+00 -0.41083627779E+03  0.41083627779E+03  0.00000000000E+00 0. -1.
          2    1    1    2  501    0  0.25741380705E+02 -0.14130892433E+01  0.81783041596E+02  0.85750110172E+02  0.00000000000E+00 0.  1.
          1    1    1    2  502    0 -0.12043293710E+03 -0.92403194695E+02 -0.37720503161E+03  0.40660309714E+03  0.00000000000E+00 0. -1.
         22    1    1    2    0    0  0.10965942845E+03  0.33994891043E+02  0.25134745914E+03  0.27632659676E+03  0.00000000000E+00 0.  1.
         22    1    1    2    0    0 -0.14967872052E+02  0.59821392895E+02  0.20873567365E+03  0.21765389428E+03  0.00000000000E+00 0. -1.
</event>
<event>
 6    1  0.2809573E-005  0.1179637E+03  0.7818608E-02  0.1359130E+00
          2   -1    0    0  502    0  0.00000000000E+00  0.00000000000E+00  0.15684578803E+02  0.15684578803E+02  0.00000000000E+00 0. -1.
          1   -1    0    0  501    0 -0.00000000000E+00 -0.00000000000E+00 -0.20333271270E+04  0.20333271270E+04  0.00000000000E+00 0. -1.
          2    1    1    2  501    0 -0.38929239699E+02  0.24051112072E+02 -0.13107717501E+04  0.13115702507E+04  0.00000000000E+00 0. -1.
          1    1    1    2  502    0  0.25599265100E+02  0.11227235904E+02 -0.45523846219E+03  0.45609585688E+03  0.00000000000E+00 0. -1.
         22    1    1    2    0    0  0.11075633543E+02  0.99154472101E+01  0.86231899342E+01  0.17185608991E+02  0.00000000000E+00 0. -1.
         22    1    1    2    0    0  0.22543410564E+01 -0.45193795186E+02 -0.26025552586E+03  0.26415998925E+03  0.00000000000E+00 0. -1.
</event>
<event>
 6    1  0.2809573E-005  0.1611444E+03  0.7818608E-02  0.1314643E+00
          2   -1    0    0  502    0  0.00000000000E+00  0.00000000000E+00  0.11618078482E+03  0.11618078482E+03  0.00000000000E+00 0.  1.
          1   -1    0    0  501    0 -0.00000000000E+00 -0.00000000000E+00 -0.19437191594E+04  0.19437191594E+04  0.00000000000E+00 0.  1.
          2    1    1    2  501    0  0.13204539700E+02 -0.97149993915E+02  0.21197096978E+02  0.10030851463E+03  0.00000000000E+00 0.  1.
          1    1    1    2  502    0 -0.25039743094E+02  0.71723724706E+02 -0.18326352327E+04  0.18342091423E+04  0.00000000000E+00 0.  1.
         22    1    1    2    0    0  0.21322571463E+02  0.17053833423E+02 -0.67307636339E+02  0.72634724463E+02  0.00000000000E+00 0. -1.
         22    1    1    2    0    0 -0.94873680700E+01  0.83724357864E+01  0.51207397474E+02  0.52747562881E+02  0.00000000000E+00 0.  1.
</event>
<event>
 6    1  0.2809573E-005  0.8602802E+02  0.7818608E-02  0.1317905E+00
          2   -1    0    0  502    0  0.00000000000E+00  0.00000000000E+00  0.13522200603E+03  0.13522200603E+03  0.00000000000E+00 0. -1.
          1   -1    0    0  501    0 -0.00000000000E+00 -0.00000000000E+00 -0.46445921844E+03  0.46445921844E+03  0.00000000000E+00 0.  1.
          2    1    1    2  501    0  0.21363786801E+02  0.47385082787E+02 -0.33332457032E+02  0.61747956638E+02  0.00000000000E+00 0. -1.
          1    1    1    2  502    0  0.15965916106E+02 -0.32338049635E+02 -0.38101030815E+03  0.38271335860E+03  0.00000000000E+00 0.  1.
         22    1    1    2    0    0 -0.48368973707E+02 -0.58050118000E+02  0.80782089089E+02  0.11061247549E+03  0.00000000000E+00 0.  1.
         22    1    1    2    0    0  0.11039270799E+02  0.43003084848E+02  0.43234636899E+01  0.44607433736E+02  0.00000000000E+00 0. -1.
</event>
<event>
 6    1  0.2809573E-005  0.1577959E+03  0.7818608E-02  0.1192849E+00
          2   -1    0    0  502    0  0.00000000000E+00  0.00000000000E+00  0.63509985671E+03  0.63509985671E+03  0.00000000000E+00 0.  1.
          1   -1    0    0  501    0 -0.00000000000E+00 -0.00000000000E+00 -0.14228889639E+03  0.14228889639E+03  0.00000000000E+00 0.  1.
          2    1    1    2  501    0 -0.12651252007E+03  0.43267824363E+02  0.29859988292E+03  0.32716878280E+03  0.00000000000E+00 0.  1.
          1    1    1    2  502    0  0.48066926389E+02  0.57069314619E+02 -0.87580337915E+02  0.11505499412E+03  0.00000000000E+00 0.  1.
         22    1    1    2    0    0 -0.32441091146E+02 -0.18030016109E+01  0.40499175954E+02  0.51921656971E+02  0.00000000000E+00 0.  1.
         22    1    1    2    0    0  0.11088668483E+03 -0.98534137371E+02  0.24129223936E+03  0.28324331921E+03  0.00000000000E+00 0.  1.
</event>
<event>
 6    1  0.2809573E-005  0.1480515E+03  0.7818608E-02  0.1277706E+00
          2   -1    0    0  502    0  0.00000000000E+00  0.00000000000E+00  0.13065966573E+03  0.13065966573E+03  0.00000000000E+00 0.  1.
          1   -1    0    0  501    0 -0.00000000000E+00 -0.00000000000E+00 -0.35541717661E+03  0.35541717661E+03  0.00000000000E+00 0.  1.
          2    1    1    2  501    0  0.44954869074E+02  0.10399028934E+03 -0.20770324401E+03  0.23659154275E+03  0.00000000000E+00 0.  1.
          1    1    1    2  502    0 -0.93468793345E+01 -0.81771495062E+02 -0.70709312366E+02  0.10850690491E+03  0.00000000000E+00 0.  1.
         22    1    1    2    0    0  0.34773316187E+01 -0.32186925761E+02  0.84312093516E+02  0.90314003002E+02  0.00000000000E+00 0.  1.
         22    1    1    2    0    0 -0.39085321359E+02  0.99681314798E+01 -0.30657048017E+02  0.50664391677E+02  0.00000000000E+00 0.  1.
</event>
<event>
 6    1  0.2809573E-005  0.2134126E+03  0.7818608E-02  0.1158586E+00
          2   -1    0    0  502    0  0.00000000000E+00  0.00000000000E+00  0.10601635993E+04  0.10601635993E+04  0.00000000000E+00 0. -1.
          1   -1    0    0  501    0 -0.00000000000E+00 -0.00000000000E+00 -0.21353433223E+03  0.21353433223E+03  0.00000000000E+00 0. -1.
          2    1    1    2  501    0  0.14096469271E+03 -0.97739349868E+02  0.11050488558E+03  0.20404743282E+03  0.00000000000E+00 0. -1.
          1    1    1    2  502    0 -0.78925455445E+02  0.20860392426E+03 -0.77866309693E+02  0.23623714128E+03  0.00000000000E+00 0. -1.
         22    1    1    2    0    0 -0.87713790100E+02 -0.10089003529E+03  0.76993920026E+03  0.78145945531E+03  0.00000000000E+00 0. -1.
         22    1    1    2    0    0  0.25674552837E+02 -0.99745391060E+01  0.44051490884E+02  0.51953902094E+02  0.00000000000E+00 0. -1.
</event>
<event>
 6    1  0.2809573E-005  0.1994508E+03  0.7818608E-02  0.1261177E+00
          2   -1    0    0  502    0  0.00000000000E+00  0.00000000000E+00  0.28384955576E+03  0.28384955576E+03  0.00000000000E+00 0. -1.
          1   -1    0    0  501    0 -0.00000000000E+00 -0.00000000000E+00 -0.33057448325E+03  0.33057448325E+03  0.00000000000E+00 0. -1.
          2    1    1    2  501    0  0.19932379289E+02  0.71079283945E+02  0.60010712884E+02  0.95135955407E+02  0.00000000000E+00 0. -1.
          1    1    1    2  502    0  0.61716664594E+02 -0.16683456418E+03 -0.23713879579E+03  0.29644143934E+03  0.00000000000E+00 0. -1.
         22    1    1    2    0    0 -0.13172377622E+02 -0.12608581017E+02  0.84880377393E+02  0.86816855010E+02  0.00000000000E+00 0. -1.
         22    1    1    2    0    0 -0.68476666261E+02  0.10836386125E+03  0.45522778019E+02  0.13602978926E+03  0.00000000000E+00 0.  1.
</event>
<event>
 6    1  0.2809573E-005  0.5627684E+03  0.7818608E-02  0.1082460E+00
          2   -1    0    0  502    0  0.00000000000E+00  0.00000000000E+00  0.10220780457E+04  0.10220780457E+04  0.00000000000E+00 0.  1.
          1   -1    0    0  501    0 -0.00000000000E+00 -0.00000000000E+00 -0.54818619036E+03  0.54818619036E+03  0.00000000000E+00 0.  1.
          2    1    1    2  501    0  0.63674427376E+02  0.50801402009E+03  0.34257846770E+03  0.61602977513E+03  0.00000000000E+00 0.  1.
          1    1    1    2  502    0 -0.10525694054E+03 -0.52340483103E+03 -0.22092646439E+03  0.57778901283E+03  0.00000000000E+00 0.  1.
         22    1    1    2    0    0  0.30685583387E+02  0.63117377424E+02  0.11925770027E+03  0.13837560274E+03  0.00000000000E+00 0. -1.
         22    1    1    2    0    0  0.10896929779E+02 -0.47726566483E+02  0.23298215180E+03  0.23806984539E+03  0.00000000000E+00 0.  1.
</event>
<event>
 6    1  0.2809573E-005  0.9839294E+02  0.7818608E-02  0.1341872E+00
          2   -1    0    0  502    0  0.00000000000E+00  0.00000000000E+00  0.22980360216E+03  0.22980360216E+03  0.00000000000E+00 0. -1.
          1   -1    0    0  501    0 -0.00000000000E+00 -0.00000000000E+00 -0.77528444996E+03  0.77528444996E+03  0.00000000000E+00 0.  1.
          2    1    1    2  501    0 -0.46253302496E+02 -0.16298794665E+02  0.17711729243E+02  0.52141385214E+02  0.00000000000E+00 0. -1.
          1    1    1    2  502    0  0.82494231172E+02  0.15006154152E+02 -0.73365886421E+03  0.73843470387E+03  0.00000000000E+00 0.  1.
         22    1    1    2    0    0 -0.41668857167E+02  0.35243128421E+02  0.16881406381E+02  0.57125770366E+02  0.00000000000E+00 0.  1.
         22    1    1    2    0    0  0.54279284908E+01 -0.33950487908E+02  0.15358488079E+03  0.15738619267E+03  0.00000000000E+00 0.  1.
</event>
<event>
 6    1  0.2809573E-005  0.1171207E+03  0.7818608E-02  0.1266825E+00
          2   -1    0    0  502    0  0.00000000000E+00  0.00000000000E+00  0.45260593937E+03  0.45260593937E+03  0.00000000000E+00 0. -1.
          1   -1    0    0  501    0 -0.00000000000E+00 -0.00000000000E+00 -0.34017831149E+02  0.34017831149E+02  0.00000000000E+00 0. -1.
          2    1    1    2  501    0  0.19718991432E+02 -0.37683378352E+02  0.30797077263E+02  0.52510337983E+02  0.00000000000E+00 0. -1.
          1    1    1    2  502    0  0.23280658986E+02 -0.16782878582E+02  0.81197144384E+01  0.29825892424E+02  0.00000000000E+00 0. -1.
         22    1    1    2    0    0 -0.21262674484E+02 -0.32884810029E+02  0.19441927525E+03  0.19832389328E+03  0.00000000000E+00 0. -1.
         22    1    1    2    0    0 -0.21736975933E+02  0.87351066963E+02  0.18525204127E+03  0.20596364683E+03  0.00000000000E+00 0. -1.
</event>
<event>
 6    1  0.2809573E-005  0.6824032E+02  0.7818608E-02  0.1396582E+00
          2   -1    0    0  502    0  0.00000000000E+00  0.00000000000E+00  0.22651838038E+03  0.22651838038E+03  0.00000000000E+00 0. -1.
          1   -1    0    0  501    0 -0.00000000000E+00 -0.00000000000E+00 -0.14903931210E+04  0.14903931210E+04  0.00000000000E+00 0.  1.
          2    1    1    2  501    0 -0.23485413201E+02 -0.44979931821E+02  0.21669497452E+02  0.55175411368E+02  0.00000000000E+00 0. -1.
          1    1    1    2  502    0  0.15462079587E+02  0.26813842825E+02 -0.14508374540E+04  0.14511675906E+04  0.00000000000E+00 0.  1.
         22    1    1    2    0    0  0.20221547894E+02 -0.20312326934E+02 -0.10253482355E+02  0.30440688644E+02  0.00000000000E+00 0. -1.
         22    1    1    2    0    0 -0.12198214280E+02  0.38478415930E+02  0.17554669830E+03  0.18012781076E+03  0.00000000000E+00 0. -1.
</event>
<event>
 6    1  0.4456083E-005  0.1182018E+03  0.7818608E-02  0.1246480E+00
          2   -1    0    0  502    0  0.00000000000E+00  0.00000000000E+00  0.90645439423E+03  0.90645439423E+03  0.00000000000E+00 0.  1.
          1   -1    0    0  501    0 -0.00000000000E+00 -0.00000000000E+00 -0.39432473837E+03  0.39432473837E+03  0.00000000000E+00 0.  1.
          2    1    1    2  501    0  0.27214675970E+02  0.52588128449E+02  0.67769015756E+02  0.89993273851E+02  0.00000000000E+00 0.  1.
          1    1    1    2  502    0  0.69721671910E+02  0.17722390447E+02 -0.37102059899E+03  0.37793052209E+03  0.00000000000E+00 0.  1.
         22    1    1    2    0    0 -0.11057198104E+03 -0.80377389183E+02  0.79344227250E+03  0.80513186962E+03  0.00000000000E+00 0.  1.
         22    1    1    2    0    0  0.13635633164E+02  0.10066870287E+02  0.21938966593E+02  0.27723467033E+02  0.00000000000E+00 0. -1.
</event>
<event>
 6    1  0.2809573E-005  0.1541005E+03  0.7818608E-02  0.1238259E+00
          2   -1    0    0  502    0  0.00000000000E+00  0.00000000000E+00  0.98266842368E+02  0.98266842368E+02  0.00000000000E+00 0. -1.
          1   -1    0    0  501    0 -0.00000000000E+00 -0.00000000000E+00 -0.28075114167E+03  0.28075114167E+03  0.00000000000E+00 0. -1.
          2    1    1    2  501    0  0.92425796076E+02  0.16945151769E+02 -0.13204300511E+02  0.94889512069E+02  0.00000000000E+00 0. -1.
          1    1    1    2  502    0 -0.10227996064E+03 -0.19455389407E+02 -0.68396494613E+02  0.12457039376E+03  0.00000000000E+00 0. -1.
         22    1    1    2    0    0  0.65561386446E+00  0.62504397793E+02 -0.57705689666E+02  0.85071594512E+02  0.00000000000E+00 0. -1.
         22    1    1    2    0    0  0.91985507006E+01 -0.59994160155E+02 -0.43177814515E+02  0.74486483700E+02  0.00000000000E+00 0.  1.
</event>
<event>
 6    1  0.2809573E-005  0.8718703E+02  0.7818608E-02  0.1328269E+00
          2   -1    0    0  502    0  0.00000000000E+00  0.00000000000E+00  0.53277418471E+03  0.53277418471E+03  0.00000000000E+00 0. -1.
          1   -1    0    0  501    0 -0.00000000000E+00 -0.00000000000E+00 -0.21380622993E+02  0.21380622993E+02  0.00000000000E+00 0.  1.
          2    1    1    2  501    0 -0.29892385329E+01 -0.20262156898E+02  0.16191259420E+03  0.16320287592E+03  0.00000000000E+00 0. -1.
          1    1    1    2  502    0 -0.39687278726E+01  0.23073380529E+02  0.31799044925E+01  0.23627176779E+02  0.00000000000E+00 0.  1.
         22    1    1    2    0    0 -0.50155797817E+02  0.26825109327E+02  0.18896352448E+03  0.19733829869E+03  0.00000000000E+00 0. -1.
         22    1    1    2    0    0  0.57113764222E+02 -0.29636332958E+02  0.15733753855E+03  0.16998645632E+03  0.00000000000E+00 0.  1.
</event>
<event>
 6    1  0.2809573E-005  0.1487711E+03  0.7818608E-02  0.1283109E+00
          2   -1    0    0  502    0  0.00000000000E+00  0.00000000000E+00  0.73736024965E+02  0.73736024965E+02  0.00000000000E+00 0.  1.
          1   -1    0    0  501    0 -0.00000000000E+00 -0.00000000000E+00 -0.32528359798E+03  0.32528359798E+03  0.00000000000E+00 0. -1.
          2    1    1    2  501    0  0.89030020023E-01 -0.29393335198E+02 -0.34813369271E+02  0.45562558756E+02  0.00000000000E+00 0.  1.
          1    1    1    2  502    0  0.84708485851E+02 -0.32299317143E+02 -0.15367132791E+03  0.17841987133E+03  0.00000000000E+00 0. -1.
         22    1    1    2    0    0 -0.85663935338E+02  0.90470575975E+02 -0.73211332870E+02  0.14450997957E+03  0.00000000000E+00 0.  1.
         22    1    1    2    0    0  0.86641946747E+00 -0.28777923633E+02  0.10148457032E+02  0.30527213294E+02  0.00000000000E+00 0.  1.
</event>
<event>
 6    1  0.2809573E-005  0.1302433E+03  0.7818608E-02  0.1228726E+00
          2   -1    0    0  502    0  0.00000000000E+00  0.00000000000E+00  0.29373045358E+03  0.29373045358E+03  0.00000000000E+00 0.  1.
          1   -1    0    0  501    0 -0.00000000000E+00 -0.00000000000E+00 -0.12519690143E+03  0.12519690143E+03  0.00000000000E+00 0.  1.
          2    1    1    2  501    0 -0.61716063996E+02  0.96604618680E+02  0.90569326891E+02  0.14609629660E+03  0.00000000000E+00 0.  1.
          1    1    1    2  502    0 -0.37067430038E+02 -0.86815543512E+02 -0.63175206330E+01  0.94608900384E+02  0.00000000000E+00 0.  1.
         22    1    1    2    0    0  0.12240343951E+03 -0.28597207842E+02  0.76095747789E+02  0.14693864411E+03  0.00000000000E+00 0.  1.
         22    1    1    2    0    0 -0.23619945476E+02  0.18808132674E+02  0.81859981013E+01  0.31283513931E+02  0.00000000000E+00 0.  1.
</event>
<event>
 6    1  0.2809573E-005  0.6154053E+02  0.7818608E-02  0.1408532E+00
          2   -1    0    0  502    0  0.00000000000E+00  0.00000000000E+00  0.14594520913E+03  0.14594520913E+03  0.00000000000E+00 0. -1.
          1   -1    0    0  501    0 -0.00000000000E+00 -0.00000000000E+00 -0.84017012051E+03  0.84017012051E+03  0.00000000000E+00 0. -1.
          2    1    1    2  501    0 -0.14755191724E+02 -0.43943738029E+02 -0.75428597717E+02  0.88533841825E+02  0.00000000000E+00 0. -1.
          1    1    1    2  502    0  0.23702511957E+02  0.16694532945E+02 -0.72913639480E+03  0.72971254527E+03  0.00000000000E+00 0. -1.
         22    1    1    2    0    0 -0.26132987134E+02 -0.15498779184E+02 -0.15321155416E+02  0.34027679557E+02  0.00000000000E+00 0.  1.
         22    1    1    2    0    0  0.17185666900E+02  0.42747984268E+02  0.12566123655E+03  0.13384126298E+03  0.00000000000E+00 0. -1.
</event>
<event>
 6    1  0.2809573E-005  0.1558828E+03  0.7818608E-02  0.1287790E+00
          2   -1    0    0  502    0  0.00000000000E+00  0.00000000000E+00  0.17332129315E+03  0.17332129315E+03  0.00000000000E+00 0. -1.
          1   -1    0    0  501    0 -0.00000000000E+00 -0.00000000000E+00 -0.34156363073E+03  0.34156363073E+03  0.00000000000E+00 0. -1.
          2    1    1    2  501    0 -0.11073692747E+02 -0.34870855508E+02  0.82357523914E+01  0.37502411287E+02  0.00000000000E+00 0. -1.
          1    1    1    2  502    0  0.40904759339E+01  0.15056167137E+03 -0.25108807049E+03  0.29279816943E+03  0.00000000000E+00 0. -1.
         22    1    1    2    0    0  0.29192710812E+02 -0.12132148330E+03  0.21339918561E+02  0.12659584827E+03  0.00000000000E+00 0. -1.
         22    1    1    2    0    0 -0.22209493999E+02  0.56306674382E+01  0.53270061954E+02  0.57988494894E+02  0.00000000000E+00 0.  1.
</event>
<event>
 6    1  0.2809573E-005  0.1372158E+03  0.7818608E-02  0.1310986E+00
          2   -1    0    0  502    0  0.00000000000E+00  0.00000000000E+00  0.30385217627E+02  0.30385217627E+02  0.00000000000E+00 0. -1.
          1   -1    0    0  501    0 -0.00000000000E+00 -0.00000000000E+00 -0.14839836989E+04  0.14839836989E+04  0.00000000000E+00 0. -1.
          2    1    1    2  501    0  0.49318011513E+02 -0.25781550078E+01 -0.18976867225E+03  0.19608942376E+03  0.00000000000E+00 0. -1.
          1    1    1    2  502    0  0.12091668157E+02  0.63102780725E+02 -0.10704123981E+04  0.10723389723E+04  0.00000000000E+00 0. -1.
         22    1    1    2    0    0 -0.47851678136E+02 -0.77716333640E+02 -0.20259255171E+03  0.22220115577E+03  0.00000000000E+00 0.  1.
         22    1    1    2    0    0 -0.13558001535E+02  0.17191707923E+02  0.91751408486E+01  0.23739364704E+02  0.00000000000E+00 0. -1.
</event>
<event>
 6    1  0.2809573E-005  0.1112679E+03  0.7818608E-02  0.1322892E+00
          2   -1    0    0  502    0  0.00000000000E+00  0.00000000000E+00  0.21374499087E+03  0.21374499087E+03  0.00000000000E+00 0. -1.
          1   -1    0    0  501    0 -0.00000000000E+00 -0.00000000000E+00 -0.10841049024E+04  0.10841049024E+04  0.00000000000E+00 0. -1.
          2    1    1    2  501    0 -0.40284264556E+02  0.55042031637E+02 -0.11470486138E+03  0.13345280980E+03  0.00000000000E+00 0. -1.
          1    1    1    2  502    0 -0.95165370949E+01 -0.88084321979E+02 -0.93379905307E+03  0.93799258194E+03  0.00000000000E+00 0. -1.
         22    1    1    2    0    0  0.17473634366E+02  0.25660673242E+02 -0.12079626059E+02  0.33312391312E+02  0.00000000000E+00 0.  1.
         22    1    1    2    0    0  0.32327167285E+02  0.73816170998E+01  0.19022362897E+03  0.19309211023E+03  0.00000000000E+00 0. -1.
</event>
<event>
 6    1  0.2809573E-005  0.2051077E+03  0.7818608E-02  0.1207568E+00
          2   -1    0    0  502    0  0.00000000000E+00  0.00000000000E+00  0.20116244446E+03  0.20116244446E+03  0.00000000000E+00 0. -1.
          1   -1    0    0  501    0 -0.00000000000E+00 -0.00000000000E+00 -0.27186912940E+03  0.27186912940E+03  0.00000000000E+00 0.  1.
          2    1    1    2  501    0 -0.90539979110E+02 -0.12138864196E+03  0.16904389720E+02  0.15237601060E+03  0.00000000000E+00 0. -1.
          1    1    1    2  502    0  0.54694976044E+02  0.16323853142E+03 -0.72411134479E+02  0.18676651451E+03  0.00000000000E+00 0.  1.
         22    1    1    2    0    0 -0.13317015240E+02 -0.52694461777E+02 -0.49059438040E+02  0.73218014571E+02  0.00000000000E+00 0.  1.
         22    1    1    2    0    0  0.49162018307E+02  0.10844572321E+02  0.33859497861E+02  0.60671034178E+02  0.00000000000E+00 0.  1.
</event>
<event>
 6    1  0.2809573E-005  0.2192440E+03  0.7818608E-02  0.1225441E+00
          2   -1    0    0  502    0  0.00000000000E+00  0.00000000000E+00  0.33413775325E+03  0.33413775325E+03  0.00000000000E+00 0. -1.
          1   -1    0    0  501    0 -0.00000000000E+00 -0.00000000000E+00 -0.61854342899E+03  0.61854342899E+03  0.00000000000E+00 0. -1.
          2    1    1    2  501    0  0.23296023922E+02  0.16870727925E+03  0.70210720612E+02  0.18421290967E+03  0.00000000000E+00 0. -1.
          1    1    1    2  502    0 -0.87516359304E+02 -0.16748770845E+03 -0.51802565081E+03  0.55141800888E+03  0.00000000000E+00 0. -1.
         22    1    1    2    0    0  0.63485896948E+02  0.27030557434E+02  0.21380493228E+02  0.72237356244E+02  0.00000000000E+00 0.  1.
         22    1    1    2    0    0  0.73443843403E+00 -0.28250128233E+02  0.14202876122E+03  0.14481290743E+03  0.00000000000E+00 0.  1.
</event>
<event>
 6    1  0.2809573E-005  0.5547639E+02  0.7818608E-02  0.1534924E+00
          2   -1    0    0  502    0  0.00000000000E+00  0.00000000000E+00  0.30249829280E+02  0.30249829280E+02  0.00000000000E+00 0. -1.
          1   -1    0    0  501    0 -0.00000000000E+00 -0.00000000000E+00 -0.93265067023E+03  0.93265067023E+03  0.00000000000E+00 0.  1.
          2    1    1    2  501    0  0.26224773647E+02 -0.18923797451E+02 -0.22896961482E+03  0.23124215311E+03  0.00000000000E+00 0. -1.
          1    1    1    2  502    0 -0.39091921014E+02  0.32524059982E+02 -0.55025841195E+03  0.55260321452E+03  0.00000000000E+00 0.  1.
         22    1    1    2    0    0 -0.20783960494E+01  0.10289834110E+02  0.25583340903E+02  0.27653349669E+02  0.00000000000E+00 0. -1.
         22    1    1    2    0    0  0.14945543417E+02 -0.23890096641E+02 -0.14875615508E+03  0.15140178222E+03  0.00000000000E+00 0. -1.
</event>
<event>
 6    1  0.2809573E-005  0.1545263E+03  0.7818608E-02  0.1293581E+00
          2   -1    0    0  502    0  0.00000000000E+00  0.00000000000E+00  0.14698584787E+03  0.14698584787E+03  0.00000000000E+00 0.  1.
          1   -1    0    0  501    0 -0.00000000000E+00 -0.00000000000E+00 -0.13874436615E+03  0.13874436615E+03  0.00000000000E+00 0.  1.
          2    1    1    2  501    0  0.44278142844E+02  0.47631374413E+02 -0.36213945447E+02  0.74436225099E+02  0.00000000000E+00 0.  1.
          1    1    1    2  502    0  0.21288798769E+02  0.11833514207E+02 -0.33926407245E+02  0.41764172685E+02  0.00000000000E+00 0.  1.
         22    1    1    2    0    0  0.10211169220E+02 -0.18471298072E+02  0.80628236652E+02  0.83344882116E+02  0.00000000000E+00 0.  1.
         22    1    1    2    0    0 -0.75778110832E+02 -0.40993590548E+02 -0.22464022400E+01  0.86184934126E+02  0.00000000000E+00 0.  1.
</event>
<event>
 6    1  0.2809573E-005  0.1068631E+03  0.7818608E-02  0.1268877E+00
          2   -1    0    0  502    0  0.00000000000E+00  0.00000000000E+00  0.49462157639E+03  0.49462157639E+03  0.00000000000E+00 0.  1.
          1   -1    0    0  501    0 -0.00000000000E+00 -0.00000000000E+00 -0.10941708580E+03  0.10941708580E+03  0.00000000000E+00 0. -1.
          2    1    1    2  501    0 -0.71158810002E+02  0.47080541602E+01  0.31874806238E+03  0.32662833509E+03  0.00000000000E+00 0.  1.
          1    1    1    2  502    0  0.24372921057E+02 -0.15419927398E+02 -0.76018909669E+02  0.81306137955E+02  0.00000000000E+00 0. -1.
         22    1    1    2    0    0 -0.36941164378E+02 -0.15227533124E+01  0.88045886760E+02  0.95493699157E+02  0.00000000000E+00 0. -1.
         22    1    1    2    0    0  0.83727053323E+02  0.12234626550E+02  0.54429451123E+02  0.10061048998E+03  0.00000000000E+00 0. -1.
</event>
<event>
 6    1  0.2809573E-005  0.3878292E+03  0.7818608E-02  0.1062312E+00
          2   -1    0    0  502    0  0.00000000000E+00  0.00000000000E+00  0.44291582221E+03  0.44291582221E+03  0.00000000000E+00 0.  1.
          1   -1    0    0  501    0 -0.00000000000E+00 -0.00000000000E+00 -0.14619582783E+04  0.14619582783E+04  0.00000000000E+00 0.  1.
          2    1    1    2  501    0 -0.31667385641E+03  0.18893984984E+03 -0.37836332017E+03  0.52833644607E+03  0.00000000000E+00 0.  1.
          1    1    1    2  502    0  0.15968840339E+03 -0.38508870934E+03 -0.90254256583E+03  0.99417140543E+03  0.00000000000E+00 0.  1.
         22    1    1    2    0    0  0.16829742972E+03  0.19743282028E+03  0.26469917848E+03  0.37063377944E+03  0.00000000000E+00 0.  1.
         22    1    1    2    0    0 -0.11311976700E+02 -0.12839607808E+01 -0.28357485512E+01  0.11732469561E+02  0.00000000000E+00 0. -1.
</event>
<event>
 6    1  0.2809573E-005  0.1229169E+03  0.7818608E-02  0.1328871E+00
          2   -1    0    0  502    0  0.00000000000E+00  0.00000000000E+00  0.56860039520E+03  0.56860039520E+03  0.00000000000E+00 0.  1.
          1   -1    0    0  501    0 -0.00000000000E+00 -0.00000000000E+00 -0.55792562894E+03  0.55792562894E+03  0.00000000000E+00 0. -1.
          2    1    1    2  501    0 -0.66581090370E+02 -0.14234078284E+02  0.25605158995E+03  0.26494917871E+03  0.00000000000E+00 0.  1.
          1    1    1    2  502    0  0.31565460471E+02 -0.67806833969E+01 -0.53805669536E+03  0.53902445527E+03  0.00000000000E+00 0. -1.
         22    1    1    2    0    0  0.35928977493E+02  0.43122191519E+02  0.29501156995E+03  0.30030358178E+03  0.00000000000E+00 0.  1.
         22    1    1    2    0    0 -0.91334759459E+00 -0.22107429838E+02 -0.23316982878E+01  0.22248808390E+02  0.00000000000E+00 0. -1.
</event>
<event>
 6    1  0.2809573E-005  0.9528625E+02  0.7818608E-02  0.1316318E+00
          2   -1    0    0  502    0  0.00000000000E+00  0.00000000000E+00  0.61407382470E+02  0.61407382470E+02  0.00000000000E+00 0. -1.
          1   -1    0    0  501    0 -0.00000000000E+00 -0.00000000000E+00 -0.58675374712E+03  0.58675374712E+03  0.00000000000E+00 0. -1.
          2    1    1    2  501    0 -0.10633778342E+02  0.23884353392E+02 -0.25614798831E+02  0.36601331915E+02  0.00000000000E+00 0. -1.
          1    1    1    2  502    0  0.34888543062E+02 -0.95224562025E+02 -0.45001566961E+03  0.46130145300E+03  0.00000000000E+00 0. -1.
         22    1    1    2    0    0  0.26777045761E+02  0.40971707296E+02 -0.71803867170E+02  0.86899288368E+02  0.00000000000E+00 0. -1.
         22    1    1    2    0    0 -0.51031810481E+02  0.30368501337E+02  0.22087970960E+02  0.63359056303E+02  0.00000000000E+00 0. -1.
</event>
<event>
 6    1  0.2809573E-005  0.1737261E+03  0.7818608E-02  0.1250065E+00
          2   -1    0    0  502    0  0.00000000000E+00  0.00000000000E+00  0.53822506948E+03  0.53822506948E+03  0.00000000000E+00 0.  1.
          1   -1    0    0  501    0 -0.00000000000E+00 -0.00000000000E+00 -0.58348380207E+02  0.58348380207E+02  0.00000000000E+00 0. -1.
          2    1    1    2  501    0  0.29223291358E+02 -0.32634494138E+01  0.16249904073E+02  0.33596283161E+02  0.00000000000E+00 0.  1.
          1    1    1    2  502    0 -0.58475442626E+02 -0.11949245981E+03  0.13294175025E+03  0.18807268355E+03  0.00000000000E+00 0. -1.
         22    1    1    2    0    0  0.29129865996E+02 -0.18264062261E+02  0.83864326498E+02  0.90638569727E+02  0.00000000000E+00 0. -1.
         22    1    1    2    0    0  0.12228527212E+00  0.14101997148E+03  0.24682070845E+03  0.28426591324E+03  0.00000000000E+00 0.  1.
</event>
<event>
 6    1  0.2809573E-005  0.4707497E+03  0.7818608E-02  0.1111826E+00
          2   -1    0    0  502    0  0.00000000000E+00  0.00000000000E+00  0.86142072338E+03  0.86142072338E+03  0.00000000000E+00 0.  1.
          1   -1    0    0  501    0 -0.00000000000E+00 -0.00000000000E+00 -0.77613484541E+03  0.77613484541E+03  0.00000000000E+00 0.  1.
          2    1    1    2  501    0  0.12120389075E+03 -0.35747944612E+03  0.62129626622E+03  0.72697385645E+03  0.00000000000E+00 0.  1.
          1    1    1    2  502    0 -0.16771752266E+03  0.41027972986E+03 -0.60900209694E+03  0.75322120139E+03  0.00000000000E+00 0.  1.
         22    1    1    2    0    0  0.74335295681E+02 -0.25647824763E+02  0.85843436113E+02  0.11641581775E+03  0.00000000000E+00 0.  1.
         22    1    1    2    0    0 -0.27821663771E+02 -0.27152458977E+02 -0.12851727434E+02  0.40944693203E+02  0.00000000000E+00 0. -1.
</event>
<event>
 6    1  0.2809573E-005  0.1351722E+03  0.7818608E-02  0.1285163E+00
          2   -1    0    0  502    0  0.00000000000E+00  0.00000000000E+00  0.61247642536E+03  0.61247642536E+03  0.00000000000E+00 0.  1.
          1   -1    0    0  501    0 -0.00000000000E+00 -0.00000000000E+00 -0.14363637828E+03  0.14363637828E+03  0.00000000000E+00 0.  1.
          2    1    1    2  501    0  0.15907923590E+02 -0.10610418555E+03  0.31059051897E+03  0.32859949893E+03  0.00000000000E+00 0.  1.
          1    1    1    2  502    0 -0.44009023180E+02  0.11957090514E+03 -0.84773408076E+02  0.15303766267E+03  0.00000000000E+00 0.  1.
         22    1    1    2    0    0  0.22813314081E+02  0.29030540670E+02  0.10988416260E+02  0.38522264768E+02  0.00000000000E+00 0.  1.
         22    1    1    2    0    0  0.52877855092E+01 -0.42497260263E+02  0.23203451993E+03  0.23595337727E+03  0.00000000000E+00 0.  1.
</event>
<event>
 6    1  0.2809573E-005  0.9977193E+02  0.7818608E-02  0.1330572E+00
          2   -1    0    0  502    0  0.00000000000E+00  0.00000000000E+00  0.49148890130E+03  0.49148890130E+03  0.00000000000E+00 0.  1.
          1   -1    0    0  501    0 -0.00000000000E+00 -0.00000000000E+00 -0.92930577429E+02  0.92930577429E+02  0.00000000000E+00 0.  1.
          2    1    1    2  501    0  0.41940631448E+02 -0.41960784237E+02 -0.36755200448E+02  0.69790176529E+02  0.00000000000E+00 0.  1.
          1    1    1    2  502    0 -0.92751643088E+02  0.68234982508E+02  0.29392480772E+03  0.31567494789E+03  0.00000000000E+00 0.  1.
         22    1    1    2    0    0  0.38853579831E+02  0.10130094844E+02  0.15358146724E+03  0.15874346149E+03  0.00000000000E+00 0. -1.
         22    1    1    2    0    0  0.11957431810E+02 -0.36404293116E+02 -0.12192750641E+02  0.40210892815E+02  0.00000000000E+00 0. -1.
</event>
<event>
 6    1  0.2809573E-005  0.6417351E+02  0.7818608E-02  0.1504723E+00
          2   -1    0    0  502    0  0.00000000000E+00  0.00000000000E+00  0.57045074358E+02  0.57045074358E+02  0.00000000000E+00 0. -1.
          1   -1    0    0  501    0 -0.00000000000E+00 -0.00000000000E+00 -0.59837293916E+03  0.59837293916E+03  0.00000000000E+00 0. -1.
          2    1    1    2  501    0  0.41095188811E+02  0.37368045584E+02 -0.24918355562E+03  0.25529909864E+03  0.00000000000E+00 0. -1.
          1    1    1    2  502    0 -0.36835434378E+02 -0.43306346442E+02 -0.27073467516E+03  0.27663975347E+03  0.00000000000E+00 0. -1.
         22    1    1    2    0    0 -0.64091724655E+01 -0.78809280027E+01  0.49842691511E+02  0.50867282363E+02  0.00000000000E+00 0.  1.
         22    1    1    2    0    0  0.21494180315E+01  0.13819228860E+02 -0.71252325529E+02  0.72611879038E+02  0.00000000000E+00 0. -1.
</event>
<event>
 6    1  0.2809573E-005  0.2880345E+03  0.7818608E-02  0.1210379E+00
          2   -1    0    0  502    0  0.00000000000E+00  0.00000000000E+00  0.47531342508E+03  0.47531342508E+03  0.00000000000E+00 0. -1.
          1   -1    0    0  501    0 -0.00000000000E+00 -0.00000000000E+00 -0.26578309011E+04  0.26578309011E+04  0.00000000000E+00 0. -1.
          2    1    1    2  501    0 -0.96218200782E+02 -0.10900249036E+03  0.17450488593E+03  0.22713749202E+03  0.00000000000E+00 0. -1.
          1    1    1    2  502    0  0.23742845445E+03  0.90002643771E+02 -0.25922393941E+04  0.26046454313E+04  0.00000000000E+00 0. -1.
         22    1    1    2    0    0  0.15358076898E+02  0.75598474198E+01  0.75477820121E+02  0.77394593799E+02  0.00000000000E+00 0.  1.
         22    1    1    2    0    0 -0.15656833057E+03  0.11439999171E+02  0.15973921197E+03  0.22396680905E+03  0.00000000000E+00 0. -1.
</event>
<event>
 6    1  0.2809573E-005  0.5362568E+02  0.7818608E-02  0.1537951E+00
          2   -1    0    0  502    0  0.00000000000E+00  0.00000000000E+00  0.33969954890E+02  0.33969954890E+02  0.00000000000E+00 0.  1.
          1   -1    0    0  501    0 -0.00000000000E+00 -0.00000000000E+00 -0.62639367178E+03  0.62639367178E+03  0.00000000000E+00 0.  1.
          2    1    1    2  501    0 -0.21335172528E+02  0.65324479825E+01 -0.25061851844E+03  0.25160982542E+03  0.00000000000E+00 0.  1.
          1    1    1    2  502    0  0.23546955473E+02 -0.26187499991E+02 -0.25054797759E+03  0.25301093522E+03  0.00000000000E+00 0.  1.
         22    1    1    2    0    0  0.72470413486E+01  0.25598718430E+02 -0.12104235242E+03  0.12393169519E+03  0.00000000000E+00 0.  1.
         22    1    1    2    0    0 -0.94588242930E+01 -0.59436664220E+01  0.29785131562E+02  0.31811170832E+02  0.00000000000E+00 0.  1.
</event>
<event>
 6    1  0.2809573E-005  0.1747718E+03  0.7818608E-02  0.1233976E+00
          2   -1    0    0  502    0  0.00000000000E+00  0.00000000000E+00  0.30932113062E+02  0.30932113062E+02  0.00000000000E+00 0. -1.
          1   -1    0    0  501    0 -0.00000000000E+00 -0.00000000000E+00 -0.94579071316E+03  0.94579071316E+03  0.00000000000E+00 0. -1.
          2    1    1    2  501    0  0.75959433549E+02 -0.17711063973E+02 -0.18779474425E+03  0.20334793655E+03  0.00000000000E+00 0. -1.
          1    1    1    2  502    0  0.47466782366E+02  0.17532543492E+02 -0.38539230236E+03  0.38870002859E+03  0.00000000000E+00 0. -1.
         22    1    1    2    0    0 -0.44852321367E+02  0.32786360632E+02 -0.26299535995E+03  0.26879961966E+03  0.00000000000E+00 0. -1.
         22    1    1    2    0    0 -0.78573894548E+02 -0.32607840151E+02 -0.78676193544E+02  0.11587524142E+03  0.00000000000E+00 0. -1.
</event>
<event>
 6    1  0.2809573E-005  0.1611288E+03  0.7818608E-02  0.1247723E+00
          2   -1    0    0  502    0  0.00000000000E+00  0.00000000000E+00  0.92361575380E+02  0.92361575380E+02  0.00000000000E+00 0. -1.
          1   -1    0    0  501    0 -0.00000000000E+00 -0.00000000000E+00 -0.10147664399E+04  0.10147664399E+04  0.00000000000E+00 0. -1.
          2    1    1    2  501    0  0.34698299349E+02 -0.28418348409E+02 -0.88431058898E+01  0.45714057201E+02  0.00000000000E+00 0. -1.
          1    1    1    2  502    0 -0.15344082891E+03 -0.84252274022E+01 -0.86363627128E+03  0.87720161964E+03  0.00000000000E+00 0. -1.
         22    1    1    2    0    0  0.13277736947E+02  0.43164811970E+02  0.27814955208E+02  0.53039334687E+02  0.00000000000E+00 0.  1.
         22    1    1    2    0    0  0.10546479261E+03 -0.63212361582E+01 -0.77740442589E+02  0.13117300378E+03  0.00000000000E+00 0. -1.
</event>
<event>
 6    1  0.6622589E-005  0.7839822E+02  0.7818608E-02  0.1334477E+00
          2   -1    0    0  502    0  0.00000000000E+00  0.00000000000E+00  0.35512248755E+03  0.35512248755E+03  0.00000000000E+00 0. -1.
          1   -1    0    0  501    0 -0.00000000000E+00 -0.00000000000E+00 -0.69796167474E+03  0.69796167474E+03  0.00000000000E+00 0. -1.
          2    1    1    2  501    0 -0.23567982994E+02  0.48258717783E+02 -0.17152788078E+02  0.56378824068E+02  0.00000000000E+00 0. -1.
          1    1    1    2  502    0  0.36733209683E+02  0.22330154320E+02 -0.64557895408E+03  0.64700861697E+03  0.00000000000E+00 0. -1.
         22    1    1    2    0    0 -0.11683892706E+02  0.87368438877E+01 -0.48720804816E+01  0.15381253463E+02  0.00000000000E+00 0.  1.
         22    1    1    2    0    0 -0.14813339833E+01 -0.79325715991E+02  0.32476463544E+03  0.33431546779E+03  0.00000000000E+00 0. -1.
</event>
<event>
 6    1  0.2809573E-005  0.1002011E+03  0.7818608E-02  0.1334783E+00
          2   -1    0    0  502    0  0.00000000000E+00  0.00000000000E+00  0.27395677424E+03  0.27395677424E+03  0.00000000000E+00 0. -1.
          1   -1    0    0  501    0 -0.00000000000E+00 -0.00000000000E+00 -0.21294102354E+04  0.21294102354E+04  0.00000000000E+00 0. -1.
          2    1    1    2  501    0  0.51824865936E+01  0.19750179308E+02  0.33986297967E+02  0.39648407276E+02  0.00000000000E+00 0. -1.
          1    1    1    2  502    0 -0.60470179969E+02 -0.73040846854E+02 -0.21020900448E+04  0.21042276884E+04  0.00000000000E+00 0. -1.
         22    1    1    2    0    0  0.89574950754E+02  0.66710124021E+02  0.16567681193E+03  0.19980670274E+03  0.00000000000E+00 0. -1.
         22    1    1    2    0    0 -0.34287257379E+02 -0.13419456474E+02  0.46973473789E+02  0.59684211232E+02  0.00000000000E+00 0. -1.
</event>
<event>
 6    1  0.2809573E-005  0.5358967E+02  0.7818608E-02  0.1431789E+00
          2   -1    0    0  502    0  0.00000000000E+00  0.00000000000E+00  0.20498916717E+02  0.20498916717E+02  0.00000000000E+00 0. -1.
          1   -1    0    0  501    0 -0.00000000000E+00 -0.00000000000E+00 -0.12211284728E+04  0.12211284728E+04  0.00000000000E+00 0.  1.
          2    1    1    2  501    0  0.48528869124E+01 -0.48112604954E+02 -0.17671199455E+03  0.18320890340E+03  0.00000000000E+00 0. -1.
          1    1    1    2  502    0  0.63791722707E+01  0.41134684426E+02 -0.82052800959E+03  0.82158320980E+03  0.00000000000E+00 0.  1.
         22    1    1    2    0    0  0.15209989704E+02 -0.31760975330E+02 -0.18184043721E+03  0.18521891897E+03  0.00000000000E+00 0. -1.
         22    1    1    2    0    0 -0.26442048887E+02  0.38738895859E+02 -0.21549114764E+02  0.51616357376E+02  0.00000000000E+00 0. -1.
</event>
<event>
 6    1  0.2809573E-005  0.8786549E+02  0.7818608E-02  0.1355624E+00
          2   -1    0    0  502    0  0.00000000000E+00  0.00000000000E+00  0.12178467247E+03  0.12178467247E+03  0.00000000000E+00 0.  1.
          1   -1    0    0  501    0 -0.00000000000E+00 -0.00000000000E+00 -0.53620205753E+03  0.53620205753E+03  0.00000000000E+00 0. -1.
          2    1    1    2  501    0  0.15051665099E+02 -0.27826200556E+02 -0.20099500527E+02  0.37481195032E+02  0.00000000000E+00 0.  1.
          1    1    1    2  502    0 -0.11813465563E+02  0.86158338297E+02 -0.46138418914E+03  0.46950845276E+03  0.00000000000E+00 0. -1.
         22    1    1    2    0    0 -0.21087602188E+02 -0.24598852299E+02 -0.31568193073E+02  0.45236504223E+02  0.00000000000E+00 0.  1.
         22    1    1    2    0    0  0.17849402652E+02 -0.33733285442E+02  0.98634497687E+02  0.10576057798E+03  0.00000000000E+00 0.  1.
</event>
<event>
 6    1  0.2809573E-005  0.9462389E+02  0.7818608E-02  0.1301693E+00
          2   -1    0    0  502    0  0.00000000000E+00  0.00000000000E+00  0.53405320977E+03  0.53405320977E+03  0.00000000000E+00 0. -1.
          1   -1    0    0  501    0 -0.00000000000E+00 -0.00000000000E+00 -0.10857812704E+03  0.10857812704E+03  0.00000000000E+00 0.  1.
          2    1    1    2  501    0 -0.65861281202E+02  0.28322834664E+02  0.19971009704E+02  0.74422661559E+02  0.00000000000E+00 0. -1.
          1    1    1    2  502    0  0.91679755790E+02  0.27794856023E+02 -0.39014937367E+02  0.10344030636E+03  0.00000000000E+00 0.  1.
         22    1    1    2    0    0 -0.96502271335E+01 -0.78515779466E+02  0.42135804820E+03  0.42871955786E+03  0.00000000000E+00 0. -1.
         22    1    1    2    0    0 -0.16168247455E+02  0.22398088779E+02  0.23160962182E+02  0.36048811020E+02  0.00000000000E+00 0.  1.
</event>
<event>
 6    1  0.2809573E-005  0.5506690E+02  0.7818608E-02  0.1447233E+00
          2   -1    0    0  502    0  0.00000000000E+00  0.00000000000E+00  0.17879611157E+03  0.17879611157E+03  0.00000000000E+00 0.  1.
          1   -1    0    0  501    0 -0.00000000000E+00 -0.00000000000E+00 -0.61732004534E+03  0.61732004534E+03  0.00000000000E+00 0.  1.
          2    1    1    2  501    0  0.26977799473E+02 -0.12357036395E+02  0.25846041342E+02  0.39351186335E+02  0.00000000000E+00 0.  1.
          1    1    1    2  502    0 -0.21756050757E+02  0.12751977784E+02 -0.58466387910E+03  0.58520747620E+03  0.00000000000E+00 0.  1.
         22    1    1    2    0    0 -0.23695231875E+02  0.25387225497E+02  0.13294827925E+03  0.13740895235E+03  0.00000000000E+00 0.  1.
         22    1    1    2    0    0  0.18473483159E+02 -0.25782166885E+02 -0.12654375257E+02  0.34148542026E+02  0.00000000000E+00 0. -1.
</event>
<event>
 6    1  0.2809573E-005  0.1345418E+03  0.7818608E-02  0.1274946E+00
          2   -1    0    0  502    0  0.00000000000E+00  0.00000000000E+00  0.52718675740E+03  0.52718675740E+03  0.00000000000E+00 0.  1.
          1   -1    0    0  501    0 -0.00000000000E+00 -0.00000000000E+00 -0.34811112969E+02  0.34811112969E+02  0.00000000000E+00 0. -1.
          2    1    1    2  501    0  0.16816954962E+02  0.22674413385E+02  0.24936816253E+03  0.25096099195E+03  0.00000000000E+00 0.  1.
          1    1    1    2  502    0  0.21054305132E+02 -0.15150775068E+02 -0.88544127948E+01  0.27408582154E+02  0.00000000000E+00 0. -1.
         22    1    1    2    0    0 -0.15080617078E+02 -0.51374815048E+02  0.42067344543E+02  0.68091542130E+02  0.00000000000E+00 0. -1.
         22    1    1    2    0    0 -0.22790643016E+02  0.43851176731E+02  0.20979455016E+03  0.21553675414E+03  0.00000000000E+00 0.  1.
</event>
<event>
 6    1  0.2809573E-005  0.1854839E+03  0.7818608E-02  0.1240657E+00
          2   -1    0    0  502    0  0.00000000000E+00  0.00000000000E+00  0.48719327416E+03  0.48719327416E+03  0.00000000000E+00 0.  1.
          1   -1    0    0  501    0 -0.00000000000E+00 -0.00000000000E+00 -0.21259354321E+03  0.21259354321E+03  0.00000000000E+00 0. -1.
          2    1    1    2  501    0 -0.10772067455E+03  0.11539950387E+02  0.13010650525E+03  0.16930628130E+03  0.00000000000E+00 0.  1.
          1    1    1    2  502    0  0.16638144950E+03 -0.23044226880E+01 -0.13848813810E+03  0.21648801698E+03  0.00000000000E+00 0. -1.
         22    1    1    2    0    0 -0.88189824342E+02  0.78984149033E+01  0.25472777216E+03  0.26967771133E+03  0.00000000000E+00 0.  1.
         22    1    1    2    0    0  0.29529049398E+02 -0.17133942602E+02  0.28253591641E+02  0.44314807774E+02  0.00000000000E+00 0. -1.
</event>
<event>
 6    1  0.2809573E-005  0.1789272E+03  0.7818608E-02  0.1244098E+00
          2   -1    0    0  502    0  0.00000000000E+00  0.00000000000E+00  0.18681733209E+03  0.18681733209E+03  0.00000000000E+00 0. -1.
          1   -1    0    0  501    0 -0.00000000000E+00 -0.00000000000E+00 -0.24464058122E+03  0.24464058122E+03  0.00000000000E+00 0. -1.
          2    1    1    2  501    0 -0.49187644277E+02  0.19625151599E+01 -0.31438694280E+02  0.58409479653E+02  0.00000000000E+00 0. -1.
          1    1    1    2  502    0 -0.21619180900E+02  0.40602798590E+02 -0.16196889358E+03  0.16837428166E+03  0.00000000000E+00 0. -1.
         22    1    1    2    0    0 -0.13856404688E+02  0.32656715703E+02  0.55866981702E+02  0.66178400373E+02  0.00000000000E+00 0. -1.
         22    1    1    2    0    0  0.84663229865E+02 -0.75222029454E+02  0.79717357029E+02  0.13849575162E+03  0.00000000000E+00 0. -1.
</event>
<event>
 6    1  0.2809573E-005  0.1167430E+03  0.7818608E-02  0.1250545E+00
          2   -1    0    0  502    0  0.00000000000E+00  0.00000000000E+00  0.45321478412E+02  0.45321478412E+02  0.00000000000E+00 0. -1.
          1   -1    0    0  501    0 -0.00000000000E+00 -0.00000000000E+00 -0.12245658573E+04  0.12245658573E+04  0.00000000000E+00 0. -1.
          2    1    1    2  501    0  0.59580357650E+02 -0.63105142152E+02 -0.10732987807E+03  0.13802818810E+03  0.00000000000E+00 0. -1.
          1    1    1    2  502    0 -0.24224833724E+02 -0.73141322997E+01 -0.91220865527E+03  0.91255957058E+03  0.00000000000E+00 0. -1.
         22    1    1    2    0    0  0.33302494976E+02 -0.13351482826E+02 -0.70014480719E+02  0.78672395258E+02  0.00000000000E+00 0. -1.
         22    1    1    2    0    0 -0.68658018902E+02  0.83770757277E+02 -0.89691364873E+02  0.14062718182E+03  0.00000000000E+00 0.  1.
</event>
<event>
 6    1  0.2809573E-005  0.1134822E+03  0.7818608E-02  0.1298695E+00
          2   -1    0    0  502    0  0.00000000000E+00  0.00000000000E+00  0.62251151425E+03  0.62251151425E+03  0.00000000000E+00 0. -1.
          1   -1    0    0  501    0 -0.00000000000E+00 -0.00000000000E+00 -0.55818341677E+02  0.55818341677E+02  0.00000000000E+00 0.  1.
          2    1    1    2  501    0  0.25427886027E+02  0.95576292991E+01  0.45616649344E+02  0.53092413422E+02  0.00000000000E+00 0. -1.
          1    1    1    2  502    0  0.17668453770E+02 -0.21680852253E+02 -0.40300514131E+02  0.49054714883E+02  0.00000000000E+00 0.  1.
         22    1    1    2    0    0  0.39043751341E+02 -0.16694428319E+02  0.16712864955E+03  0.17243869623E+03  0.00000000000E+00 0.  1.
         22    1    1    2    0    0 -0.82140091138E+02  0.28817651273E+02  0.39424838781E+03  0.40374403139E+03  0.00000000000E+00 0. -1.
</event>
<event>
 6    1  0.2809573E-005  0.1713178E+03  0.7818608E-02  0.1244644E+00
          2   -1    0    0  502    0  0.00000000000E+00  0.00000000000E+00  0.23131966168E+03  0.23131966168E+03  0.00000000000E+00 0. -1.
          1   -1    0    0  501    0 -0.00000000000E+00 -0.00000000000E+00 -0.19456259598E+03  0.19456259598E+03  0.00000000000E+00 0. -1.
          2    1    1    2  501    0 -0.97609786560E+02 -0.15209432587E+03  0.48220180879E+01  0.18078607870E+03  0.00000000000E+00 0. -1.
          1    1    1    2  502    0  0.45058904432E+02  0.67128445308E+02  0.28632305688E+02  0.85769120126E+02  0.00000000000E+00 0. -1.
         22    1    1    2    0    0 -0.15341774742E+02  0.36910581238E+02 -0.47329019854E+02  0.61949957061E+02  0.00000000000E+00 0. -1.
         22    1    1    2    0    0  0.67892656869E+02  0.48055299320E+02  0.50631761775E+02  0.97377101774E+02  0.00000000000E+00 0.  1.
</event>
<event>
 6    1  0.2809573E-005  0.1738261E+03  0.7818608E-02  0.1242410E+00
          2   -1    0    0  502    0  0.00000000000E+00  0.00000000000E+00  0.14850287078E+03  0.14850287078E+03  0.00000000000E+00 0. -1.
          1   -1    0    0  501    0 -0.00000000000E+00 -0.00000000000E+00 -0.87672366312E+03  0.87672366312E+03  0.00000000000E+00 0.  1.
          2    1    1    2  501    0  0.23452660472E+02 -0.13210466332E+03 -0.39103240759E+02  0.13975239816E+03  0.00000000000E+00 0. -1.
          1    1    1    2  502    0  0.10598137995E+01  0.10832040567E+03 -0.73741745195E+03  0.74533142422E+03  0.00000000000E+00 0.  1.
         22    1    1    2    0    0 -0.57150945740E+02  0.60349730017E+00 -0.20353451649E+02  0.60670073364E+02  0.00000000000E+00 0. -1.
         22    1    1    2    0    0  0.32638471468E+02  0.23180760346E+02  0.68653352027E+02  0.79472638150E+02  0.00000000000E+00 0. -1.
</event>
<event>
 6    1  0.2809573E-005  0.2425983E+03  0.7818608E-02  0.1164981E+00
          2   -1    0    0  502    0  0.00000000000E+00  0.00000000000E+00  0.15154100908E+03  0.15154100908E+03  0.00000000000E+00 0.  1.
          1   -1    0    0  501    0 -0.00000000000E+00 -0.00000000000E+00 -0.56074480588E+03  0.56074480588E+03  0.00000000000E+00 0.  1.
          2    1    1    2  501    0 -0.69072990390E+02  0.65091433800E+01 -0.98605455015E+02  0.12056733682E+03  0.00000000000E+00 0.  1.
          1    1    1    2  502    0 -0.77478099952E+02  0.98990034560E+02 -0.34916501154E+03  0.37110387790E+03  0.00000000000E+00 0.  1.
         22    1    1    2    0    0  0.23969987451E+02 -0.74707101601E+02  0.51058792874E+02  0.93609356679E+02  0.00000000000E+00 0.  1.
         22    1    1    2    0    0  0.12258110289E+03 -0.30792076339E+02 -0.12492123116E+02  0.12700524356E+03  0.00000000000E+00 0.  1.
</event>
<event>
 6    1  0.2809573E-005  0.3770598E+03  0.7818608E-02  0.1163857E+00
          2   -1    0    0  502    0  0.00000000000E+00  0.00000000000E+00  0.32726146435E+03  0.32726146435E+03  0.00000000000E+00 0. -1.
          1   -1    0    0  501    0 -0.00000000000E+00 -0.00000000000E+00 -0.43611187130E+03  0.43611187130E+03  0.00000000000E+00 0.  1.
          2    1    1    2  501    0  0.72931483210E+02 -0.27957592296E+03  0.62353506530E+02  0.29558358838E+03  0.00000000000E+00 0. -1.
          1    1    1    2  502    0 -0.24704297752E+02  0.27996309841E+03 -0.18659150464E+03  0.33735149089E+03  0.00000000000E+00 0.  1.
         22    1    1    2    0    0 -0.56700289210E+02  0.19313796998E+02 -0.39337145393E+02  0.71661402154E+02  0.00000000000E+00 0.  1.
         22    1    1    2    0    0  0.84731037517E+01 -0.19700972443E+02  0.54724736557E+02  0.58776854234E+02  0.00000000000E+00 0. -1.
</event>
<event>
 6    1  0.2809573E-005  0.1618188E+03  0.7818608E-02  0.1238704E+00
          2   -1    0    0  502    0  0.00000000000E+00  0.00000000000E+00  0.49755947723E+03  0.49755947723E+03  0.00000000000E+00 0. -1.
          1   -1    0    0  501    0 -0.00000000000E+00 -0.00000000000E+00 -0.16967776061E+03  0.16967776061E+03  0.00000000000E+00 0. -1.
          2    1    1    2  501    0 -0.63965883851E+02 -0.19969594588E+02  0.47114605878E+02  0.81915841519E+02  0.00000000000E+00 0. -1.
          1    1    1    2  502    0  0.64181408572E+02  0.59806359057E+01 -0.13620021468E+03  0.15068350836E+03  0.00000000000E+00 0. -1.
         22    1    1    2    0    0  0.50608625664E+01 -0.53256641523E+02  0.14904047791E+03  0.15835070651E+03  0.00000000000E+00 0. -1.
         22    1    1    2    0    0 -0.52763872879E+01  0.67245600205E+02  0.26792684752E+03  0.27628718144E+03  0.00000000000E+00 0. -1.
</event>
<event>
 6    1  0.2809573E-005  0.2611935E+03  0.7818608E-02  0.1239761E+00
          2   -1    0    0  502    0  0.00000000000E+00  0.00000000000E+00  0.39845032898E+02  0.39845032898E+02  0.00000000000E+00 0.  1.
          1   -1    0    0  501    0 -0.00000000000E+00 -0.00000000000E+00 -0.91070117091E+03  0.91070117091E+03  0.00000000000E+00 0.  1.
          2    1    1    2  501    0 -0.58935167811E+02  0.95434182560E+02 -0.15683647926E+03  0.19281783743E+03  0.00000000000E+00 0.  1.
          1    1    1    2  502    0 -0.22420279288E+02  0.76477417783E+01 -0.36127438904E+03  0.36205019135E+03  0.00000000000E+00 0.  1.
         22    1    1    2    0    0 -0.11573353002E+02  0.45910073549E+01  0.27811055931E+01  0.12757523136E+02  0.00000000000E+00 0.  1.
         22    1    1    2    0    0  0.92928800101E+02 -0.10767293169E+03 -0.35552637531E+03  0.38292065189E+03  0.00000000000E+00 0.  1.
</event>
<event>
 6    1  0.2809573E-005  0.3606663E+03  0.7818608E-02  0.1185933E+00
          2   -1    0    0  502    0  0.00000000000E+00  0.00000000000E+00  0.39434630839E+03  0.39434630839E+03  0.00000000000E+00 0.  1.
          1   -1    0    0  501    0 -0.00000000000E+00 -0.00000000000E+00 -0.36578623211E+03  0.36578623211E+03  0.00000000000E+00 0.  1.
          2    1    1    2  501    0  0.25232984159E+03  0.83862053742E+02  0.12703165919E+03  0.29468667335E+03  0.00000000000E+00 0.  1.
          1    1    1    2  502    0 -0.24889772549E+03 -0.14997336637E+03 -0.13539150235E+03  0.32058220051E+03  0.00000000000E+00 0.  1.
         22    1    1    2    0    0 -0.14462733780E+02  0.56165048873E+02 -0.37441815902E+02  0.69033129447E+02  0.00000000000E+00 0.  1.
         22    1    1    2    0    0  0.11030617685E+02  0.99462637512E+01  0.74361735337E+02  0.75830537196E+02  0.00000000000E+00 0.  1.
</event>
<event>
 6    1  0.2809573E-005  0.7614970E+02  0.7818608E-02  0.1343468E+00
          2   -1    0    0  502    0  0.00000000000E+00  0.00000000000E+00  0.35937990678E+02  0.35937990678E+02  0.00000000000E+00 0. -1.
          1   -1    0    0  501    0 -0.00000000000E+00 -0.00000000000E+00 -0.11038465089E+04  0.11038465089E+04  0.00000000000E+00 0. -1.
          2    1    1    2  501    0 -0.25111310197E+02 -0.25321224147E+02 -0.21681820522E+03  0.21973137329E+03  0.00000000000E+00 0. -1.
          1    1    1    2  502    0  0.73555164647E+01 -0.23623835135E+02 -0.75414647416E+03  0.75455224717E+03  0.00000000000E+00 0. -1.
         22    1    1    2    0    0 -0.25705117166E+02 -0.10840186424E+02 -0.86458529093E+02  0.90847894545E+02  0.00000000000E+00 0. -1.
         22    1    1    2    0    0  0.43460910898E+02  0.59785245706E+02 -0.10485309697E+02  0.74652984532E+02  0.00000000000E+00 0. -1.
</event>
<event>
 6    1  0.2809573E-005  0.2129986E+03  0.7818608E-02  0.1184312E+00
          2   -1    0    0  502    0  0.00000000000E+00  0.00000000000E+00  0.11303221993E+03  0.11303221993E+03  0.00000000000E+00 0. -1.
          1   -1    0    0  501    0 -0.00000000000E+00 -0.00000000000E+00 -0.72933925647E+03  0.72933925647E+03  0.00000000000E+00 0. -1.
          2    1    1    2  501    0  0.74861810107E+02 -0.13631996477E+03 -0.14193103525E+03  0.21055128157E+03  0.00000000000E+00 0. -1.
          1    1    1    2  502    0 -0.16670388008E+03  0.14289813742E+03 -0.41146782315E+03  0.46638592474E+03  0.00000000000E+00 0. -1.
         22    1    1    2    0    0  0.24160147809E+02 -0.38333739000E+02 -0.77012734358E+02  0.89354068408E+02  0.00000000000E+00 0. -1.
         22    1    1    2    0    0  0.67681922161E+02  0.31755566343E+02  0.14104556210E+02  0.76080201676E+02  0.00000000000E+00 0. -1.
</event>
<event>
 6    1  0.2809573E-005  0.9731885E+02  0.7818608E-02  0.1305875E+00
          2   -1    0    0  502    0  0.00000000000E+00  0.00000000000E+00  0.15016981303E+03  0.15016981303E+03  0.00000000000E+00 0. -1.
          1   -1    0    0  501    0 -0.00000000000E+00 -0.00000000000E+00 -0.11563672717E+03  0.11563672717E+03  0.00000000000E+00 0.  1.
          2    1    1    2  501    0 -0.24628400024E+02 -0.80320497346E+01 -0.75084502325E+01  0.26971257582E+02  0.00000000000E+00 0. -1.
          1    1    1    2  502    0  0.17478525339E+02  0.33297524372E+02 -0.60766824262E+02  0.71462094206E+02  0.00000000000E+00 0.  1.
         22    1    1    2    0    0  0.30208138636E+02  0.44072275851E+02  0.20294845335E+02  0.57155733621E+02  0.00000000000E+00 0.  1.
         22    1    1    2    0    0 -0.23058263952E+02 -0.69337750488E+02  0.82513515020E+02  0.11021745479E+03  0.00000000000E+00 0. -1.
</event>
<event>
 6    1  0.2809573E-005  0.8921536E+02  0.7818608E-02  0.1309452E+00
          2   -1    0    0  502    0  0.00000000000E+00  0.00000000000E+00  0.13579738619E+03  0.13579738619E+03  0.00000000000E+00 0.  1.
          1   -1    0    0  501    0 -0.00000000000E+00 -0.00000000000E+00 -0.16188219440E+03  0.16188219440E+03  0.00000000000E+00 0.  1.
          2    1    1    2  501    0  0.40364534106E+02 -0.29376577192E-01  0.20933257931E+02  0.45469745592E+02  0.00000000000E+00 0.  1.
          1    1    1    2  502    0 -0.11583680734E+01  0.27161322188E+02 -0.10061121622E+03  0.10421946109E+03  0.00000000000E+00 0.  1.
         22    1    1    2    0    0 -0.75096948524E+02 -0.41453349023E+02  0.65084786127E+02  0.10767525811E+03  0.00000000000E+00 0.  1.
         22    1    1    2    0    0  0.35890782492E+02  0.14321403412E+02 -0.11491636049E+02  0.40315115808E+02  0.00000000000E+00 0.  1.
</event>
<event>
 6    1  0.2809573E-005  0.1217431E+03  0.7818608E-02  0.1375243E+00
          2   -1    0    0  502    0  0.00000000000E+00  0.00000000000E+00  0.70309137669E+02  0.70309137669E+02  0.00000000000E+00 0.  1.
          1   -1    0    0  501    0 -0.00000000000E+00 -0.00000000000E+00 -0.32526934416E+03  0.32526934416E+03  0.00000000000E+00 0. -1.
          2    1    1    2  501    0 -0.17832393227E+02  0.19563540239E+02 -0.22738721356E+02  0.34896644593E+02  0.00000000000E+00 0.  1.
          1    1    1    2  502    0  0.32497295801E+02 -0.11026529604E+03 -0.12321154315E+03  0.16850992288E+03  0.00000000000E+00 0. -1.
         22    1    1    2    0    0 -0.96828909947E+01 -0.36426891458E+01  0.25660308478E+02  0.27667291039E+02  0.00000000000E+00 0.  1.
         22    1    1    2    0    0 -0.49820115791E+01  0.94344444947E+02 -0.13467025046E+03  0.16450462331E+03  0.00000000000E+00 0.  1.
</event>
<event>
 6    1  0.2809573E-005  0.8551425E+02  0.7818608E-02  0.1333074E+00
          2   -1    0    0  502    0  0.00000000000E+00  0.00000000000E+00  0.52046716362E+03  0.52046716362E+03  0.00000000000E+00 0. -1.
          1   -1    0    0  501    0 -0.00000000000E+00 -0.00000000000E+00 -0.39508075380E+02  0.39508075380E+02  0.00000000000E+00 0. -1.
          2    1    1    2  501    0  0.24246848701E+02  0.24167841659E+01  0.42983164518E+02  0.49409543103E+02  0.00000000000E+00 0. -1.
          1    1    1    2  502    0 -0.41917080108E+02  0.20238455718E+02 -0.67660285529E+01  0.47036324654E+02  0.00000000000E+00 0. -1.
         22    1    1    2    0    0 -0.92081717439E+01  0.51203045071E+02  0.17965823329E+03  0.18703909495E+03  0.00000000000E+00 0. -1.
         22    1    1    2    0    0  0.26878403150E+02 -0.73858284954E+02  0.26508371898E+03  0.27649027629E+03  0.00000000000E+00 0. -1.
</event>
<event>
 6    1  0.2809573E-005  0.7478886E+02  0.7818608E-02  0.1350631E+00
          2   -1    0    0  502    0  0.00000000000E+00  0.00000000000E+00  0.16404051265E+03  0.16404051265E+03  0.00000000000E+00 0.  1.
          1   -1    0    0  501    0 -0.00000000000E+00 -0.00000000000E+00 -0.57030653406E+02  0.57030653406E+02  0.00000000000E+00 0.  1.
          2    1    1    2  501    0 -0.33757179814E+02  0.17002035126E+02  0.17369799076E+02  0.41597191099E+02  0.00000000000E+00 0.  1.
          1    1    1    2  502    0  0.12334694675E+02 -0.29528504659E+02  0.25456495109E+02  0.40891446824E+02  0.00000000000E+00 0.  1.
         22    1    1    2    0    0 -0.24629263362E+02  0.50630360906E+02  0.85921919876E+01  0.56954892875E+02  0.00000000000E+00 0.  1.
         22    1    1    2    0    0  0.46051748501E+02 -0.38103891373E+02  0.55591373069E+02  0.81627635256E+02  0.00000000000E+00 0.  1.
</event>
<event>
 6    1  0.2809573E-005  0.1653506E+03  0.7818608E-02  0.1184098E+00
          2   -1    0    0  502    0  0.00000000000E+00  0.00000000000E+00  0.50814720723E+03  0.50814720723E+03  0.00000000000E+00 0. -1.
          1   -1    0    0  501    0 -0.00000000000E+00 -0.00000000000E+00 -0.19281399590E+04  0.19281399590E+04  0.00000000000E+00 0. -1.
          2    1    1    2  501    0  0.88678608780E+02  0.83506179511E+02  0.12919920913E+03  0.17756579995E+03  0.00000000000E+00 0. -1.
          1    1    1    2  502    0 -0.30923728840E+02  0.72669276666E+02 -0.18718281960E+04  0.18734935004E+04  0.00000000000E+00 0. -1.
         22    1    1    2    0    0 -0.60887380558E+02 -0.17811970490E+03  0.28517732938E+03  0.34170164117E+03  0.00000000000E+00 0. -1.
         22    1    1    2    0    0  0.31325006178E+01  0.21944248725E+02  0.37458905752E+02  0.43526224651E+02  0.00000000000E+00 0.  1.
</event>
<event>
 6    1  0.2809573E-005  0.3455653E+03  0.7818608E-02  0.1157941E+00
          2   -1    0    0  502    0  0.00000000000E+00  0.00000000000E+00  0.69137491700E+03  0.69137491700E+03  0.00000000000E+00 0.  1.
          1   -1    0    0  501    0 -0.00000000000E+00 -0.00000000000E+00 -0.24430740105E+03  0.24430740105E+03  0.00000000000E+00 0. -1.
          2    1    1    2  501    0  0.16217056453E+03 -0.84601590153E+02  0.17667701716E+03  0.25430589739E+03  0.00000000000E+00 0.  1.
          1    1    1    2  502    0 -0.54816967252E+02 -0.30960009902E+02 -0.17807243745E+03  0.18887354259E+03  0.00000000000E+00 0. -1.
         22    1    1    2    0    0 -0.82633443183E+02  0.13583033605E+03  0.28880750473E+03  0.32967854178E+03  0.00000000000E+00 0. -1.
         22    1    1    2    0    0 -0.24720154096E+02 -0.20268735992E+02  0.15965543151E+03  0.16282433628E+03  0.00000000000E+00 0.  1.
</event>
<event>
 6    1  0.2809573E-005  0.1818994E+03  0.7818608E-02  0.1269480E+00
          2   -1    0    0  502    0  0.00000000000E+00  0.00000000000E+00  0.22975269525E+03  0.22975269525E+03  0.00000000000E+00 0. -1.
          1   -1    0    0  501    0 -0.00000000000E+00 -0.00000000000E+00 -0.18683778863E+03  0.18683778863E+03  0.00000000000E+00 0.  1.
          2    1    1    2  501    0 -0.55126726952E+02  0.55069669544E+02  0.18354188212E+02  0.80053112076E+02  0.00000000000E+00 0. -1.
          1    1    1    2  502    0 -0.57327755966E+02 -0.56616585569E+02 -0.99361494201E+02  0.12792425843E+03  0.00000000000E+00 0.  1.
         22    1    1    2    0    0  0.96305772106E+02 -0.10995432618E+02  0.15358517648E+02  0.98140640633E+02  0.00000000000E+00 0. -1.
         22    1    1    2    0    0  0.16148710811E+02  0.12542348642E+02  0.10856369496E+03  0.11047247274E+03  0.00000000000E+00 0. -1.
</event>
<event>
 6    1  0.2809573E-005  0.9320221E+02  0.7818608E-02  0.1298315E+00
          2   -1    0    0  502    0  0.00000000000E+00  0.00000000000E+00  0.56111182207E+02  0.56111182207E+02  0.00000000000E+00 0. -1.
          1   -1    0    0  501    0 -0.00000000000E+00 -0.00000000000E+00 -0.14032144260E+04  0.14032144260E+04  0.00000000000E+00 0. -1.
          2    1    1    2  501    0  0.81548644738E+02  0.17690448711E+02 -0.13828632202E+03  0.16151235337E+03  0.00000000000E+00 0. -1.
          1    1    1    2  502    0 -0.43531010219E+02 -0.46167944966E+02 -0.11426784295E+04  0.11444389111E+04  0.00000000000E+00 0. -1.
         22    1    1    2    0    0  0.42017323538E+02  0.25347558721E+02 -0.52963774506E+02  0.72201908703E+02  0.00000000000E+00 0. -1.
         22    1    1    2    0    0 -0.80034958057E+02  0.31299375338E+01 -0.13174717763E+02  0.81172435028E+02  0.00000000000E+00 0. -1.
</event>
<event>
 6    1  0.2809573E-005  0.1306002E+03  0.7818608E-02  0.1295704E+00
          2   -1    0    0  502    0  0.00000000000E+00  0.00000000000E+00  0.20643490613E+03  0.20643490613E+03  0.00000000000E+00 0.  1.
          1   -1    0    0  501    0 -0.00000000000E+00 -0.00000000000E+00 -0.11184708752E+04  0.11184708752E+04  0.00000000000E+00 0. -1.
          2    1    1    2  501    0 -0.34263937611E+01 -0.35738806917E+02  0.37086235398E+02  0.51617742589E+02  0.00000000000E+00 0.  1.
          1    1    1    2  502    0  0.74882868772E+02  0.70061133167E+01 -0.10781573544E+04  0.10807774103E+04  0.00000000000E+00 0. -1.
         22    1    1    2    0    0 -0.83345984484E+02  0.60166118479E+02  0.69303186635E+02  0.12397357227E+03  0.00000000000E+00 0.  1.
         22    1    1    2    0    0  0.11889509473E+02 -0.31433424879E+02  0.59731963302E+02  0.68537056218E+02  0.00000000000E+00 0.  1.
</event>
<event>
 6    1  0.2809573E-005  0.3749126E+03  0.7818608E-02  0.1179819E+00
          2   -1    0    0  502    0  0.00000000000E+00  0.00000000000E+00  0.17202928296E+03  0.17202928296E+03  0.00000000000E+00 0. -1.
          1   -1    0    0  501    0 -0.00000000000E+00 -0.00000000000E+00 -0.74799748633E+03  0.74799748633E+03  0.00000000000E+00 0.  1.
          2    1    1    2  501    0  0.17862647938E+03 -0.90744459694E+01 -0.19385716442E+03  0.26376194741E+03  0.00000000000E+00 0. -1.
          1    1    1    2  502    0 -0.13550600116E+03 -0.12910246169E+03 -0.42239893189E+03  0.46200668786E+03  0.00000000000E+00 0.  1.
         22    1    1    2    0    0  0.14259593231E+02 -0.51488270869E+01  0.36836712092E+02  0.39834529961E+02  0.00000000000E+00 0. -1.
         22    1    1    2    0    0 -0.57380071447E+02  0.14332573474E+03  0.34511808517E+01  0.15442360405E+03  0.00000000000E+00 0. -1.
</event>
<event>
 6    1  0.2809573E-005  0.4071686E+03  0.7818608E-02  0.1139582E+00
          2   -1    0    0  502    0  0.00000000000E+00  0.00000000000E+00  0.16647666766E+03  0.16647666766E+03  0.00000000000E+00 0.  1.
          1   -1    0    0  501    0 -0.00000000000E+00 -0.00000000000E+00 -0.10021078214E+04  0.10021078214E+04  0.00000000000E+00 0.  1.
          2    1    1    2  501    0 -0.17049660887E+03  0.17735595234E+03 -0.27010651035E+03  0.36535154906E+03  0.00000000000E+00 0.  1.
          1    1    1    2  502    0  0.29603762159E+03 -0.19037067189E+03 -0.50401407699E+03  0.61474340657E+03  0.00000000000E+00 0.  1.
         22    1    1    2    0    0 -0.14760198541E+03 -0.76412888675E+01 -0.48137680815E+02  0.15544121624E+03  0.00000000000E+00 0.  1.
         22    1    1    2    0    0  0.22060972684E+02  0.20656008415E+02 -0.13372885562E+02  0.33048317169E+02  0.00000000000E+00 0. -1.
</event>
<event>
 6    1  0.2809573E-005  0.1688336E+03  0.7818608E-02  0.1179954E+00
          2   -1    0    0  502    0  0.00000000000E+00  0.00000000000E+00  0.64514930226E+03  0.64514930226E+03  0.00000000000E+00 0.  1.
          1   -1    0    0  501    0 -0.00000000000E+00 -0.00000000000E+00 -0.86427714622E+02  0.86427714622E+02  0.00000000000E+00 0.  1.
          2    1    1    2  501    0  0.59077044928E+02 -0.17967524915E+03  0.15811689133E+03  0.24652432683E+03  0.00000000000E+00 0.  1.
          1    1    1    2  502    0  0.23099185401E+02  0.94648811481E+02  0.13024325118E+03  0.16265077423E+03  0.00000000000E+00 0.  1.
         22    1    1    2    0    0  0.14135560770E+02 -0.25396954049E+02  0.42078368780E+02  0.51141064444E+02  0.00000000000E+00 0.  1.
         22    1    1    2    0    0 -0.96311791100E+02  0.11042339172E+03  0.22828307635E+03  0.27126085138E+03  0.00000000000E+00 0.  1.
</event>
<event>
 6    1  0.2809573E-005  0.3083697E+03  0.7818608E-02  0.1175285E+00
          2   -1    0    0  502    0  0.00000000000E+00  0.00000000000E+00  0.24522947510E+03  0.24522947510E+03  0.00000000000E+00 0. -1.
          1   -1    0    0  501    0 -0.00000000000E+00 -0.00000000000E+00 -0.27438696511E+03  0.27438696511E+03  0.00000000000E+00 0. -1.
          2    1    1    2  501    0  0.62711344900E+02  0.47484702285E+02 -0.10283472906E+03  0.12947003990E+03  0.00000000000E+00 0. -1.
          1    1    1    2  502    0  0.29151787313E+02  0.13341248385E+02 -0.12668746559E+03  0.13068102215E+03  0.00000000000E+00 0. -1.
         22    1    1    2    0    0 -0.98381779618E+00  0.30166021680E+02  0.70549306484E+02  0.76734356105E+02  0.00000000000E+00 0. -1.
         22    1    1    2    0    0 -0.90879314417E+02 -0.90991972351E+02  0.12981539816E+03  0.18273102205E+03  0.00000000000E+00 0. -1.
</event>
<event>
 6    1  0.2809573E-005  0.1516596E+03  0.7818608E-02  0.1274566E+00
          2   -1    0    0  502    0  0.00000000000E+00  0.00000000000E+00  0.11198811240E+03  0.11198811240E+03  0.00000000000E+00 0. -1.
          1   -1    0    0  501    0 -0.00000000000E+00 -0.00000000000E+00 -0.28283338712E+03  0.28283338712E+03  0.00000000000E+00 0. -1.
          2    1    1    2  501    0 -0.24183587834E+02  0.32197608563E+02 -0.12464327890E+02  0.42153189529E+02  0.00000000000E+00 0. -1.
          1    1    1    2  502    0 -0.66795824978E+02 -0.12033630160E+03 -0.88274209791E+02  0.16350793201E+03  0.00000000000E+00 0. -1.
         22    1    1    2    0    0  0.64764402717E+02  0.69814150211E+02 -0.10505041785E+03  0.14178869390E+03  0.00000000000E+00 0. -1.
         22    1    1    2    0    0  0.26215010095E+02  0.18324542821E+02  0.34943680813E+02  0.47371684081E+02  0.00000000000E+00 0. -1.
</event>
<event>
 6    1  0.2809573E-005  0.9369174E+02  0.7818608E-02  0.1308107E+00
          2   -1    0    0  502    0  0.00000000000E+00  0.00000000000E+00  0.32022729359E+03  0.32022729359E+03  0.00000000000E+00 0.  1.
          1   -1    0    0  501    0 -0.00000000000E+00 -0.00000000000E+00 -0.72698383033E+03  0.72698383033E+03  0.00000000000E+00 0. -1.
          2    1    1    2  501    0 -0.61126749244E+02  0.56658910477E+02  0.58257628426E+01  0.83550290976E+02  0.00000000000E+00 0.  1.
          1    1    1    2  502    0  0.24877070537E+02 -0.45702693067E+02 -0.67251776312E+03  0.67452779521E+03  0.00000000000E+00 0. -1.
         22    1    1    2    0    0  0.42131781145E+02 -0.52922975818E+02  0.22261278299E+03  0.23266366175E+03  0.00000000000E+00 0.  1.
         22    1    1    2    0    0 -0.58821024388E+01  0.41966758409E+02  0.37322680557E+02  0.56469375987E+02  0.00000000000E+00 0. -1.
</event>
<event>
 6    1  0.2809573E-005  0.6139020E+02  0.7818608E-02  0.1476634E+00
          2   -1    0    0  502    0  0.00000000000E+00  0.00000000000E+00  0.80538742316E+02  0.80538742316E+02  0.00000000000E+00 0. -1.
          1   -1    0    0  501    0 -0.00000000000E+00 -0.00000000000E+00 -0.30446070440E+03  0.30446070440E+03  0.00000000000E+00 0. -1.
          2    1    1    2  501    0  0.36284220146E+01  0.40118942880E+02 -0.21605643650E+03  0.21977961411E+03  0.00000000000E+00 0. -1.
          1    1    1    2  502    0  0.35392049777E+01 -0.40441848981E+02 -0.10540475177E+02  0.41942469382E+02  0.00000000000E+00 0. -1.
         22    1    1    2    0    0 -0.70278374749E+01 -0.16831981756E+02 -0.57698925561E+02  0.60513404468E+02  0.00000000000E+00 0.  1.
         22    1    1    2    0    0 -0.13978951751E+00  0.17154887857E+02  0.60373875152E+02  0.62763958761E+02  0.00000000000E+00 0. -1.
</event>
<event>
 6    1  0.2809573E-005  0.1028654E+03  0.7818608E-02  0.1292852E+00
          2   -1    0    0  502    0  0.00000000000E+00  0.00000000000E+00  0.42171274996E+03  0.42171274996E+03  0.00000000000E+00 0.  1.
          1   -1    0    0  501    0 -0.00000000000E+00 -0.00000000000E+00 -0.54101681510E+02  0.54101681510E+02  0.00000000000E+00 0.  1.
          2    1    1    2  501    0 -0.15514919987E+02 -0.38287360048E+02  0.41781840091E+02  0.58756759978E+02  0.00000000000E+00 0.  1.
          1    1    1    2  502    0  0.34601557586E+02 -0.27851760369E+02 -0.14795286875E+02  0.46817612676E+02  0.00000000000E+00 0.  1.
         22    1    1    2    0    0  0.48802002562E+02  0.51392259744E+02  0.21888690024E+03  0.23007449861E+03  0.00000000000E+00 0.  1.
         22    1    1    2    0    0 -0.67888640161E+02  0.14746860674E+02  0.12173761499E+03  0.14016556020E+03  0.00000000000E+00 0.  1.
</event>
<event>
 6    1  0.2809573E-005  0.1624073E+03  0.7818608E-02  0.1205662E+00
          2   -1    0    0  502    0  0.00000000000E+00  0.00000000000E+00  0.97836251471E+03  0.97836251471E+03  0.00000000000E+00 0. -1.
          1   -1    0    0  501    0 -0.00000000000E+00 -0.00000000000E+00 -0.17309957861E+03  0.17309957861E+03  0.00000000000E+00 0.  1.
          2    1    1    2  501    0 -0.77903666898E+02  0.10807433669E+03  0.20881972984E+03  0.24769885575E+03  0.00000000000E+00 0. -1.
          1    1    1    2  502    0  0.10833576699E+03 -0.43141164001E+02 -0.12378082152E+03  0.17005731451E+03  0.00000000000E+00 0.  1.
         22    1    1    2    0    0  0.15295965734E+02  0.30303562292E+02  0.20047771842E+03  0.20333122741E+03  0.00000000000E+00 0. -1.
         22    1    1    2    0    0 -0.45728065830E+02 -0.95236734981E+02  0.51974630936E+03  0.53037469565E+03  0.00000000000E+00 0. -1.
</event>
<event>
 6    1  0.2809573E-005  0.1537557E+03  0.7818608E-02  0.1257422E+00
          2   -1    0    0  502    0  0.00000000000E+00  0.00000000000E+00  0.20117235731E+03  0.20117235731E+03  0.00000000000E+00 0.  1.
          1   -1    0    0  501    0 -0.00000000000E+00 -0.00000000000E+00 -0.13951602130E+04  0.13951602130E+04  0.00000000000E+00 0. -1.
          2    1    1    2  501    0  0.99350620661E+02 -0.24195923677E+02 -0.46343648630E+02  0.11226630089E+03  0.00000000000E+00 0.  1.
          1    1    1    2  502    0 -0.14320168587E+03  0.53727074751E+02 -0.12839864589E+04  0.12930640154E+04  0.00000000000E+00 0. -1.
         22    1    1    2    0    0  0.75636740472E+01 -0.67350682348E+01 -0.23460561114E+02  0.25553243180E+02  0.00000000000E+00 0.  1.
         22    1    1    2    0    0  0.36287391163E+02 -0.22796082839E+02  0.15980281295E+03  0.16544901080E+03  0.00000000000E+00 0.  1.
</event>
<event>
 6    1  0.2809573E-005  0.7945076E+02  0.7818608E-02  0.1332567E+00
          2   -1    0    0  502    0  0.00000000000E+00  0.00000000000E+00  0.32627810698E+02  0.32627810698E+02  0.00000000000E+00 0.  1.
          1   -1    0    0  501    0 -0.00000000000E+00 -0.00000000000E+00 -0.18499921763E+04  0.18499921763E+04  0.00000000000E+00 0.  1.
          2    1    1    2  501    0  0.42178560058E+02  0.97459868898E+01 -0.18469301329E+03  0.18969850908E+03  0.00000000000E+00 0.  1.
          1    1    1    2  502    0  0.50796025269E+01 -0.33952869790E+02 -0.15028506924E+04  0.15032427626E+04  0.00000000000E+00 0.  1.
         22    1    1    2    0    0 -0.72153608032E+02  0.33925220613E+02 -0.28150600351E+02  0.84554834550E+02  0.00000000000E+00 0.  1.
         22    1    1    2    0    0  0.24895445447E+02 -0.97183377130E+01 -0.10167005959E+03  0.10512388077E+03  0.00000000000E+00 0. -1.
</event>
<event>
 6    1  0.2809573E-005  0.1023869E+03  0.7818608E-02  0.1384646E+00
          2   -1    0    0  502    0  0.00000000000E+00  0.00000000000E+00  0.26515233327E+02  0.26515233327E+02  0.00000000000E+00 0. -1.
          1   -1    0    0  501    0 -0.00000000000E+00 -0.00000000000E+00 -0.15332665806E+04  0.15332665806E+04  0.00000000000E+00 0. -1.
          2    1    1    2  501    0  0.14667203387E+01 -0.22227749918E+02 -0.35482552241E+03  0.35552408566E+03  0.00000000000E+00 0. -1.
          1    1    1    2  502    0 -0.47444318274E+02  0.28931572085E+02 -0.10132936230E+04  0.10148162226E+04  0.00000000000E+00 0. -1.
         22    1    1    2    0    0  0.56745636008E+02  0.36219023619E+01 -0.15629755812E+03  0.16631930753E+03  0.00000000000E+00 0.  1.
         22    1    1    2    0    0 -0.10768038072E+02 -0.10325724529E+02  0.17665356315E+02  0.23122198094E+02  0.00000000000E+00 0. -1.
</event>
<event>
 6    1  0.2809573E-005  0.2353446E+03  0.7818608E-02  0.1215343E+00
          2   -1    0    0  502    0  0.00000000000E+00  0.00000000000E+00  0.62347430338E+03  0.62347430338E+03  0.00000000000E+00 0. -1.
          1   -1    0    0  501    0 -0.00000000000E+00 -0.00000000000E+00 -0.12760114516E+04  0.12760114516E+04  0.00000000000E+00 0. -1.
          2    1    1    2  501    0 -0.85612689447E+02 -0.60554829187E+02  0.16120859202E+03  0.19231388425E+03  0.00000000000E+00 0. -1.
          1    1    1    2  502    0 -0.18771866185E+02  0.29809125706E+02 -0.12443135312E+04  0.12448120865E+04  0.00000000000E+00 0. -1.
         22    1    1    2    0    0  0.13098752315E+03  0.21272421413E+02  0.28911774926E+03  0.31811840574E+03  0.00000000000E+00 0. -1.
         22    1    1    2    0    0 -0.26602967520E+02  0.94732820681E+01  0.14145004170E+03  0.14424137843E+03  0.00000000000E+00 0.  1.
</event>
<event>
 6    1  0.2809573E-005  0.8990937E+02  0.7818608E-02  0.1327744E+00
          2   -1    0    0  502    0  0.00000000000E+00  0.00000000000E+00  0.10322578346E+03  0.10322578346E+03  0.00000000000E+00 0.  1.
          1   -1    0    0  501    0 -0.00000000000E+00 -0.00000000000E+00 -0.33090803644E+03  0.33090803644E+03  0.00000000000E+00 0.  1.
          2    1    1    2  501    0 -0.21973449208E+01  0.35192728082E+02 -0.17453441022E+03  0.17806071096E+03  0.00000000000E+00 0.  1.
          1    1    1    2  502    0  0.37048719277E+02 -0.17722254044E+02 -0.10649167929E+03  0.11413660082E+03  0.00000000000E+00 0.  1.
         22    1    1    2    0    0 -0.22883693643E+02 -0.52835838093E+02  0.78180071807E+02  0.97094865207E+02  0.00000000000E+00 0.  1.
         22    1    1    2    0    0 -0.11967680713E+02  0.35365364056E+02 -0.24836235278E+02  0.44841642914E+02  0.00000000000E+00 0. -1.
</event>
<event>
 6    1  0.2809573E-005  0.9840370E+02  0.7818608E-02  0.1290553E+00
          2   -1    0    0  502    0  0.00000000000E+00  0.00000000000E+00  0.36896056765E+03  0.36896056765E+03  0.00000000000E+00 0.  1.
          1   -1    0    0  501    0 -0.00000000000E+00 -0.00000000000E+00 -0.23495591018E+03  0.23495591018E+03  0.00000000000E+00 0.  1.
          2    1    1    2  501    0 -0.96577590329E+02 -0.17845696370E+02  0.68037910815E+02  0.11947743360E+03  0.00000000000E+00 0.  1.
          1    1    1    2  502    0  0.36735693809E+02 -0.13732898221E+02 -0.18971461885E+03  0.19372594121E+03  0.00000000000E+00 0.  1.
         22    1    1    2    0    0 -0.19792265106E+02  0.13977907693E+02  0.20789783154E+01  0.24319494492E+02  0.00000000000E+00 0.  1.
         22    1    1    2    0    0  0.79634161626E+02  0.17600686898E+02  0.25360238719E+03  0.26639360853E+03  0.00000000000E+00 0.  1.
</event>
<event>
 6    1  0.2809573E-005  0.1366336E+03  0.7818608E-02  0.1257579E+00
          2   -1    0    0  502    0  0.00000000000E+00  0.00000000000E+00  0.55097768091E+03  0.55097768091E+03  0.00000000000E+00 0.  1.
          1   -1    0    0  501    0 -0.00000000000E+00 -0.00000000000E+00 -0.10561510708E+03  0.10561510708E+03  0.00000000000E+00 0.  1.
          2    1    1    2  501    0  0.91269870884E+02  0.20417963902E+02  0.10947422013E+03  0.14398502510E+03  0.00000000000E+00 0.  1.
          1    1    1    2  502    0 -0.10960022357E+03  0.99105321989E+01 -0.37735248962E+02  0.11633733997E+03  0.00000000000E+00 0.  1.
         22    1    1    2    0    0 -0.17964165406E+02  0.18547668806E+02  0.10167010903E+02  0.27750592203E+02  0.00000000000E+00 0.  1.
         22    1    1    2    0    0  0.36294518097E+02 -0.48876164908E+02  0.36345659176E+03  0.36851983072E+03  0.00000000000E+00 0.  1.
</event>
<event>
 6    1  0.2809573E-005  0.8682270E+02  0.7818608E-02  0.1320283E+00
          2   -1    0    0  502    0  0.00000000000E+00  0.00000000000E+00  0.26172936250E+03  0.26172936250E+03  0.00000000000E+00 0. -1.
          1   -1    0    0  501    0 -0.00000000000E+00 -0.00000000000E+00 -0.16136849154E+04  0.16136849154E+04  0.00000000000E+00 0.  1.
          2    1    1    2  501    0  0.11355683015E+02  0.29452085552E+02  0.92095524967E+02  0.97354828329E+02  0.00000000000E+00 0. -1.
          1    1    1    2  502    0  0.23642779775E+01 -0.47316970242E+02 -0.15863785190E+04  0.15870857856E+04  0.00000000000E+00 0.  1.
         22    1    1    2    0    0 -0.56306938739E+02 -0.28855800726E+02  0.82179322834E+02  0.10371388377E+03  0.00000000000E+00 0. -1.
         22    1    1    2    0    0  0.42586977747E+02  0.46720685417E+02  0.60148118219E+02  0.87259780224E+02  0.00000000000E+00 0.  1.
</event>
<event>
 6    1  0.2809573E-005  0.8164343E+02  0.7818608E-02  0.1333542E+00
          2   -1    0    0  502    0  0.00000000000E+00  0.00000000000E+00  0.15921857591E+03  0.15921857591E+03  0.00000000000E+00 0. -1.
          1   -1    0    0  501    0 -0.00000000000E+00 -0.00000000000E+00 -0.11526236374E+04  0.11526236374E+04  0.00000000000E+00 0. -1.
          2    1    1    2  501    0  0.26905785577E+02  0.17923542422E+02  0.41867549718E+02  0.52896752167E+02  0.00000000000E+00 0. -1.
          1    1    1    2  502    0 -0.16306319299E+01 -0.30549821825E+02 -0.11081503811E+04  0.11085726037E+04  0.00000000000E+00 0. -1.
         22    1    1    2    0    0  0.40984596629E+02 -0.25125501747E+02  0.53021766715E+02  0.71570494929E+02  0.00000000000E+00 0.  1.
         22    1    1    2    0    0 -0.66259750275E+02  0.37751781151E+02  0.19856003117E+02  0.78802362569E+02  0.00000000000E+00 0. -1.
</event>
<event>
 6    1  0.2809573E-005  0.1827486E+03  0.7818608E-02  0.1212658E+00
          2   -1    0    0  502    0  0.00000000000E+00  0.00000000000E+00  0.63636851445E+03  0.63636851445E+03  0.00000000000E+00 0.  1.
          1   -1    0    0  501    0 -0.00000000000E+00 -0.00000000000E+00 -0.17864374233E+04  0.17864374233E+04  0.00000000000E+00 0.  1.
          2    1    1    2  501    0  0.14186389991E+03 -0.58642399577E+02  0.18966337901E+03  0.24400101324E+03  0.00000000000E+00 0.  1.
          1    1    1    2  502    0 -0.47760894138E+02  0.91662601041E+02 -0.17431221400E+04  0.17461838192E+04  0.00000000000E+00 0.  1.
         22    1    1    2    0    0 -0.60486610513E+02  0.20439131161E+02  0.32855793052E+03  0.33470390174E+03  0.00000000000E+00 0.  1.
         22    1    1    2    0    0 -0.33616395259E+02 -0.53459332626E+02  0.74831921595E+02  0.97917203619E+02  0.00000000000E+00 0.  1.
</event>
<event>
 6    1  0.2809573E-005  0.3414415E+03  0.7818608E-02  0.1068424E+00
          2   -1    0    0  502    0  0.00000000000E+00  0.00000000000E+00  0.71177349863E+03  0.71177349863E+03  0.00000000000E+00 0. -1.
          1   -1    0    0  501    0 -0.00000000000E+00 -0.00000000000E+00 -0.56706521623E+03  0.56706521623E+03  0.00000000000E+00 0. -1.
          2    1    1    2  501    0 -0.11255799722E+03 -0.30725137567E+03  0.51147519723E+03  0.60718991096E+03  0.00000000000E+00 0. -1.
          1    1    1    2  502    0  0.41750354466E+02 -0.27652057666E+02 -0.29707418151E+03  0.30126532776E+03  0.00000000000E+00 0. -1.
         22    1    1    2    0    0  0.76294218891E+02  0.32395920809E+03 -0.91679531639E+02  0.34521806567E+03  0.00000000000E+00 0. -1.
         22    1    1    2    0    0 -0.54865761329E+01  0.10944225244E+02  0.21986798315E+02  0.25165410468E+02  0.00000000000E+00 0.  1.
</event>
<event>
 6    1  0.2809573E-005  0.2765706E+03  0.7818608E-02  0.1201687E+00
          2   -1    0    0  502    0  0.00000000000E+00  0.00000000000E+00  0.13109580134E+04  0.13109580134E+04  0.00000000000E+00 0.  1.
          1   -1    0    0  501    0 -0.00000000000E+00 -0.00000000000E+00 -0.24683868510E+03  0.24683868510E+03  0.00000000000E+00 0. -1.
          2    1    1    2  501    0 -0.11695285945E+03  0.93871169697E+01  0.56281640368E+03  0.57491598826E+03  0.00000000000E+00 0.  1.
          1    1    1    2  502    0  0.33693493487E+02  0.10985690926E+03 -0.21355788638E+03  0.24250930467E+03  0.00000000000E+00 0. -1.
         22    1    1    2    0    0  0.88136460356E+02 -0.14203652727E+03  0.65840084314E+03  0.67928939413E+03  0.00000000000E+00 0.  1.
         22    1    1    2    0    0 -0.48770943953E+01  0.22792501036E+02  0.56459967865E+02  0.61082011464E+02  0.00000000000E+00 0. -1.
</event>
<event>
 6    1  0.2809573E-005  0.3153194E+03  0.7818608E-02  0.1183267E+00
          2   -1    0    0  502    0  0.00000000000E+00  0.00000000000E+00  0.13222041117E+03  0.13222041117E+03  0.00000000000E+00 0. -1.
          1   -1    0    0  501    0 -0.00000000000E+00 -0.00000000000E+00 -0.36395567992E+03  0.36395567992E+03  0.00000000000E+00 0. -1.
          2    1    1    2  501    0 -0.87687704972E+01  0.14390695186E+03 -0.10545288030E+03  0.17862366051E+03  0.00000000000E+00 0. -1.
          1    1    1    2  502    0  0.91738054061E+02 -0.16423203582E+02 -0.56859910616E+02  0.10917253141E+03  0.00000000000E+00 0. -1.
         22    1    1    2    0    0  0.22458894096E+02  0.72098923210E+01 -0.18303710733E+02  0.29856495071E+02  0.00000000000E+00 0. -1.
         22    1    1    2    0    0 -0.10542817766E+03 -0.13469364060E+03 -0.51118767104E+02  0.17852340410E+03  0.00000000000E+00 0. -1.
</event>
<event>
 6    1  0.2809573E-005  0.9934150E+02  0.7818608E-02  0.1403299E+00
          2   -1    0    0  502    0  0.00000000000E+00  0.00000000000E+00  0.33534989800E+02  0.33534989800E+02  0.00000000000E+00 0.  1.
          1   -1    0    0  501    0 -0.00000000000E+00 -0.00000000000E+00 -0.12817820555E+04  0.12817820555E+04  0.00000000000E+00 0.  1.
          2    1    1    2  501    0  0.13007251230E+02 -0.39935722160E+02 -0.11287832951E+03  0.12043906244E+03  0.00000000000E+00 0.  1.
          1    1    1    2  502    0  0.35271764820E+02  0.39026370643E+02 -0.10195428322E+04  0.10208989870E+04  0.00000000000E+00 0.  1.
         22    1    1    2    0    0  0.85018975131E+01 -0.86433368974E+01  0.21716089292E+02  0.24871229728E+02  0.00000000000E+00 0.  1.
         22    1    1    2    0    0 -0.56780913563E+02  0.95526884141E+01 -0.13754199335E+03  0.14910776618E+03  0.00000000000E+00 0.  1.
</event>
<event>
 6    1  0.2809573E-005  0.1152639E+03  0.7818608E-02  0.1338830E+00
          2   -1    0    0  502    0  0.00000000000E+00  0.00000000000E+00  0.61708874957E+02  0.61708874957E+02  0.00000000000E+00 0.  1.
          1   -1    0    0  501    0 -0.00000000000E+00 -0.00000000000E+00 -0.83421256659E+03  0.83421256659E+03  0.00000000000E+00 0. -1.
          2    1    1    2  501    0  0.86748346958E+02 -0.22131212556E+02 -0.16725361052E+03  0.18970723893E+03  0.00000000000E+00 0.  1.
          1    1    1    2  502    0 -0.10417460935E+03  0.30454190620E+02 -0.55917760474E+03  0.56961337818E+03  0.00000000000E+00 0. -1.
         22    1    1    2    0    0 -0.16593096378E+02 -0.15259979460E+02  0.38815567603E+02  0.44887037203E+02  0.00000000000E+00 0.  1.
         22    1    1    2    0    0  0.34019358766E+02  0.69370013966E+01 -0.84888043974E+02  0.91713787235E+02  0.00000000000E+00 0. -1.
</event>
<event>
 6    1  0.2809573E-005  0.3252337E+03  0.7818608E-02  0.1197791E+00
          2   -1    0    0  502    0  0.00000000000E+00  0.00000000000E+00  0.38877493349E+03  0.38877493349E+03  0.00000000000E+00 0.  1.
          1   -1    0    0  501    0 -0.00000000000E+00 -0.00000000000E+00 -0.20427976613E+04  0.20427976613E+04  0.00000000000E+00 0. -1.
          2    1    1    2  501    0 -0.71119509670E+02 -0.13561971882E+03  0.23371378359E+03  0.27941514889E+03  0.00000000000E+00 0.  1.
          1    1    1    2  502    0  0.68734785479E+02  0.25230828503E+03 -0.19515746531E+04  0.19690169040E+04  0.00000000000E+00 0. -1.
         22    1    1    2    0    0 -0.14514832714E+02 -0.57159206960E+01  0.69027827703E+02  0.70768588480E+02  0.00000000000E+00 0. -1.
         22    1    1    2    0    0  0.16899556904E+02 -0.11097264552E+03 -0.51896859612E+01  0.11237195343E+03  0.00000000000E+00 0.  1.
</event>
<event>
 6    1  0.2809573E-005  0.1207519E+03  0.7818608E-02  0.1292288E+00
          2   -1    0    0  502    0  0.00000000000E+00  0.00000000000E+00  0.24291045380E+03  0.24291045380E+03  0.00000000000E+00 0. -1.
          1   -1    0    0  501    0 -0.00000000000E+00 -0.00000000000E+00 -0.57542990275E+03  0.57542990275E+03  0.00000000000E+00 0. -1.
          2    1    1    2  501    0 -0.68338752066E+02  0.42852873311E+01  0.69827851928E+02  0.97798147356E+02  0.00000000000E+00 0. -1.
          1    1    1    2  502    0  0.11438585746E+03 -0.86167991878E+01 -0.52480093165E+03  0.53719120569E+03  0.00000000000E+00 0. -1.
         22    1    1    2    0    0 -0.73829203225E+02  0.40124731561E+02  0.10572817084E+03  0.13505255066E+03  0.00000000000E+00 0. -1.
         22    1    1    2    0    0  0.27782097827E+02 -0.35793219705E+02  0.16725459931E+02  0.48298452837E+02  0.00000000000E+00 0.  1.
</event>
<event>
 6    1  0.2809573E-005  0.1140703E+03  0.7818608E-02  0.1280928E+00
          2   -1    0    0  502    0  0.00000000000E+00  0.00000000000E+00  0.43647803740E+03  0.43647803740E+03  0.00000000000E+00 0.  1.
          1   -1    0    0  501    0 -0.00000000000E+00 -0.00000000000E+00 -0.34583111501E+02  0.34583111501E+02  0.00000000000E+00 0.  1.
          2    1    1    2  501    0 -0.42984304804E+02  0.22263232033E+02  0.62270227793E+02  0.78872575902E+02  0.00000000000E+00 0.  1.
          1    1    1    2  502    0  0.34665188145E+02 -0.13566629249E+01  0.69766918896E+01  0.35386297251E+02  0.00000000000E+00 0.  1.
         22    1    1    2    0    0  0.36426706068E+02  0.43449163445E+02  0.18122136061E+03  0.18988395472E+03  0.00000000000E+00 0.  1.
         22    1    1    2    0    0 -0.28107589409E+02 -0.64355732553E+02  0.15142664561E+03  0.16691832103E+03  0.00000000000E+00 0.  1.
</event>
<event>
 6    1  0.2809573E-005  0.1880516E+03  0.7818608E-02  0.1228927E+00
          2   -1    0    0  502    0  0.00000000000E+00  0.00000000000E+00  0.56788184680E+02  0.56788184680E+02  0.00000000000E+00 0. -1.
          1   -1    0    0  501    0 -0.00000000000E+00 -0.00000000000E+00 -0.72383130968E+03  0.72383130968E+03  0.00000000000E+00 0. -1.
          2    1    1    2  501    0 -0.19534165987E+02  0.74606935961E+02 -0.33485119417E+03  0.34361766656E+03  0.00000000000E+00 0. -1.
          1    1    1    2  502    0  0.57623776352E+02 -0.12412741994E+03 -0.11817659917E+03  0.18081433730E+03  0.00000000000E+00 0. -1.
         22    1    1    2    0    0 -0.10235971463E+02 -0.40381604198E+02 -0.10009002334E+03  0.10841338405E+03  0.00000000000E+00 0.  1.
         22    1    1    2    0    0 -0.27853638901E+02  0.89902088181E+02 -0.11392530832E+03  0.14777410644E+03  0.00000000000E+00 0. -1.
</event>
<event>
 6    1  0.2809573E-005  0.7376777E+02  0.7818608E-02  0.1354875E+00
          2   -1    0    0  502    0  0.00000000000E+00  0.00000000000E+00  0.13231962904E+02  0.13231962904E+02  0.00000000000E+00 0. -1.
          1   -1    0    0  501    0 -0.00000000000E+00 -0.00000000000E+00 -0.11356679271E+04  0.11356679271E+04  0.00000000000E+00 0. -1.
          2    1    1    2  501    0 -0.49503859628E+01  0.22159681128E+02 -0.73430559269E+02  0.76860944721E+02  0.00000000000E+00 0. -1.
          1    1    1    2  502    0 -0.13155329479E+01 -0.26723508309E+02 -0.71541783126E+03  0.71591797701E+03  0.00000000000E+00 0. -1.
         22    1    1    2    0    0 -0.41487836306E+02  0.33521270456E+02 -0.77933674302E+02  0.94438200557E+02  0.00000000000E+00 0. -1.
         22    1    1    2    0    0  0.47753755216E+02 -0.28957443276E+02 -0.25565389938E+03  0.26168276773E+03  0.00000000000E+00 0.  1.
</event>
<event>
 6    1  0.2809573E-005  0.2478084E+03  0.7818608E-02  0.1175698E+00
          2   -1    0    0  502    0  0.00000000000E+00  0.00000000000E+00  0.47462163896E+03  0.47462163896E+03  0.00000000000E+00 0.  1.
          1   -1    0    0  501    0 -0.00000000000E+00 -0.00000000000E+00 -0.51666288589E+03  0.51666288589E+03  0.00000000000E+00 0.  1.
          2    1    1    2  501    0 -0.10569609861E+03 -0.15480359529E+03  0.27352417766E+03  0.33158904406E+03  0.00000000000E+00 0.  1.
          1    1    1    2  502    0  0.17293949953E+03  0.16157898390E+03 -0.42228697493E+03  0.48408896675E+03  0.00000000000E+00 0.  1.
         22    1    1    2    0    0 -0.52422129250E+02 -0.62453789346E+02  0.56816986139E+02  0.99381715385E+02  0.00000000000E+00 0.  1.
         22    1    1    2    0    0 -0.14821271679E+02  0.55678400740E+02  0.49904564189E+02  0.76224798655E+02  0.00000000000E+00 0.  1.
</event>
<event>
 6    1  0.2809573E-005  0.9567489E+02  0.7818608E-02  0.1328674E+00
          2   -1    0    0  502    0  0.00000000000E+00  0.00000000000E+00  0.74409899322E+02  0.74409899322E+02  0.00000000000E+00 0. -1.
          1   -1    0    0  501    0 -0.00000000000E+00 -0.00000000000E+00 -0.47418885690E+03  0.47418885690E+03  0.00000000000E+00 0. -1.
          2    1    1    2  501    0 -0.76079022998E+02  0.53727241182E+02 -0.13074628784E+03  0.16052796008E+03  0.00000000000E+00 0. -1.
          1    1    1    2  502    0  0.73406234675E+02 -0.35127441354E+02 -0.24313136791E+03  0.25638891257E+03  0.00000000000E+00 0. -1.
         22    1    1    2    0    0  0.18378168634E+02 -0.43346927175E+02  0.38568281643E+02  0.60862349008E+02  0.00000000000E+00 0. -1.
         22    1    1    2    0    0 -0.15705380310E+02  0.24747127347E+02 -0.64469583477E+02  0.70819534567E+02  0.00000000000E+00 0.  1.
</event>
<event>
 6    1  0.2809573E-005  0.1582545E+03  0.7818608E-02  0.1192213E+00
          2   -1    0    0  502    0  0.00000000000E+00  0.00000000000E+00  0.91835253655E+03  0.91835253655E+03  0.00000000000E+00 0. -1.
          1   -1    0    0  501    0 -0.00000000000E+00 -0.00000000000E+00 -0.89153652124E+02  0.89153652124E+02  0.00000000000E+00 0. -1.
          2    1    1    2  501    0 -0.10389419135E+03 -0.10459307304E+03  0.49252740792E+03  0.51411765334E+03  0.00000000000E+00 0. -1.
          1    1    1    2  502    0  0.12365272582E+03 -0.30517513105E+02  0.24816044804E+02  0.12975804903E+03  0.00000000000E+00 0. -1.
         22    1    1    2    0    0 -0.28867613622E+01 -0.23993939212E+02  0.66126820103E+02  0.70404537120E+02  0.00000000000E+00 0. -1.
         22    1    1    2    0    0 -0.16871773108E+02  0.15910452536E+03  0.24572861160E+03  0.29322594918E+03  0.00000000000E+00 0.  1.
</event>
<event>
 6    1  0.2809573E-005  0.9812716E+02  0.7818608E-02  0.1289132E+00
          2   -1    0    0  502    0  0.00000000000E+00  0.00000000000E+00  0.84016132218E+02  0.84016132218E+02  0.00000000000E+00 0. -1.
          1   -1    0    0  501    0 -0.00000000000E+00 -0.00000000000E+00 -0.50820455712E+03  0.50820455712E+03  0.00000000000E+00 0. -1.
          2    1    1    2  501    0 -0.11576102477E+02  0.58215844399E+02 -0.15763063607E+03  0.16843547167E+03  0.00000000000E+00 0. -1.
          1    1    1    2  502    0 -0.53030930785E+02 -0.24801857893E+02 -0.27210087006E+03  0.27832767607E+03  0.00000000000E+00 0. -1.
         22    1    1    2    0    0  0.85521628598E+02 -0.39798525464E+02  0.41753652711E+02  0.10315638178E+03  0.00000000000E+00 0. -1.
         22    1    1    2    0    0 -0.20914595336E+02  0.63845389586E+01 -0.36210571482E+02  0.42301159829E+02  0.00000000000E+00 0. -1.
</event>
<event>
 6    1  0.2809573E-005  0.7813998E+02  0.7818608E-02  0.1434081E+00
          2   -1    0    0  502    0  0.00000000000E+00  0.00000000000E+00  0.53901282213E+02  0.53901282213E+02  0.00000000000E+00 0. -1.
          1   -1    0    0  501    0 -0.00000000000E+00 -0.00000000000E+00 -0.62262812642E+03  0.62262812642E+03  0.00000000000E+00 0. -1.
          2    1    1    2  501    0 -0.42786689868E+02 -0.19028502780E+02 -0.41829877367E+03  0.42091168766E+03  0.00000000000E+00 0. -1.
          1    1    1    2  502    0  0.58667086171E+02  0.45268677659E+02 -0.27134533176E+02  0.78913643101E+02  0.00000000000E+00 0. -1.
         22    1    1    2    0    0  0.93387221161E+01 -0.12372887297E+02  0.22928279218E+02  0.27676814461E+02  0.00000000000E+00 0. -1.
         22    1    1    2    0    0 -0.25219118419E+02 -0.13867287581E+02 -0.14622181658E+03  0.14902726342E+03  0.00000000000E+00 0. -1.
</event>
<event>
 6    1  0.2809573E-005  0.1034284E+03  0.7818608E-02  0.1309814E+00
          2   -1    0    0  502    0  0.00000000000E+00  0.00000000000E+00  0.16340742073E+02  0.16340742073E+02  0.00000000000E+00 0. -1.
          1   -1    0    0  501    0 -0.00000000000E+00 -0.00000000000E+00 -0.93520899582E+03  0.93520899582E+03  0.00000000000E+00 0. -1.
          2    1    1    2  501    0  0.41526400121E+01  0.49572445875E+02 -0.16999079465E+03  0.17712013458E+03  0.00000000000E+00 0. -1.
          1    1    1    2  502    0 -0.12257014596E+02 -0.67569960993E+02 -0.35144309822E+03  0.35808963308E+03  0.00000000000E+00 0. -1.
         22    1    1    2    0    0 -0.43481939324E+02  0.28923492903E+02 -0.87088914681E+02  0.10154667178E+03  0.00000000000E+00 0. -1.
         22    1    1    2    0    0  0.51586313908E+02 -0.10925977785E+02 -0.31034544620E+03  0.31479329845E+03  0.00000000000E+00 0. -1.
</event>
<event>
 6    1  0.2809573E-005  0.9717334E+02  0.7818608E-02  0.1303626E+00
          2   -1    0    0  502    0  0.00000000000E+00  0.00000000000E+00  0.53639382902E+03  0.53639382902E+03  0.00000000000E+00 0.  1.
          1   -1    0    0  501    0 -0.00000000000E+00 -0.00000000000E+00 -0.27586779575E+02  0.27586779575E+02  0.00000000000E+00 0.  1.
          2    1    1    2  501    0 -0.29332637745E+02  0.23121763649E+02  0.62480239061E+02  0.72792855861E+02  0.00000000000E+00 0.  1.
          1    1    1    2  502    0 -0.12187244957E+02 -0.31277511975E+02  0.77276151336E+01  0.34446011825E+02  0.00000000000E+00 0.  1.
         22    1    1    2    0    0  0.34703478262E+01  0.56653423637E+02  0.29594753038E+03  0.30134132552E+03  0.00000000000E+00 0.  1.
         22    1    1    2    0    0  0.38049534875E+02 -0.48497675311E+02  0.14265166486E+03  0.15540041539E+03  0.00000000000E+00 0. -1.
</event>
<event>
 6    1  0.2809573E-005  0.2916103E+03  0.7818608E-02  0.1183141E+00
          2   -1    0    0  502    0  0.00000000000E+00  0.00000000000E+00  0.89959225339E+03  0.89959225339E+03  0.00000000000E+00 0.  1.
          1   -1    0    0  501    0 -0.00000000000E+00 -0.00000000000E+00 -0.55569367246E+02  0.55569367246E+02  0.00000000000E+00 0. -1.
          2    1    1    2  501    0 -0.83910291199E+02 -0.47378622182E+02  0.72208272431E+02  0.12041472259E+03  0.00000000000E+00 0.  1.
          1    1    1    2  502    0  0.57735435525E+02 -0.40345942203E+02  0.28078913815E+02  0.75826123260E+02  0.00000000000E+00 0. -1.
         22    1    1    2    0    0 -0.15432303720E+02 -0.25616786340E+02  0.12646723286E+03  0.12995513352E+03  0.00000000000E+00 0.  1.
         22    1    1    2    0    0  0.41607159394E+02  0.11334135073E+03  0.61726846704E+03  0.62896564127E+03  0.00000000000E+00 0.  1.
</event>
<event>
 6    1  0.2809573E-005  0.9398261E+02  0.7818608E-02  0.1305957E+00
          2   -1    0    0  502    0  0.00000000000E+00  0.00000000000E+00  0.77593761189E+02  0.77593761189E+02  0.00000000000E+00 0. -1.
          1   -1    0    0  501    0 -0.00000000000E+00 -0.00000000000E+00 -0.59397355200E+03  0.59397355200E+03  0.00000000000E+00 0. -1.
          2    1    1    2  501    0 -0.14839256539E+02 -0.87949341667E+02 -0.35801404458E+03  0.36895710638E+03  0.00000000000E+00 0. -1.
          1    1    1    2  502    0  0.70910229487E+01  0.37487825998E+02 -0.16511185696E+03  0.16946251802E+03  0.00000000000E+00 0. -1.
         22    1    1    2    0    0  0.13947680427E+02 -0.22205406736E+02 -0.39044786647E+02  0.47033107933E+02  0.00000000000E+00 0.  1.
         22    1    1    2    0    0 -0.61994468362E+01  0.72666922404E+02  0.45790897377E+02  0.86114580852E+02  0.00000000000E+00 0. -1.
</event>
<event>
 6    1  0.2809573E-005  0.1149889E+03  0.7818608E-02  0.1273147E+00
          2   -1    0    0  502    0  0.00000000000E+00  0.00000000000E+00  0.18771454656E+03  0.18771454656E+03  0.00000000000E+00 0. -1.
          1   -1    0    0  501    0 -0.00000000000E+00 -0.00000000000E+00 -0.29201863158E+04  0.29201863158E+04  0.00000000000E+00 0.  1.
          2    1    1    2  501    0 -0.49565201038E+02  0.12141338866E+03  0.46866708114E+02  0.13926380875E+03  0.00000000000E+00 0. -1.
          1    1    1    2  502    0  0.29304984039E+02 -0.10008476584E+03 -0.28273733386E+04  0.28292959793E+04  0.00000000000E+00 0.  1.
         22    1    1    2    0    0 -0.30576147537E+02  0.34369734388E+02  0.44260151545E+02  0.63836826792E+02  0.00000000000E+00 0.  1.
         22    1    1    2    0    0  0.50836364536E+02 -0.55698357208E+02  0.37747097619E+01  0.75504247488E+02  0.00000000000E+00 0. -1.
</event>
<event>
 6    1  0.2809573E-005  0.9311751E+02  0.7818608E-02  0.1370212E+00
          2   -1    0    0  502    0  0.00000000000E+00  0.00000000000E+00  0.89809571100E+02  0.89809571100E+02  0.00000000000E+00 0. -1.
          1   -1    0    0  501    0 -0.00000000000E+00 -0.00000000000E+00 -0.16159047341E+03  0.16159047341E+03  0.00000000000E+00 0. -1.
          2    1    1    2  501    0 -0.45426896511E+02  0.86144974862E+01 -0.31483277645E+02  0.55937547898E+02  0.00000000000E+00 0. -1.
          1    1    1    2  502    0  0.34331702551E+02 -0.13545468389E+02  0.31055901428E+02  0.48234992769E+02  0.00000000000E+00 0. -1.
         22    1    1    2    0    0  0.20075605104E+02  0.28390283095E+02 -0.10190579797E+03  0.10767464769E+03  0.00000000000E+00 0. -1.
         22    1    1    2    0    0 -0.89804111434E+01 -0.23459312192E+02  0.30552271880E+02  0.39552856153E+02  0.00000000000E+00 0. -1.
</event>
<event>
 6    1  0.2854775E-005  0.8680006E+02  0.7818608E-02  0.1312011E+00
          2   -1    0    0  502    0  0.00000000000E+00  0.00000000000E+00  0.39905733223E+03  0.39905733223E+03  0.00000000000E+00 0. -1.
          1   -1    0    0  501    0 -0.00000000000E+00 -0.00000000000E+00 -0.59484755841E+03  0.59484755841E+03  0.00000000000E+00 0. -1.
          2    1    1    2  501    0 -0.73542772873E+02  0.48200252776E+02 -0.13171380697E+02  0.88911692589E+02  0.00000000000E+00 0. -1.
          1    1    1    2  502    0  0.19565171954E+02 -0.17013244471E+02 -0.53021039063E+03  0.53084395520E+03  0.00000000000E+00 0. -1.
         22    1    1    2    0    0  0.73273960642E+02 -0.38902118659E+02  0.34296872931E+03  0.35285974186E+03  0.00000000000E+00 0. -1.
         22    1    1    2    0    0 -0.19296359723E+02  0.77151103533E+01  0.46228158322E+01  0.21289500993E+02  0.00000000000E+00 0.  1.
</event>
<event>
 6    1  0.2809573E-005  0.2051537E+03  0.7818608E-02  0.1249396E+00
          2   -1    0    0  502    0  0.00000000000E+00  0.00000000000E+00  0.24719318762E+03  0.24719318762E+03  0.00000000000E+00 0. -1.
          1   -1    0    0  501    0 -0.00000000000E+00 -0.00000000000E+00 -0.45224171735E+03  0.45224171735E+03  0.00000000000E+00 0. -1.
          2    1    1    2  501    0 -0.11572002333E+02  0.98294593692E+02  0.41825905764E+02  0.10744833540E+03  0.00000000000E+00 0. -1.
          1    1    1    2  502    0 -0.12387776296E+02  0.21805821970E+02 -0.37428460885E+03  0.37512387194E+03  0.00000000000E+00 0. -1.
         22    1    1    2    0    0  0.11638888370E+02 -0.17670294109E+02  0.11026806779E+03  0.11227978354E+03  0.00000000000E+00 0. -1.
         22    1    1    2    0    0  0.12320890259E+02 -0.10243012155E+03  0.17142105572E+02  0.10458291410E+03  0.00000000000E+00 0. -1.
</event>
<event>
 6    1  0.2809573E-005  0.8803670E+02  0.7818608E-02  0.1339850E+00
          2   -1    0    0  502    0  0.00000000000E+00  0.00000000000E+00  0.36634697246E+03  0.36634697246E+03  0.00000000000E+00 0. -1.
          1   -1    0    0  501    0 -0.00000000000E+00 -0.00000000000E+00 -0.21169763279E+03  0.21169763279E+03  0.00000000000E+00 0. -1.
          2    1    1    2  501    0  0.23056617482E+02  0.19031491738E+01 -0.28967323500E+01  0.23315673801E+02  0.00000000000E+00 0. -1.
          1    1    1    2  502    0  0.53904474050E+02 -0.21666281385E+02 -0.17869387188E+03  0.18790055859E+03  0.00000000000E+00 0. -1.
         22    1    1    2    0    0 -0.32334075307E+02  0.41655760542E+02  0.39324439486E+02  0.65780744547E+02  0.00000000000E+00 0. -1.
         22    1    1    2    0    0 -0.44627016225E+02 -0.21892628330E+02  0.29691550441E+03  0.30104762831E+03  0.00000000000E+00 0. -1.
</event>
<event>
 6    1  0.2809573E-005  0.2597679E+03  0.7818608E-02  0.1153222E+00
          2   -1    0    0  502    0  0.00000000000E+00  0.00000000000E+00  0.61398500382E+02  0.61398500382E+02  0.00000000000E+00 0.  1.
          1   -1    0    0  501    0 -0.00000000000E+00 -0.00000000000E+00 -0.10477146066E+04  0.10477146066E+04  0.00000000000E+00 0.  1.
          2    1    1    2  501    0 -0.46490270683E+02 -0.66366087675E+02 -0.45428330458E+03  0.46145327356E+03  0.00000000000E+00 0.  1.
          1    1    1    2  502    0  0.56896544597E+02  0.55145279015E+01 -0.50322288035E+03  0.50645917320E+03  0.00000000000E+00 0.  1.
         22    1    1    2    0    0 -0.14014219243E+02  0.83060545476E+02 -0.59512084510E+02  0.10313651516E+03  0.00000000000E+00 0.  1.
         22    1    1    2    0    0  0.36079453287E+01 -0.22208985702E+02  0.30702163207E+02  0.38064145084E+02  0.00000000000E+00 0.  1.
</event>
<event>
 6    1  0.2809573E-005  0.1241926E+03  0.7818608E-02  0.1239280E+00
          2   -1    0    0  502    0  0.00000000000E+00  0.00000000000E+00  0.57955810641E+03  0.57955810641E+03  0.00000000000E+00 0. -1.
          1   -1    0    0  501    0 -0.00000000000E+00 -0.00000000000E+00 -0.86637995793E+02  0.86637995793E+02  0.00000000000E+00 0.  1.
          2    1    1    2  501    0 -0.50183429052E+02  0.63286491221E+02  0.27819304231E+03  0.28968072996E+03  0.00000000000E+00 0. -1.
          1    1    1    2  502    0 -0.23245569731E+02 -0.12648730481E+00 -0.57449751297E+02  0.61974562808E+02  0.00000000000E+00 0.  1.
         22    1    1    2    0    0  0.90603622893E+02 -0.88355450672E+02  0.22965865024E+03  0.26221898820E+03  0.00000000000E+00 0. -1.
         22    1    1    2    0    0 -0.17174624111E+02  0.25195446756E+02  0.42518169366E+02  0.52321821230E+02  0.00000000000E+00 0. -1.
</event>
<event>
 6    1  0.2809573E-005  0.1145767E+03  0.7818608E-02  0.1313451E+00
          2   -1    0    0  502    0  0.00000000000E+00  0.00000000000E+00  0.59107696971E+03  0.59107696971E+03  0.00000000000E+00 0. -1.
          1   -1    0    0  501    0 -0.00000000000E+00 -0.00000000000E+00 -0.10899529928E+03  0.10899529928E+03  0.00000000000E+00 0. -1.
          2    1    1    2  501    0  0.53761329648E+01 -0.28340354336E+02  0.62162522744E+01  0.29507969803E+02  0.00000000000E+00 0. -1.
          1    1    1    2  502    0 -0.50039876725E+02  0.22708737032E+03  0.27577827401E+03  0.36073025856E+03  0.00000000000E+00 0. -1.
         22    1    1    2    0    0 -0.23667870784E+02 -0.59989850683E+01  0.10136241436E+01  0.24437335436E+02  0.00000000000E+00 0. -1.
         22    1    1    2    0    0  0.68331614544E+02 -0.19274803091E+03  0.19907352000E+03  0.28539670519E+03  0.00000000000E+00 0. -1.
</event>
<event>
 6    1  0.2809573E-005  0.1249241E+03  0.7818608E-02  0.1327855E+00
          2   -1    0    0  502    0  0.00000000000E+00  0.00000000000E+00  0.35157377060E+03  0.35157377060E+03  0.00000000000E+00 0.  1.
          1   -1    0    0  501    0 -0.00000000000E+00 -0.00000000000E+00 -0.45878406022E+02  0.45878406022E+02  0.00000000000E+00 0.  1.
          2    1    1    2  501    0  0.28975466867E+02  0.16134635162E+02  0.27142132526E+02  0.42855565450E+02  0.00000000000E+00 0.  1.
          1    1    1    2  502    0 -0.33041823964E+02  0.61647445965E+02  0.80649726525E+02  0.10675461636E+03  0.00000000000E+00 0.  1.
         22    1    1    2    0    0 -0.48914791742E+01 -0.97280459768E+02  0.74609484670E+02  0.12269470088E+03  0.00000000000E+00 0.  1.
         22    1    1    2    0    0  0.89578362710E+01  0.19498378640E+02  0.12329402085E+03  0.12514729393E+03  0.00000000000E+00 0.  1.
</event>
<event>
 6    1  0.2809573E-005  0.1785652E+03  0.7818608E-02  0.1282087E+00
          2   -1    0    0  502    0  0.00000000000E+00  0.00000000000E+00  0.19017312484E+02  0.19017312484E+02  0.00000000000E+00 0. -1.
          1   -1    0    0  501    0 -0.00000000000E+00 -0.00000000000E+00 -0.93634221903E+03  0.93634221903E+03  0.00000000000E+00 0.  1.
          2    1    1    2  501    0  0.67135330505E+02  0.18638595883E+02 -0.20290481381E+03  0.21453417753E+03  0.00000000000E+00 0. -1.
          1    1    1    2  502    0  0.23711878324E+02 -0.83795594210E+01 -0.23364965572E+03  0.23499921661E+03  0.00000000000E+00 0.  1.
         22    1    1    2    0    0 -0.10696598720E+03 -0.15585418478E+02 -0.47610333659E+03  0.48822025234E+03  0.00000000000E+00 0.  1.
         22    1    1    2    0    0  0.16118778370E+02  0.53263820162E+01 -0.46671004256E+01  0.17605885036E+02  0.00000000000E+00 0. -1.
</event>
<event>
 6    1  0.2809573E-005  0.8655720E+02  0.7818608E-02  0.1335077E+00
          2   -1    0    0  502    0  0.00000000000E+00  0.00000000000E+00  0.18658649069E+03  0.18658649069E+03  0.00000000000E+00 0.  1.
          1   -1    0    0  501    0 -0.00000000000E+00 -0.00000000000E+00 -0.16396259254E+04  0.16396259254E+04  0.00000000000E+00 0.  1.
          2    1    1    2  501    0 -0.26333991749E+02  0.77044405360E+01 -0.35781033220E+01  0.27670206880E+02  0.00000000000E+00 0.  1.
          1    1    1    2  502    0  0.20129771056E+02 -0.17345897786E+02 -0.16030044805E+04  0.16032247042E+04  0.00000000000E+00 0.  1.
         22    1    1    2    0    0  0.12981370910E+01 -0.49756837411E+02  0.29912788224E+02  0.58070671844E+02  0.00000000000E+00 0. -1.
         22    1    1    2    0    0  0.49060836018E+01  0.59398294661E+02  0.12363036088E+03  0.13724683310E+03  0.00000000000E+00 0.  1.
</event>
<event>
 6    1  0.2809573E-005  0.2908226E+03  0.7818608E-02  0.1186007E+00
          2   -1    0    0  502    0  0.00000000000E+00  0.00000000000E+00  0.67609571163E+03  0.67609571163E+03  0.00000000000E+00 0.  1.
          1   -1    0    0  501    0 -0.00000000000E+00 -0.00000000000E+00 -0.82787691191E+02  0.82787691191E+02  0.00000000000E+00 0.  1.
          2    1    1    2  501    0  0.61773297101E+02  0.11941734364E+02  0.23019310091E+02  0.66995775176E+02  0.00000000000E+00 0.  1.
          1    1    1    2  502    0  0.13537138606E+03 -0.53181565929E+02  0.14743359291E+03  0.20709986826E+03  0.00000000000E+00 0.  1.
         22    1    1    2    0    0 -0.19685706812E+03  0.69520891175E+02  0.36956143330E+03  0.42445437041E+03  0.00000000000E+00 0.  1.
         22    1    1    2    0    0 -0.28761503412E+00 -0.28281059610E+02  0.53293684141E+02  0.60333388969E+02  0.00000000000E+00 0. -1.
</event>
<event>
 6    1  0.2809573E-005  0.1144404E+03  0.7818608E-02  0.1255114E+00
          2   -1    0    0  502    0  0.00000000000E+00  0.00000000000E+00  0.10757411542E+03  0.10757411542E+03  0.00000000000E+00 0. -1.
          1   -1    0    0  501    0 -0.00000000000E+00 -0.00000000000E+00 -0.92064278177E+03  0.92064278177E+03  0.00000000000E+00 0. -1.
          2    1    1    2  501    0  0.70881180648E+02 -0.41377358732E+02 -0.14362568267E+02  0.83321731577E+02  0.00000000000E+00 0. -1.
          1    1    1    2  502    0 -0.46061902324E+02 -0.35138982864E+02 -0.79359388430E+03  0.79570578743E+03  0.00000000000E+00 0. -1.
         22    1    1    2    0    0 -0.70415408282E+02  0.75625905506E+02 -0.67738165764E+01  0.10355429445E+03  0.00000000000E+00 0. -1.
         22    1    1    2    0    0  0.45596129958E+02  0.89043608978E+00  0.16616027886E+01  0.45635083734E+02  0.00000000000E+00 0. -1.
</event>
<event>
 6    1  0.2809573E-005  0.1137881E+03  0.7818608E-02  0.1326984E+00
          2   -1    0    0  502    0  0.00000000000E+00  0.00000000000E+00  0.21689533597E+02  0.21689533597E+02  0.00000000000E+00 0. -1.
          1   -1    0    0  501    0 -0.00000000000E+00 -0.00000000000E+00 -0.10617929689E+04  0.10617929689E+04  0.00000000000E+00 0. -1.
          2    1    1    2  501    0  0.17322073117E+01  0.50640388193E+02 -0.25851850824E+03  0.26343740919E+03  0.00000000000E+00 0. -1.
          1    1    1    2  502    0 -0.18695693948E+02  0.32505605542E+02 -0.49749018657E+03  0.49890142222E+03  0.00000000000E+00 0. -1.
         22    1    1    2    0    0 -0.78820517042E+01 -0.27736389356E+02  0.17810136757E+01  0.28889549033E+02  0.00000000000E+00 0. -1.
         22    1    1    2    0    0  0.24845538340E+02 -0.55409604378E+02 -0.28587575416E+03  0.29225412204E+03  0.00000000000E+00 0. -1.
</event>
<event>
 6    1  0.2809573E-005  0.2446492E+03  0.7818608E-02  0.1157717E+00
          2   -1    0    0  502    0  0.00000000000E+00  0.00000000000E+00  0.19659294103E+03  0.19659294103E+03  0.00000000000E+00 0. -1.
          1   -1    0    0  501    0 -0.00000000000E+00 -0.00000000000E+00 -0.41001131074E+03  0.41001131074E+03  0.00000000000E+00 0. -1.
          2    1    1    2  501    0  0.21387654413E+03 -0.66350262213E+02 -0.13487013625E+03  0.26141057186E+03  0.00000000000E+00 0. -1.
          1    1    1    2  502    0 -0.15561257114E+03 -0.36613612343E+02 -0.59489262137E+02  0.17057198251E+03  0.00000000000E+00 0. -1.
         22    1    1    2    0    0 -0.13903295875E+02  0.24014057194E+02 -0.66738854286E+02  0.72277598538E+02  0.00000000000E+00 0. -1.
         22    1    1    2    0    0 -0.44360677118E+02  0.78949817362E+02  0.47679882955E+02  0.10234409887E+03  0.00000000000E+00 0. -1.
</event>
<event>
 6    1  0.2809573E-005  0.7170346E+02  0.7818608E-02  0.1471625E+00
          2   -1    0    0  502    0  0.00000000000E+00  0.00000000000E+00  0.31674490222E+03  0.31674490222E+03  0.00000000000E+00 0. -1.
          1   -1    0    0  501    0 -0.00000000000E+00 -0.00000000000E+00 -0.14567544634E+03  0.14567544634E+03  0.00000000000E+00 0. -1.
          2    1    1    2  501    0 -0.27580249737E+02 -0.23323715481E+02 -0.34310970200E+02  0.49818757065E+02  0.00000000000E+00 0. -1.
          1    1    1    2  502    0  0.33889949153E+02  0.41187067112E+02  0.26506428041E+03  0.27037746929E+03  0.00000000000E+00 0. -1.
         22    1    1    2    0    0  0.44050851782E+01 -0.22209478179E+02 -0.98838031224E+02  0.10139833388E+03  0.00000000000E+00 0. -1.
         22    1    1    2    0    0 -0.10714784594E+02  0.43461265491E+01  0.39154176890E+02  0.40825788330E+02  0.00000000000E+00 0.  1.
</event>
<event>
 6    1  0.2809573E-005  0.1636123E+03  0.7818608E-02  0.1232539E+00
          2   -1    0    0  502    0  0.00000000000E+00  0.00000000000E+00  0.44643893746E+03  0.44643893746E+03  0.00000000000E+00 0. -1.
          1   -1    0    0  501    0 -0.00000000000E+00 -0.00000000000E+00 -0.37135072331E+03  0.37135072331E+03  0.00000000000E+00 0.  1.
          2    1    1    2  501    0  0.76012895973E+02  0.38008334713E+02  0.34116338749E+02  0.91577936379E+02  0.00000000000E+00 0. -1.
          1    1    1    2  502    0 -0.13521193030E+03 -0.56038776199E+02 -0.31345235716E+03  0.34594073299E+03  0.00000000000E+00 0.  1.
         22    1    1    2    0    0  0.34046494515E+02 -0.35022198797E+02  0.48750677408E+02  0.69009758332E+02  0.00000000000E+00 0.  1.
         22    1    1    2    0    0  0.25152539813E+02  0.53052640282E+02  0.30567355514E+03  0.31126123307E+03  0.00000000000E+00 0. -1.
</event>
<event>
 6    1  0.2809573E-005  0.2837483E+03  0.7818608E-02  0.1203784E+00
          2   -1    0    0  502    0  0.00000000000E+00  0.00000000000E+00  0.18923758418E+03  0.18923758418E+03  0.00000000000E+00 0.  1.
          1   -1    0    0  501    0 -0.00000000000E+00 -0.00000000000E+00 -0.60801522026E+03  0.60801522026E+03  0.00000000000E+00 0. -1.
          2    1    1    2  501    0 -0.21449519085E+02 -0.73779514186E+01 -0.10530220332E+03  0.10771754759E+03  0.00000000000E+00 0.  1.
          1    1    1    2  502    0 -0.13292818326E+03  0.55154998800E+02 -0.43016501699E+03  0.45360105560E+03  0.00000000000E+00 0. -1.
         22    1    1    2    0    0 -0.11680321368E+02 -0.17001741355E+02  0.50483577460E+02  0.54535132800E+02  0.00000000000E+00 0. -1.
         22    1    1    2    0    0  0.16605802372E+03 -0.30775306026E+02  0.66206006761E+02  0.18139906845E+03  0.00000000000E+00 0.  1.
</event>
<event>
 6    1  0.2809573E-005  0.1321845E+03  0.7818608E-02  0.1276721E+00
          2   -1    0    0  502    0  0.00000000000E+00  0.00000000000E+00  0.11706436405E+03  0.11706436405E+03  0.00000000000E+00 0.  1.
          1   -1    0    0  501    0 -0.00000000000E+00 -0.00000000000E+00 -0.13282122193E+04  0.13282122193E+04  0.00000000000E+00 0. -1.
          2    1    1    2  501    0 -0.40982201268E+02  0.93603002154E+01 -0.30950748752E+02  0.52202537191E+02  0.00000000000E+00 0.  1.
          1    1    1    2  502    0  0.20577403350E+02  0.89572419377E+01 -0.12451127359E+04  0.12453149749E+04  0.00000000000E+00 0. -1.
         22    1    1    2    0    0 -0.15971118707E+02 -0.14839172842E+02  0.96823204673E+02  0.99247219843E+02  0.00000000000E+00 0.  1.
         22    1    1    2    0    0  0.36375916624E+02 -0.34783693112E+01 -0.31907575260E+02  0.48511851359E+02  0.00000000000E+00 0.  1.
</event>
<event>
 6    1  0.2809573E-005  0.3040797E+03  0.7818608E-02  0.1164546E+00
          2   -1    0    0  502    0  0.00000000000E+00  0.00000000000E+00  0.41882002132E+03  0.41882002132E+03  0.00000000000E+00 0.  1.
          1   -1    0    0  501    0 -0.00000000000E+00 -0.00000000000E+00 -0.11888357326E+04  0.11888357326E+04  0.00000000000E+00 0.  1.
          2    1    1    2  501    0  0.19447104635E+03 -0.20439395504E+03  0.23243709142E+01  0.28213698699E+03  0.00000000000E+00 0.  1.
          1    1    1    2  502    0 -0.15751741093E+03  0.24650345294E+03 -0.10102127739E+04  0.10517155202E+04  0.00000000000E+00 0.  1.
         22    1    1    2    0    0  0.32463309517E+01 -0.40231803278E+02  0.89146643898E+01  0.41335310581E+02  0.00000000000E+00 0. -1.
         22    1    1    2    0    0 -0.40199966371E+02 -0.18776946141E+01  0.22895802731E+03  0.23246793607E+03  0.00000000000E+00 0.  1.
</event>
<event>
 6    1  0.2809573E-005  0.1011801E+03  0.7818608E-02  0.1279028E+00
          2   -1    0    0  502    0  0.00000000000E+00  0.00000000000E+00  0.18426609800E+03  0.18426609800E+03  0.00000000000E+00 0. -1.
          1   -1    0    0  501    0 -0.00000000000E+00 -0.00000000000E+00 -0.45872253283E+03  0.45872253283E+03  0.00000000000E+00 0.  1.
          2    1    1    2  501    0  0.59597149728E+02  0.99766994907E+02 -0.11521769732E+03  0.16364715489E+03  0.00000000000E+00 0. -1.
          1    1    1    2  502    0 -0.37271439911E+02 -0.29762843026E+02 -0.28472109666E+03  0.28868856912E+03  0.00000000000E+00 0.  1.
         22    1    1    2    0    0 -0.33318608982E+02 -0.89288346839E+02  0.13601760074E+03  0.16608228773E+03  0.00000000000E+00 0. -1.
         22    1    1    2    0    0  0.10992899165E+02  0.19284194958E+02 -0.10535241572E+02  0.24570619085E+02  0.00000000000E+00 0.  1.
</event>
<event>
 6    1  0.2809573E-005  0.1337736E+03  0.7818608E-02  0.1222559E+00
          2   -1    0    0  502    0  0.00000000000E+00  0.00000000000E+00  0.63808870443E+03  0.63808870443E+03  0.00000000000E+00 0. -1.
          1   -1    0    0  501    0 -0.00000000000E+00 -0.00000000000E+00 -0.25454841862E+03  0.25454841862E+03  0.00000000000E+00 0. -1.
          2    1    1    2  501    0  0.12123744778E+02  0.10343154242E+03  0.23755154117E+03  0.25937579661E+03  0.00000000000E+00 0. -1.
          1    1    1    2  502    0  0.19996778182E+02  0.15342686309E+01 -0.22614201358E+03  0.22702959152E+03  0.00000000000E+00 0. -1.
         22    1    1    2    0    0  0.56214423964E+01  0.24784415810E+02  0.37032056912E+02  0.44913707494E+02  0.00000000000E+00 0.  1.
         22    1    1    2    0    0 -0.37741965356E+02 -0.12975022686E+03  0.33509870131E+03  0.36131802742E+03  0.00000000000E+00 0. -1.
</event>
<event>
 6    1  0.2809573E-005  0.1175090E+03  0.7818608E-02  0.1277688E+00
          2   -1    0    0  502    0  0.00000000000E+00  0.00000000000E+00  0.12605544504E+03  0.12605544504E+03  0.00000000000E+00 0. -1.
          1   -1    0    0  501    0 -0.00000000000E+00 -0.00000000000E+00 -0.12598953680E+03  0.12598953680E+03  0.00000000000E+00 0. -1.
          2    1    1    2  501    0  0.16977476896E+02  0.14820591399E+02 -0.66667319197E+02  0.70373404778E+02  0.00000000000E+00 0. -1.
          1    1    1    2  502    0  0.18640102567E+02 -0.12946611200E+02  0.50442504089E+02  0.55312877200E+02  0.00000000000E+00 0. -1.
         22    1    1    2    0    0 -0.20363161611E+02  0.58886126726E+02  0.12848028776E+02  0.63618441626E+02  0.00000000000E+00 0.  1.
         22    1    1    2    0    0 -0.15254417852E+02 -0.60760106924E+02  0.34426945793E+01  0.62740258235E+02  0.00000000000E+00 0. -1.
</event>
<event>
 6    1  0.2809573E-005  0.1114774E+03  0.7818608E-02  0.1260277E+00
          2   -1    0    0  502    0  0.00000000000E+00  0.00000000000E+00  0.16263036563E+03  0.16263036563E+03  0.00000000000E+00 0.  1.
          1   -1    0    0  501    0 -0.00000000000E+00 -0.00000000000E+00 -0.31366418001E+03  0.31366418001E+03  0.00000000000E+00 0. -1.
          2    1    1    2  501    0  0.10449424639E+01  0.10196372289E+03  0.70087401451E+02  0.12373332830E+03  0.00000000000E+00 0.  1.
          1    1    1    2  502    0 -0.37526028252E+02 -0.58947560724E+02 -0.20716215977E+03  0.21863023156E+03  0.00000000000E+00 0. -1.
         22    1    1    2    0    0  0.37349232152E+02 -0.64083067243E+02 -0.51898294495E+02  0.90526447081E+02  0.00000000000E+00 0.  1.
         22    1    1    2    0    0 -0.86814636383E+00  0.21066905079E+02  0.37939238422E+02  0.43404538700E+02  0.00000000000E+00 0.  1.
</event>
<event>
 6    1  0.2809573E-005  0.1188719E+03  0.7818608E-02  0.1290375E+00
          2   -1    0    0  502    0  0.00000000000E+00  0.00000000000E+00  0.30366168367E+02  0.30366168367E+02  0.00000000000E+00 0. -1.
          1   -1    0    0  501    0 -0.00000000000E+00 -0.00000000000E+00 -0.64448309581E+03  0.64448309581E+03  0.00000000000E+00 0. -1.
          2    1    1    2  501    0  0.36164162115E+02 -0.10627889395E+02 -0.18244484135E+03  0.18629793018E+03  0.00000000000E+00 0. -1.
          1    1    1    2  502    0 -0.80256456665E+02  0.12911938218E+02 -0.25659286880E+03  0.26916113632E+03  0.00000000000E+00 0. -1.
         22    1    1    2    0    0  0.74220833732E+02  0.36641091004E+02 -0.11575103137E+03  0.14230109969E+03  0.00000000000E+00 0. -1.
         22    1    1    2    0    0 -0.30128539182E+02 -0.38925139827E+02 -0.59328185927E+02  0.77089097992E+02  0.00000000000E+00 0. -1.
</event>
<event>
 6    1  0.2809573E-005  0.9028412E+02  0.7818608E-02  0.1348630E+00
          2   -1    0    0  502    0  0.00000000000E+00  0.00000000000E+00  0.19419172929E+03  0.19419172929E+03  0.00000000000E+00 0. -1.
          1   -1    0    0  501    0 -0.00000000000E+00 -0.00000000000E+00 -0.14042851181E+03  0.14042851181E+03  0.00000000000E+00 0. -1.
          2    1    1    2  501    0  0.22160392692E+02 -0.20710275241E+02 -0.17705834436E+01  0.30383111601E+02  0.00000000000E+00 0. -1.
          1    1    1    2  502    0 -0.80432406122E+02  0.61598086985E+02 -0.62391623197E+02  0.11898071659E+03  0.00000000000E+00 0. -1.
         22    1    1    2    0    0  0.45640820615E+02 -0.33323369816E+01 -0.13722125244E+02  0.47775367057E+02  0.00000000000E+00 0. -1.
         22    1    1    2    0    0  0.12631192815E+02 -0.37555474762E+02  0.13164754936E+03  0.13748104585E+03  0.00000000000E+00 0. -1.
</event>
<event>
 6    1  0.2809573E-005  0.2612576E+03  0.7818608E-02  0.1213189E+00
          2   -1    0    0  502    0  0.00000000000E+00  0.00000000000E+00  0.53454815963E+02  0.53454815963E+02  0.00000000000E+00 0.  1.
          1   -1    0    0  501    0 -0.00000000000E+00 -0.00000000000E+00 -0.15194559194E+04  0.15194559194E+04  0.00000000000E+00 0.  1.
          2    1    1    2  501    0 -0.13227513140E+03  0.62508789098E+02 -0.56309270068E+03  0.58178814757E+03  0.00000000000E+00 0.  1.
          1    1    1    2  502    0  0.16648051032E+03 -0.16534605797E+03 -0.62485366504E+03  0.66745575278E+03  0.00000000000E+00 0.  1.
         22    1    1    2    0    0 -0.12734293588E+02  0.10525786795E+03 -0.28238213737E+03  0.30163065578E+03  0.00000000000E+00 0. -1.
         22    1    1    2    0    0 -0.21471085339E+02 -0.24205990792E+01  0.43273996877E+01  0.22036179197E+02  0.00000000000E+00 0.  1.
</event>
<event>
 6    1  0.2809573E-005  0.1997127E+03  0.7818608E-02  0.1274831E+00
          2   -1    0    0  502    0  0.00000000000E+00  0.00000000000E+00  0.70460117959E+02  0.70460117959E+02  0.00000000000E+00 0. -1.
          1   -1    0    0  501    0 -0.00000000000E+00 -0.00000000000E+00 -0.11806474034E+04  0.11806474034E+04  0.00000000000E+00 0.  1.
          2    1    1    2  501    0  0.99378975914E+02  0.45701317975E+02 -0.87473557408E+02  0.14005861117E+03  0.00000000000E+00 0. -1.
          1    1    1    2  502    0 -0.18119101895E+03 -0.40612156926E+02 -0.89206826975E+03  0.91118896533E+03  0.00000000000E+00 0.  1.
         22    1    1    2    0    0  0.93711056622E+02  0.21646262780E+01 -0.14947479119E+03  0.17643457978E+03  0.00000000000E+00 0. -1.
         22    1    1    2    0    0 -0.11899013587E+02 -0.72537873276E+01  0.18829332865E+02  0.23425365122E+02  0.00000000000E+00 0. -1.
</event>
<event>
 6    1  0.2809573E-005  0.7567997E+02  0.7818608E-02  0.1349291E+00
          2   -1    0    0  502    0  0.00000000000E+00  0.00000000000E+00  0.65744512164E+03  0.65744512164E+03  0.00000000000E+00 0.  1.
          1   -1    0    0  501    0 -0.00000000000E+00 -0.00000000000E+00 -0.59881168659E+02  0.59881168659E+02  0.00000000000E+00 0.  1.
          2    1    1    2  501    0 -0.24725091628E+02  0.39521481947E+02  0.11102269392E+03  0.12041310666E+03  0.00000000000E+00 0.  1.
          1    1    1    2  502    0  0.35481337082E+02 -0.38730567081E+02 -0.33979443569E+02  0.62558650024E+02  0.00000000000E+00 0.  1.
         22    1    1    2    0    0 -0.16107385398E+02 -0.57330371798E+02  0.33788539621E+03  0.34309293256E+03  0.00000000000E+00 0.  1.
         22    1    1    2    0    0  0.53511399436E+01  0.56539456932E+02  0.18263530642E+03  0.19126160106E+03  0.00000000000E+00 0.  1.
</event>
<event>
 6    1  0.2809573E-005  0.1550809E+03  0.7818608E-02  0.1263576E+00
          2   -1    0    0  502    0  0.00000000000E+00  0.00000000000E+00  0.68139804166E+03  0.68139804166E+03  0.00000000000E+00 0.  1.
          1   -1    0    0  501    0 -0.00000000000E+00 -0.00000000000E+00 -0.19206713913E+03  0.19206713913E+03  0.00000000000E+00 0. -1.
          2    1    1    2  501    0 -0.16998661957E+02  0.27582910169E+02  0.92405085548E+02  0.97920739768E+02  0.00000000000E+00 0.  1.
          1    1    1    2  502    0  0.11803216024E+03  0.17969257942E+02 -0.15657054136E+03  0.19689799263E+03  0.00000000000E+00 0. -1.
         22    1    1    2    0    0 -0.21047663374E+01  0.36950161424E+02  0.83853661272E+02  0.91657956443E+02  0.00000000000E+00 0.  1.
         22    1    1    2    0    0 -0.98928731942E+02 -0.82502329535E+02  0.46964269706E+03  0.48698849195E+03  0.00000000000E+00 0.  1.
</event>
<event>
 6    1  0.2809573E-005  0.9770572E+02  0.7818608E-02  0.1288605E+00
          2   -1    0    0  502    0  0.00000000000E+00  0.00000000000E+00  0.21367663041E+02  0.21367663041E+02  0.00000000000E+00 0. -1.
          1   -1    0    0  501    0 -0.00000000000E+00 -0.00000000000E+00 -0.16789395791E+04  0.16789395791E+04  0.00000000000E+00 0. -1.
          2    1    1    2  501    0  0.17686350361E+02  0.36813237128E+02 -0.31813990882E+03  0.32075071785E+03  0.00000000000E+00 0. -1.
          1    1    1    2  502    0  0.47090535546E+01  0.22530728171E+02 -0.11090598428E+04  0.11092986721E+04  0.00000000000E+00 0. -1.
         22    1    1    2    0    0  0.21224133448E+02  0.27182389155E+02 -0.11250985096E+03  0.11767672958E+03  0.00000000000E+00 0.  1.
         22    1    1    2    0    0 -0.43619537365E+02 -0.86526354454E+02 -0.11786231347E+03  0.15258112266E+03  0.00000000000E+00 0. -1.
</event>
<event>
 6    1  0.2809573E-005  0.1481262E+03  0.7818608E-02  0.1231705E+00
          2   -1    0    0  502    0  0.00000000000E+00  0.00000000000E+00  0.39511471687E+02  0.39511471687E+02  0.00000000000E+00 0. -1.
          1   -1    0    0  501    0 -0.00000000000E+00 -0.00000000000E+00 -0.78634241886E+03  0.78634241886E+03  0.00000000000E+00 0. -1.
          2    1    1    2  501    0  0.21555965025E+02 -0.31321779690E+02 -0.47509316753E+03  0.47661224423E+03  0.00000000000E+00 0. -1.
          1    1    1    2  502    0  0.27415743612E+02  0.40700925211E+02 -0.18105067114E+03  0.18758340500E+03  0.00000000000E+00 0. -1.
         22    1    1    2    0    0  0.25032230645E+02 -0.42813543926E+02 -0.51479143658E+02  0.71482265957E+02  0.00000000000E+00 0. -1.
         22    1    1    2    0    0 -0.74003939281E+02  0.33434398404E+02 -0.39207964844E+02  0.90175975365E+02  0.00000000000E+00 0. -1.
</event>
<event>
 6    1  0.2809573E-005  0.7055125E+02  0.7818608E-02  0.1408553E+00
          2   -1    0    0  502    0  0.00000000000E+00  0.00000000000E+00  0.10784048756E+03  0.10784048756E+03  0.00000000000E+00 0. -1.
          1   -1    0    0  501    0 -0.00000000000E+00 -0.00000000000E+00 -0.11337047032E+03  0.11337047032E+03  0.00000000000E+00 0.  1.
          2    1    1    2  501    0 -0.27838269327E+02 -0.11078455406E+02 -0.32145069792E+01  0.30133610278E+02  0.00000000000E+00 0. -1.
          1    1    1    2  502    0  0.43424230894E+02  0.58005032898E+01 -0.36015243893E+02  0.56713379902E+02  0.00000000000E+00 0.  1.
         22    1    1    2    0    0  0.98313469116E+01  0.23315667693E+02 -0.43938290576E+02  0.50703541501E+02  0.00000000000E+00 0. -1.
         22    1    1    2    0    0 -0.25417308479E+02 -0.18037715577E+02  0.77638058698E+02  0.83660426200E+02  0.00000000000E+00 0. -1.
</event>
<event>
 6    1  0.2809573E-005  0.1039087E+03  0.7818608E-02  0.1377595E+00
          2   -1    0    0  502    0  0.00000000000E+00  0.00000000000E+00  0.90256943607E+02  0.90256943607E+02  0.00000000000E+00 0.  1.
          1   -1    0    0  501    0 -0.00000000000E+00 -0.00000000000E+00 -0.23275837217E+03  0.23275837217E+03  0.00000000000E+00 0.  1.
          2    1    1    2  501    0  0.18306936364E+02 -0.96252335345E+01 -0.36684957204E+02  0.42113835312E+02  0.00000000000E+00 0.  1.
          1    1    1    2  502    0 -0.90650215561E+02  0.16658483301E+02 -0.10590388732E+03  0.14039444432E+03  0.00000000000E+00 0.  1.
         22    1    1    2    0    0 -0.97206134268E+01  0.12720448883E+02  0.42952208776E+02  0.45838765078E+02  0.00000000000E+00 0.  1.
         22    1    1    2    0    0  0.82063892624E+02 -0.19753698649E+02 -0.42864792814E+02  0.94668271062E+02  0.00000000000E+00 0.  1.
</event>
<event>
 6    1  0.2809573E-005  0.6536485E+02  0.7818608E-02  0.1393487E+00
          2   -1    0    0  502    0  0.00000000000E+00  0.00000000000E+00  0.31506880048E+03  0.31506880048E+03  0.00000000000E+00 0.  1.
          1   -1    0    0  501    0 -0.00000000000E+00 -0.00000000000E+00 -0.12689315799E+04  0.12689315799E+04  0.00000000000E+00 0. -1.
          2    1    1    2  501    0  0.24971118015E+02  0.21263736792E+02  0.36416617278E+02  0.49008909917E+02  0.00000000000E+00 0.  1.
          1    1    1    2  502    0 -0.53639427558E+02 -0.17388179609E+02 -0.12478430522E+04  0.12491164157E+04  0.00000000000E+00 0. -1.
         22    1    1    2    0    0  0.70786490773E+02  0.22571252541E+02  0.15580813952E+03  0.17261623637E+03  0.00000000000E+00 0.  1.
         22    1    1    2    0    0 -0.42118181230E+02 -0.26446809724E+02  0.10175551594E+03  0.11325881846E+03  0.00000000000E+00 0.  1.
</event>
<event>
 6    1  0.2809573E-005  0.8299599E+02  0.7818608E-02  0.1377487E+00
          2   -1    0    0  502    0  0.00000000000E+00  0.00000000000E+00  0.25099362817E+03  0.25099362817E+03  0.00000000000E+00 0.  1.
          1   -1    0    0  501    0 -0.00000000000E+00 -0.00000000000E+00 -0.15468493910E+03  0.15468493910E+03  0.00000000000E+00 0. -1.
          2    1    1    2  501    0  0.28359729638E+02  0.98022777185E+01  0.41862555827E+02  0.51505654971E+02  0.00000000000E+00 0.  1.
          1    1    1    2  502    0 -0.56469658992E+02  0.16318346679E+02 -0.12175791469E+03  0.13520392233E+03  0.00000000000E+00 0. -1.
         22    1    1    2    0    0 -0.17716403732E+02  0.26012083474E+02  0.13419377727E+03  0.13783493500E+03  0.00000000000E+00 0.  1.
         22    1    1    2    0    0  0.45826333086E+02 -0.52132707872E+02  0.42010270666E+02  0.81134054968E+02  0.00000000000E+00 0.  1.
</event>
<event>
 6    1  0.2809573E-005  0.8323581E+02  0.7818608E-02  0.1322553E+00
          2   -1    0    0  502    0  0.00000000000E+00  0.00000000000E+00  0.36565637036E+03  0.36565637036E+03  0.00000000000E+00 0.  1.
          1   -1    0    0  501    0 -0.00000000000E+00 -0.00000000000E+00 -0.42501170140E+02  0.42501170140E+02  0.00000000000E+00 0.  1.
          2    1    1    2  501    0 -0.49223265712E+01 -0.36589797780E+02  0.73027223873E+02  0.81829200332E+02  0.00000000000E+00 0.  1.
          1    1    1    2  502    0 -0.29648205037E+02 -0.16366192095E+02 -0.50389983855E+01  0.34238279898E+02  0.00000000000E+00 0.  1.
         22    1    1    2    0    0  0.11009812460E+02 -0.37779856066E+02  0.12925555272E+03  0.13511303195E+03  0.00000000000E+00 0. -1.
         22    1    1    2    0    0  0.23560719148E+02  0.90735845941E+02  0.12591142201E+03  0.15697702831E+03  0.00000000000E+00 0.  1.
</event>
<event>
 6    1  0.2809573E-005  0.2350000E+03  0.7818608E-02  0.1160275E+00
          2   -1    0    0  502    0  0.00000000000E+00  0.00000000000E+00  0.62431340023E+03  0.62431340023E+03  0.00000000000E+00 0.  1.
          1   -1    0    0  501    0 -0.00000000000E+00 -0.00000000000E+00 -0.91046670075E+03  0.91046670075E+03  0.00000000000E+00 0.  1.
          2    1    1    2  501    0 -0.44402638556E+02 -0.13539884795E+03  0.22341418792E+03  0.26498743687E+03  0.00000000000E+00 0.  1.
          1    1    1    2  502    0 -0.21889421836E+02  0.12496264165E+02 -0.86598435265E+03  0.86635108498E+03  0.00000000000E+00 0.  1.
         22    1    1    2    0    0 -0.26373655892E+02  0.84550489603E+02  0.15857248224E+03  0.18163035854E+03  0.00000000000E+00 0.  1.
         22    1    1    2    0    0  0.92665716284E+02  0.38352094182E+02  0.19784438197E+03  0.22181122059E+03  0.00000000000E+00 0.  1.
</event>
<event>
 6    1  0.2809573E-005  0.1975420E+03  0.7818608E-02  0.1213853E+00
          2   -1    0    0  502    0  0.00000000000E+00  0.00000000000E+00  0.61857730085E+03  0.61857730085E+03  0.00000000000E+00 0. -1.
          1   -1    0    0  501    0 -0.00000000000E+00 -0.00000000000E+00 -0.83931548871E+02  0.83931548871E+02  0.00000000000E+00 0. -1.
          2    1    1    2  501    0  0.69980873586E+02  0.10104165496E+03  0.22083749820E+02  0.12487766298E+03  0.00000000000E+00 0. -1.
          1    1    1    2  502    0 -0.82043997477E+02 -0.82087301664E+02  0.37453888822E+03  0.39210830316E+03  0.00000000000E+00 0. -1.
         22    1    1    2    0    0  0.50329322019E+02 -0.50011971883E+02  0.58465883128E+02  0.91937465032E+02  0.00000000000E+00 0. -1.
         22    1    1    2    0    0 -0.38266198127E+02  0.31057618586E+02  0.79557230815E+02  0.93585418556E+02  0.00000000000E+00 0.  1.
</event>
<event>
 6    1  0.2809573E-005  0.1837192E+03  0.7818608E-02  0.1266072E+00
          2   -1    0    0  502    0  0.00000000000E+00  0.00000000000E+00  0.52141149882E+03  0.52141149882E+03  0.00000000000E+00 0. -1.
          1   -1    0    0  501    0 -0.00000000000E+00 -0.00000000000E+00 -0.11975830158E+03  0.11975830158E+03  0.00000000000E+00 0.  1.
          2    1    1    2  501    0 -0.12570700381E+02 -0.58619245927E+02  0.14651400562E+03  0.15830537686E+03  0.00000000000E+00 0. -1.
          1    1    1    2  502    0  0.34044550254E+02 -0.46786419274E+02 -0.86304826075E+02  0.10390632047E+03  0.00000000000E+00 0.  1.
         22    1    1    2    0    0 -0.28372437973E+02  0.12545466459E+03  0.21336133833E+03  0.24913235197E+03  0.00000000000E+00 0. -1.
         22    1    1    2    0    0  0.68985880995E+01 -0.20048999392E+02  0.12808267937E+03  0.12982575110E+03  0.00000000000E+00 0. -1.
</event>
<event>
 6    1  0.2809573E-005  0.9815440E+02  0.7818608E-02  0.1303014E+00
          2   -1    0    0  502    0  0.00000000000E+00  0.00000000000E+00  0.21387647745E+03  0.21387647745E+03  0.00000000000E+00 0. -1.
          1   -1    0    0  501    0 -0.00000000000E+00 -0.00000000000E+00 -0.92178530185E+02  0.92178530185E+02  0.00000000000E+00 0.  1.
          2    1    1    2  501    0  0.24927050689E+02  0.30812134112E+02 -0.29213838825E+01  0.39740155364E+02  0.00000000000E+00 0. -1.
          1    1    1    2  502    0 -0.19205828008E+02 -0.48307066275E+02 -0.36721878994E+02  0.63646939270E+02  0.00000000000E+00 0.  1.
         22    1    1    2    0    0 -0.52953124632E+02 -0.24509344551E+02  0.64014949438E+02  0.86617868423E+02  0.00000000000E+00 0.  1.
         22    1    1    2    0    0  0.47231901951E+02  0.42004276714E+02  0.97326260704E+02  0.11605004458E+03  0.00000000000E+00 0. -1.
</event>
<event>
 6    1  0.2809573E-005  0.9875033E+02  0.7818608E-02  0.1342464E+00
          2   -1    0    0  502    0  0.00000000000E+00  0.00000000000E+00  0.16059823495E+03  0.16059823495E+03  0.00000000000E+00 0.  1.
          1   -1    0    0  501    0 -0.00000000000E+00 -0.00000000000E+00 -0.24679213083E+03  0.24679213083E+03  0.00000000000E+00 0. -1.
          2    1    1    2  501    0  0.77360252486E+01  0.32803067535E+02  0.25140875800E+01  0.33796567321E+02  0.00000000000E+00 0.  1.
          1    1    1    2  502    0  0.56636286844E+02 -0.69942898385E+02 -0.18197796638E+03  0.20301639902E+03  0.00000000000E+00 0. -1.
         22    1    1    2    0    0 -0.24429194179E+02 -0.23161623649E+02  0.92292394167E+02  0.98240176910E+02  0.00000000000E+00 0.  1.
         22    1    1    2    0    0 -0.39943117914E+02  0.60301454500E+02  0.97758874859E+00  0.72337222529E+02  0.00000000000E+00 0.  1.
</event>
<event>
 6    1  0.2809573E-005  0.1146388E+03  0.7818608E-02  0.1297273E+00
          2   -1    0    0  502    0  0.00000000000E+00  0.00000000000E+00  0.86486424210E+02  0.86486424210E+02  0.00000000000E+00 0.  1.
          1   -1    0    0  501    0 -0.00000000000E+00 -0.00000000000E+00 -0.41161296315E+04  0.41161296315E+04  0.00000000000E+00 0. -1.
          2    1    1    2  501    0 -0.75298925323E+02 -0.59316750675E+02 -0.43241475066E+02  0.10515812014E+03  0.00000000000E+00 0.  1.
          1    1    1    2  502    0  0.57114258436E+02  0.89281282985E+02 -0.39678642119E+04  0.39692794800E+04  0.00000000000E+00 0. -1.
         22    1    1    2    0    0  0.41218984326E+02  0.25111466129E+02  0.24937187705E+02  0.54327283483E+02  0.00000000000E+00 0.  1.
         22    1    1    2    0    0 -0.23034317439E+02 -0.55075998439E+02 -0.43474708004E+02  0.73851172095E+02  0.00000000000E+00 0.  1.
</event>
<event>
 6    1  0.2809573E-005  0.1471669E+03  0.7818608E-02  0.1255430E+00
          2   -1    0    0  502    0  0.00000000000E+00  0.00000000000E+00  0.52976193953E+02  0.52976193953E+02  0.00000000000E+00 0.  1.
          1   -1    0    0  501    0 -0.00000000000E+00 -0.00000000000E+00 -0.19255541761E+04  0.19255541761E+04  0.00000000000E+00 0. -1.
          2    1    1    2  501    0  0.10175827582E+02 -0.54490063746E+02 -0.12454757916E+03  0.13632613098E+03  0.00000000000E+00 0.  1.
          1    1    1    2  502    0 -0.51293944703E+02  0.13037338507E+02 -0.16915674699E+04  0.16923952098E+04  0.00000000000E+00 0. -1.
         22    1    1    2    0    0  0.57162325524E+02 -0.67832884517E+01  0.17407215165E+02  0.60137805093E+02  0.00000000000E+00 0.  1.
         22    1    1    2    0    0 -0.16044208403E+02  0.48236013691E+02 -0.73870148210E+02  0.89671224128E+02  0.00000000000E+00 0. -1.
</event>
<event>
 6    1  0.2809573E-005  0.1870518E+03  0.7818608E-02  0.1231916E+00
          2   -1    0    0  502    0  0.00000000000E+00  0.00000000000E+00  0.29598591181E+03  0.29598591181E+03  0.00000000000E+00 0.  1.
          1   -1    0    0  501    0 -0.00000000000E+00 -0.00000000000E+00 -0.11801947735E+03  0.11801947735E+03  0.00000000000E+00 0.  1.
          2    1    1    2  501    0 -0.38389035333E+02 -0.53563293277E+02  0.94188336651E+01  0.66569203450E+02  0.00000000000E+00 0.  1.
          1    1    1    2  502    0  0.62645474889E+02  0.16524590960E+01 -0.56765750355E+02  0.84554932195E+02  0.00000000000E+00 0.  1.
         22    1    1    2    0    0 -0.22909495279E+02  0.91686557898E+02  0.17324023975E+03  0.19734094998E+03  0.00000000000E+00 0.  1.
         22    1    1    2    0    0 -0.13469442776E+01 -0.39775723718E+02  0.52073111406E+02  0.65540303536E+02  0.00000000000E+00 0.  1.
</event>
<event>
 6    1  0.2809573E-005  0.7398002E+02  0.7818608E-02  0.1352792E+00
          2   -1    0    0  502    0  0.00000000000E+00  0.00000000000E+00  0.57056742162E+02  0.57056742162E+02  0.00000000000E+00 0. -1.
          1   -1    0    0  501    0 -0.00000000000E+00 -0.00000000000E+00 -0.55404244461E+03  0.55404244461E+03  0.00000000000E+00 0.  1.
          2    1    1    2  501    0  0.28907780828E+02  0.14837740034E+02 -0.13949441531E+02  0.35361069564E+02  0.00000000000E+00 0. -1.
          1    1    1    2  502    0  0.13064485752E+01 -0.56013612997E+02 -0.42880216669E+03  0.43244714105E+03  0.00000000000E+00 0.  1.
         22    1    1    2    0    0  0.34906882474E+02  0.21977039334E+02  0.17244285428E+02  0.44708456491E+02  0.00000000000E+00 0. -1.
         22    1    1    2    0    0 -0.65121111876E+02  0.19198833628E+02 -0.71478379657E+02  0.98582519663E+02  0.00000000000E+00 0.  1.
</event>
<event>
 6    1  0.2809573E-005  0.6425359E+02  0.7818608E-02  0.1423561E+00
          2   -1    0    0  502    0  0.00000000000E+00  0.00000000000E+00  0.11849157921E+03  0.11849157921E+03  0.00000000000E+00 0.  1.
          1   -1    0    0  501    0 -0.00000000000E+00 -0.00000000000E+00 -0.18418399225E+03  0.18418399225E+03  0.00000000000E+00 0.  1.
          2    1    1    2  501    0 -0.53581543014E+02 -0.25694698732E+01 -0.50930520531E+02  0.73969600842E+02  0.00000000000E+00 0.  1.
          1    1    1    2  502    0  0.36954445213E+02 -0.12285916095E+01 -0.80806249893E+02  0.88863887379E+02  0.00000000000E+00 0.  1.
         22    1    1    2    0    0 -0.38081330670E+00 -0.24143392892E+02 -0.29924552292E+02  0.38451622449E+02  0.00000000000E+00 0.  1.
         22    1    1    2    0    0  0.17007911107E+02  0.27941454375E+02  0.95968909677E+02  0.10139046078E+03  0.00000000000E+00 0.  1.
</event>
<event>
 6    1  0.2809573E-005  0.1729539E+03  0.7818608E-02  0.1251329E+00
          2   -1    0    0  502    0  0.00000000000E+00  0.00000000000E+00  0.67424509424E+02  0.67424509424E+02  0.00000000000E+00 0. -1.
          1   -1    0    0  501    0 -0.00000000000E+00 -0.00000000000E+00 -0.78982604024E+03  0.78982604024E+03  0.00000000000E+00 0.  1.
          2    1    1    2  501    0 -0.19749583667E+02 -0.22147307089E+02 -0.11857520983E+03  0.12223186840E+03  0.00000000000E+00 0. -1.
          1    1    1    2  502    0 -0.25360541278E+02  0.12071881922E+02 -0.60302233253E+03  0.60367608940E+03  0.00000000000E+00 0.  1.
         22    1    1    2    0    0  0.33097226103E+02  0.19589526721E+02 -0.59406633295E+02  0.70769513297E+02  0.00000000000E+00 0. -1.
         22    1    1    2    0    0  0.12012898843E+02 -0.95141015547E+01  0.58602644829E+02  0.60573078574E+02  0.00000000000E+00 0. -1.
</event>
<event>
 6    1  0.2809573E-005  0.9657666E+02  0.7818608E-02  0.1296164E+00
          2   -1    0    0  502    0  0.00000000000E+00  0.00000000000E+00  0.73331432508E+03  0.73331432508E+03  0.00000000000E+00 0. -1.
          1   -1    0    0  501    0 -0.00000000000E+00 -0.00000000000E+00 -0.24321483955E+02  0.24321483955E+02  0.00000000000E+00 0. -1.
          2    1    1    2  501    0 -0.54669103301E+02  0.46856255098E+00  0.23378622393E+03  0.24009358365E+03  0.00000000000E+00 0. -1.
          1    1    1    2  502    0  0.56983307548E+02  0.25318860653E+02  0.82417057762E+02  0.10334753724E+03  0.00000000000E+00 0. -1.
         22    1    1    2    0    0 -0.85837241078E+01 -0.68893189297E+02  0.33335060637E+03  0.34050341939E+03  0.00000000000E+00 0. -1.
         22    1    1    2    0    0  0.62695198605E+01  0.43105766093E+02  0.59438953059E+02  0.73691268754E+02  0.00000000000E+00 0. -1.
</event>
<event>
 6    1  0.2809573E-005  0.1298485E+03  0.7818608E-02  0.1228612E+00
          2   -1    0    0  502    0  0.00000000000E+00  0.00000000000E+00  0.67545789973E+03  0.67545789973E+03  0.00000000000E+00 0.  1.
          1   -1    0    0  501    0 -0.00000000000E+00 -0.00000000000E+00 -0.82129809063E+02  0.82129809063E+02  0.00000000000E+00 0.  1.
          2    1    1    2  501    0  0.11653473447E+03 -0.23240796092E+02 -0.75539901234E+01  0.11906948269E+03  0.00000000000E+00 0.  1.
          1    1    1    2  502    0 -0.13150616775E+02 -0.17250389869E+02  0.90026922250E+01  0.23485381400E+02  0.00000000000E+00 0.  1.
         22    1    1    2    0    0  0.15361518983E+02 -0.39296434879E+01  0.84107840503E+01  0.17948806416E+02  0.00000000000E+00 0. -1.
         22    1    1    2    0    0 -0.11874563668E+03  0.44420829449E+02  0.58346860452E+03  0.59708403829E+03  0.00000000000E+00 0.  1.
</event>
<event>
 6    1  0.2809573E-005  0.5431161E+02  0.7818608E-02  0.1482400E+00
          2   -1    0    0  502    0  0.00000000000E+00  0.00000000000E+00  0.39292869542E+02  0.39292869542E+02  0.00000000000E+00 0. -1.
          1   -1    0    0  501    0 -0.00000000000E+00 -0.00000000000E+00 -0.28206973204E+03  0.28206973204E+03  0.00000000000E+00 0. -1.
          2    1    1    2  501    0 -0.24414587464E+02  0.96859350093E+01 -0.66939523920E+02  0.71908200372E+02  0.00000000000E+00 0. -1.
          1    1    1    2  502    0  0.20928828810E+02  0.21278325372E+02 -0.93735904533E+02  0.98372774712E+02  0.00000000000E+00 0. -1.
         22    1    1    2    0    0 -0.19260729817E+02 -0.32984540365E+02 -0.10917461634E+03  0.11566353128E+03  0.00000000000E+00 0. -1.
         22    1    1    2    0    0  0.22746488471E+02  0.20202799841E+01  0.27073182295E+02  0.35418095213E+02  0.00000000000E+00 0. -1.
</event>
<event>
 6    1  0.2809573E-005  0.8188273E+02  0.7818608E-02  0.1329615E+00
          2   -1    0    0  502    0  0.00000000000E+00  0.00000000000E+00  0.20751698328E+03  0.20751698328E+03  0.00000000000E+00 0. -1.
          1   -1    0    0  501    0 -0.00000000000E+00 -0.00000000000E+00 -0.32802158531E+03  0.32802158531E+03  0.00000000000E+00 0. -1.
          2    1    1    2  501    0  0.45656072333E+02  0.20250624895E+02  0.34849834146E+01  0.50067053627E+02  0.00000000000E+00 0. -1.
          1    1    1    2  502    0 -0.66202615675E+01 -0.81614661834E+02 -0.26972372690E+03  0.28187882102E+03  0.00000000000E+00 0. -1.
         22    1    1    2    0    0 -0.59900949039E+02  0.57302467988E+02  0.15844905183E+03  0.17882337252E+03  0.00000000000E+00 0. -1.
         22    1    1    2    0    0  0.20865138273E+02  0.40615689510E+01 -0.12714910375E+02  0.24769321415E+02  0.00000000000E+00 0.  1.
</event>
<event>
 6    1  0.2809573E-005  0.3740183E+03  0.7818608E-02  0.1124428E+00
          2   -1    0    0  502    0  0.00000000000E+00  0.00000000000E+00  0.86892288617E+02  0.86892288617E+02  0.00000000000E+00 0.  1.
          1   -1    0    0  501    0 -0.00000000000E+00 -0.00000000000E+00 -0.27981968913E+04  0.27981968913E+04  0.00000000000E+00 0.  1.
          2    1    1    2  501    0 -0.14889350262E+02  0.23274597377E+02 -0.32935187579E+03  0.33050878615E+03  0.00000000000E+00 0.  1.
          1    1    1    2  502    0 -0.82351777887E+02 -0.26856959322E+03 -0.21844820396E+04  0.22024698008E+04  0.00000000000E+00 0.  1.
         22    1    1    2    0    0  0.11785014854E+03  0.19269284335E+03 -0.18992947546E+03  0.29511420677E+03  0.00000000000E+00 0.  1.
         22    1    1    2    0    0 -0.20609020393E+02  0.52602152489E+02 -0.75412117796E+01  0.56996386229E+02  0.00000000000E+00 0.  1.
</event>
<event>
 6    1  0.2809573E-005  0.4309640E+03  0.7818608E-02  0.1077362E+00
          2   -1    0    0  502    0  0.00000000000E+00  0.00000000000E+00  0.26691868939E+03  0.26691868939E+03  0.00000000000E+00 0.  1.
          1   -1    0    0  501    0 -0.00000000000E+00 -0.00000000000E+00 -0.10391881294E+04  0.10391881294E+04  0.00000000000E+00 0.  1.
          2    1    1    2  501    0  0.28984396465E+03 -0.19581085149E+03 -0.26873807111E+03  0.44110266863E+03  0.00000000000E+00 0.  1.
          1    1    1    2  502    0 -0.31965576709E+03  0.30113033651E+03 -0.53768864298E+03  0.69423941532E+03  0.00000000000E+00 0.  1.
         22    1    1    2    0    0 -0.49345564705E+01 -0.12496015289E+03  0.37905249438E+02  0.13067592583E+03  0.00000000000E+00 0.  1.
         22    1    1    2    0    0  0.34746358906E+02  0.19640667867E+02 -0.37479754095E+01  0.40088809051E+02  0.00000000000E+00 0. -1.
</event>
<event>
 6    1  0.2809573E-005  0.3015504E+03  0.7818608E-02  0.1157785E+00
          2   -1    0    0  502    0  0.00000000000E+00  0.00000000000E+00  0.28834103163E+03  0.28834103163E+03  0.00000000000E+00 0.  1.
          1   -1    0    0  501    0 -0.00000000000E+00 -0.00000000000E+00 -0.98980653593E+03  0.98980653593E+03  0.00000000000E+00 0.  1.
          2    1    1    2  501    0 -0.12355275113E+03  0.50434890155E+02 -0.32358225066E+02  0.13731720644E+03  0.00000000000E+00 0.  1.
          1    1    1    2  502    0  0.12641943170E+02 -0.64952866346E+02 -0.87262981470E+03  0.87513512504E+03  0.00000000000E+00 0.  1.
         22    1    1    2    0    0  0.10631991700E+02 -0.47098073211E+02  0.32938780931E+02  0.58448533232E+02  0.00000000000E+00 0. -1.
         22    1    1    2    0    0  0.10027881626E+03  0.61616049402E+02  0.17058375453E+03  0.20724670286E+03  0.00000000000E+00 0.  1.
</event>
<event>
 6    1  0.2809573E-005  0.4872354E+02  0.7818608E-02  0.1462659E+00
          2   -1    0    0  502    0  0.00000000000E+00  0.00000000000E+00  0.16249860274E+03  0.16249860274E+03  0.00000000000E+00 0. -1.
          1   -1    0    0  501    0 -0.00000000000E+00 -0.00000000000E+00 -0.11075454597E+03  0.11075454597E+03  0.00000000000E+00 0. -1.
          2    1    1    2  501    0  0.43229832779E+02 -0.11514640988E+02 -0.48630813342E+02  0.66078448874E+02  0.00000000000E+00 0. -1.
          1    1    1    2  502    0 -0.26167378053E+02  0.44035402460E+01  0.77421656822E+02  0.81842750357E+02  0.00000000000E+00 0. -1.
         22    1    1    2    0    0  0.23365541263E+02  0.10133877774E+02 -0.41792323847E+02  0.48941212998E+02  0.00000000000E+00 0. -1.
         22    1    1    2    0    0 -0.40427995989E+02 -0.30227770325E+01  0.64745537140E+02  0.76390736482E+02  0.00000000000E+00 0. -1.
</event>
<event>
 6    1  0.2809573E-005  0.5100098E+02  0.7818608E-02  0.1490789E+00
          2   -1    0    0  502    0  0.00000000000E+00  0.00000000000E+00  0.16556853434E+03  0.16556853434E+03  0.00000000000E+00 0. -1.
          1   -1    0    0  501    0 -0.00000000000E+00 -0.00000000000E+00 -0.13398943859E+03  0.13398943859E+03  0.00000000000E+00 0.  1.
          2    1    1    2  501    0 -0.43738137573E+02  0.26197304170E+00 -0.92397013268E+01  0.44704198784E+02  0.00000000000E+00 0. -1.
          1    1    1    2  502    0  0.32796139143E+02  0.68980716326E+00 -0.78600691482E+02  0.85171188075E+02  0.00000000000E+00 0.  1.
         22    1    1    2    0    0  0.18586980222E+02 -0.15995763405E+02  0.14053157739E+03  0.14265505433E+03  0.00000000000E+00 0. -1.
         22    1    1    2    0    0 -0.76449817919E+01  0.15043983200E+02 -0.21112088840E+02  0.27027531747E+02  0.00000000000E+00 0. -1.
</event>
<event>
 6    1  0.2809573E-005  0.2100017E+03  0.7818608E-02  0.1229484E+00
          2   -1    0    0  502    0  0.00000000000E+00  0.00000000000E+00  0.56939757911E+03  0.56939757911E+03  0.00000000000E+00 0. -1.
          1   -1    0    0  501    0 -0.00000000000E+00 -0.00000000000E+00 -0.13533583959E+03  0.13533583959E+03  0.00000000000E+00 0.  1.
          2    1    1    2  501    0 -0.38241032327E+02  0.85682915407E+02  0.16728627126E+03  0.19180363682E+03  0.00000000000E+00 0. -1.
          1    1    1    2  502    0 -0.26279670927E+02 -0.16968416977E+01 -0.10409723060E+03  0.10737659799E+03  0.00000000000E+00 0.  1.
         22    1    1    2    0    0 -0.27887775188E+02 -0.56566707030E+01  0.15872264838E+03  0.16125323264E+03  0.00000000000E+00 0. -1.
         22    1    1    2    0    0  0.92408478442E+02 -0.78329403006E+02  0.21215005049E+03  0.24429995126E+03  0.00000000000E+00 0. -1.
</event>
<event>
 6    1  0.2809573E-005  0.2024486E+03  0.7818608E-02  0.1148296E+00
          2   -1    0    0  502    0  0.00000000000E+00  0.00000000000E+00  0.36161961981E+03  0.36161961981E+03  0.00000000000E+00 0. -1.
          1   -1    0    0  501    0 -0.00000000000E+00 -0.00000000000E+00 -0.30077025086E+03  0.30077025086E+03  0.00000000000E+00 0. -1.
          2    1    1    2  501    0  0.15994159448E+02 -0.18908449892E+03  0.18683920475E+03  0.26630367872E+03  0.00000000000E+00 0. -1.
          1    1    1    2  502    0 -0.11585928910E+02  0.18457855726E+02 -0.17766248498E+03  0.17899409140E+03  0.00000000000E+00 0. -1.
         22    1    1    2    0    0 -0.90116286277E+01 -0.17070920800E+02  0.17898485662E+02  0.26324543234E+02  0.00000000000E+00 0. -1.
         22    1    1    2    0    0  0.46033980899E+01  0.18769756399E+03  0.33774163517E+02  0.19076755732E+03  0.00000000000E+00 0. -1.
</event>
<event>
 6    1  0.2809573E-005  0.2443068E+03  0.7818608E-02  0.1210712E+00
          2   -1    0    0  502    0  0.00000000000E+00  0.00000000000E+00  0.15044228761E+03  0.15044228761E+03  0.00000000000E+00 0. -1.
          1   -1    0    0  501    0 -0.00000000000E+00 -0.00000000000E+00 -0.12323631917E+04  0.12323631917E+04  0.00000000000E+00 0.  1.
          2    1    1    2  501    0 -0.11584019147E+02 -0.31448483749E+02  0.23885244030E+02  0.41154604993E+02  0.00000000000E+00 0. -1.
          1    1    1    2  502    0  0.17236624525E+03  0.14786172309E+03 -0.10794939116E+04  0.11031229836E+04  0.00000000000E+00 0.  1.
         22    1    1    2    0    0 -0.18355919389E+03 -0.10037931236E+03 -0.22729277819E+02  0.21044382642E+03  0.00000000000E+00 0. -1.
         22    1    1    2    0    0  0.22776967786E+02 -0.16033926979E+02 -0.35829586847E+01  0.28084064321E+02  0.00000000000E+00 0.  1.
</event>
<event>
 6    1  0.2809573E-005  0.9266518E+02  0.7818608E-02  0.1299550E+00
          2   -1    0    0  502    0  0.00000000000E+00  0.00000000000E+00  0.53422561720E+03  0.53422561720E+03  0.00000000000E+00 0.  1.
          1   -1    0    0  501    0 -0.00000000000E+00 -0.00000000000E+00 -0.64585655298E+02  0.64585655298E+02  0.00000000000E+00 0.  1.
          2    1    1    2  501    0 -0.26581425175E+02 -0.32200198154E+02  0.82118703434E+02  0.92124407076E+02  0.00000000000E+00 0.  1.
          1    1    1    2  502    0  0.10409008856E+02  0.92142647632E+02 -0.11605805602E+01  0.92735979669E+02  0.00000000000E+00 0.  1.
         22    1    1    2    0    0 -0.52729100103E+02 -0.58139109817E+01  0.11640583969E+03  0.12792372365E+03  0.00000000000E+00 0.  1.
         22    1    1    2    0    0  0.68901516422E+02 -0.54128538496E+02  0.27227599934E+03  0.28602716210E+03  0.00000000000E+00 0. -1.
</event>
<event>
 6    1  0.2809573E-005  0.9152894E+02  0.7818608E-02  0.1302010E+00
          2   -1    0    0  502    0  0.00000000000E+00  0.00000000000E+00  0.46273788998E+03  0.46273788998E+03  0.00000000000E+00 0.  1.
          1   -1    0    0  501    0 -0.00000000000E+00 -0.00000000000E+00 -0.59257311321E+03  0.59257311321E+03  0.00000000000E+00 0.  1.
          2    1    1    2  501    0  0.58018715323E+01  0.46576421104E+02  0.14422762720E+03  0.15167278320E+03  0.00000000000E+00 0.  1.
          1    1    1    2  502    0  0.20598069016E+02 -0.17884236162E+02 -0.57429772057E+03  0.57494521321E+03  0.00000000000E+00 0.  1.
         22    1    1    2    0    0 -0.27773683967E+01 -0.76507554759E+02  0.13665700124E+03  0.15664053019E+03  0.00000000000E+00 0.  1.
         22    1    1    2    0    0 -0.23622572152E+02  0.47815369816E+02  0.16357786890E+03  0.17205247658E+03  0.00000000000E+00 0.  1.
</event>
<event>
 6    1  0.2809573E-005  0.9769850E+02  0.7818608E-02  0.1307820E+00
          2   -1    0    0  502    0  0.00000000000E+00  0.00000000000E+00  0.35362538373E+02  0.35362538373E+02  0.00000000000E+00 0.  1.
          1   -1    0    0  501    0 -0.00000000000E+00 -0.00000000000E+00 -0.87426439179E+03  0.87426439179E+03  0.00000000000E+00 0. -1.
          2    1    1    2  501    0 -0.17215095912E+02  0.14623927715E+02 -0.70052762430E+02  0.73604404170E+02  0.00000000000E+00 0.  1.
          1    1    1    2  502    0  0.19341829369E+02  0.97965809711E+01 -0.67705014475E+03  0.67739720834E+03  0.00000000000E+00 0. -1.
         22    1    1    2    0    0  0.54394062682E+02  0.19198360386E+02 -0.46288390185E+02  0.73958813961E+02  0.00000000000E+00 0. -1.
         22    1    1    2    0    0 -0.56520796138E+02 -0.43618869072E+02 -0.45510556051E+02  0.84666503691E+02  0.00000000000E+00 0.  1.
</event>
<event>
 6    1  0.2809573E-005  0.1675175E+03  0.7818608E-02  0.1205912E+00
          2   -1    0    0  502    0  0.00000000000E+00  0.00000000000E+00  0.21314124312E+03  0.21314124312E+03  0.00000000000E+00 0.  1.
          1   -1    0    0  501    0 -0.00000000000E+00 -0.00000000000E+00 -0.62343932517E+03  0.62343932517E+03  0.00000000000E+00 0. -1.
          2    1    1    2  501    0 -0.47800942301E+02  0.20756825475E+03 -0.20080132967E+03  0.29272971230E+03  0.00000000000E+00 0.  1.
          1    1    1    2  502    0  0.73196418154E+02 -0.12417150049E+03 -0.32340991874E+03  0.35407661982E+03  0.00000000000E+00 0. -1.
         22    1    1    2    0    0 -0.14021710812E+02  0.11680831557E+02 -0.18748644202E+02  0.26164133071E+02  0.00000000000E+00 0.  1.
         22    1    1    2    0    0 -0.11373765042E+02 -0.95077585817E+02  0.13266181056E+03  0.16361010310E+03  0.00000000000E+00 0.  1.
</event>
<event>
 6    1  0.2809573E-005  0.1723007E+03  0.7818608E-02  0.1254074E+00
          2   -1    0    0  502    0  0.00000000000E+00  0.00000000000E+00  0.33257563506E+03  0.33257563506E+03  0.00000000000E+00 0. -1.
          1   -1    0    0  501    0 -0.00000000000E+00 -0.00000000000E+00 -0.39255022483E+03  0.39255022483E+03  0.00000000000E+00 0. -1.
          2    1    1    2  501    0  0.33546883752E+02 -0.80322218216E+02  0.42574298460E+02  0.96900067276E+02  0.00000000000E+00 0. -1.
          1    1    1    2  502    0  0.55268475987E+02  0.57366822530E+02 -0.33626270695E+03  0.34556933436E+03  0.00000000000E+00 0. -1.
         22    1    1    2    0    0  0.93992165479E+01  0.31151687101E+02  0.14956507094E+03  0.15306365776E+03  0.00000000000E+00 0. -1.
         22    1    1    2    0    0 -0.98214576287E+02 -0.81962914141E+01  0.84148747769E+02  0.12959280049E+03  0.00000000000E+00 0. -1.
</event>
<event>
 6    1  0.2809573E-005  0.2422714E+03  0.7818608E-02  0.1212031E+00
          2   -1    0    0  502    0  0.00000000000E+00  0.00000000000E+00  0.42572755551E+03  0.42572755551E+03  0.00000000000E+00 0. -1.
          1   -1    0    0  501    0 -0.00000000000E+00 -0.00000000000E+00 -0.34872223575E+03  0.34872223575E+03  0.00000000000E+00 0.  1.
          2    1    1    2  501    0 -0.47458049208E+02  0.93400107028E+02  0.86396681240E+02  0.13579481933E+03  0.00000000000E+00 0. -1.
          1    1    1    2  502    0 -0.16601683043E+02 -0.11222451508E+02 -0.30354974301E+03  0.30421046297E+03  0.00000000000E+00 0.  1.
         22    1    1    2    0    0  0.87180759610E+02 -0.96686439011E+02  0.22285810452E+03  0.25809782464E+03  0.00000000000E+00 0. -1.
         22    1    1    2    0    0 -0.23121027359E+02  0.14508783491E+02  0.71300277011E+02  0.76346684318E+02  0.00000000000E+00 0.  1.
</event>
<event>
 6    1  0.2809573E-005  0.4282935E+03  0.7818608E-02  0.1137925E+00
          2   -1    0    0  502    0  0.00000000000E+00  0.00000000000E+00  0.27449577356E+03  0.27449577356E+03  0.00000000000E+00 0. -1.
          1   -1    0    0  501    0 -0.00000000000E+00 -0.00000000000E+00 -0.86091401452E+03  0.86091401452E+03  0.00000000000E+00 0. -1.
          2    1    1    2  501    0  0.24985086841E+03  0.26084295262E+03 -0.36093131330E+03  0.51062306577E+03  0.00000000000E+00 0. -1.
          1    1    1    2  502    0 -0.22507974023E+03 -0.33654742926E+03 -0.24902006019E+03  0.47532731037E+03  0.00000000000E+00 0. -1.
         22    1    1    2    0    0 -0.29059261990E+02  0.49019080766E+02 -0.47037144892E+02  0.73890486438E+02  0.00000000000E+00 0.  1.
         22    1    1    2    0    0  0.42881338146E+01  0.26685395879E+02  0.70570277432E+02  0.75568925503E+02  0.00000000000E+00 0. -1.
</event>
<event>
 6    1  0.2809573E-005  0.1557142E+03  0.7818608E-02  0.1298537E+00
          2   -1    0    0  502    0  0.00000000000E+00  0.00000000000E+00  0.21702555443E+02  0.21702555443E+02  0.00000000000E+00 0. -1.
          1   -1    0    0  501    0 -0.00000000000E+00 -0.00000000000E+00 -0.31750159875E+04  0.31750159875E+04  0.00000000000E+00 0. -1.
          2    1    1    2  501    0  0.13829780821E+02  0.28509383949E+02 -0.24683396137E+03  0.24885950313E+03  0.00000000000E+00 0. -1.
          1    1    1    2  502    0 -0.13364934407E+03 -0.39921962059E+02 -0.25188860686E+04  0.25227451193E+04  0.00000000000E+00 0. -1.
         22    1    1    2    0    0  0.11005149687E+03  0.27492661863E+02 -0.38998586816E+03  0.40614794814E+03  0.00000000000E+00 0. -1.
         22    1    1    2    0    0  0.97680663798E+01 -0.16080083752E+02  0.23924660923E+01  0.18965972379E+02  0.00000000000E+00 0.  1.
</event>
<event>
 6    1  0.2809573E-005  0.5883438E+02  0.7818608E-02  0.1514062E+00
          2   -1    0    0  502    0  0.00000000000E+00  0.00000000000E+00  0.38263773208E+02  0.38263773208E+02  0.00000000000E+00 0.  1.
          1   -1    0    0  501    0 -0.00000000000E+00 -0.00000000000E+00 -0.79570090719E+03  0.79570090719E+03  0.00000000000E+00 0.  1.
          2    1    1    2  501    0 -0.24883113099E+02 -0.30999599869E+01 -0.37946625356E+03  0.38029385567E+03  0.00000000000E+00 0.  1.
          1    1    1    2  502    0  0.39751639845E+02 -0.45361705381E+01 -0.30838058048E+03  0.31096519440E+03  0.00000000000E+00 0.  1.
         22    1    1    2    0    0 -0.16095993786E+02  0.19184449766E+02 -0.10369594450E+03  0.10667695643E+03  0.00000000000E+00 0.  1.
         22    1    1    2    0    0  0.12274670393E+01 -0.11548319241E+02  0.34105644550E+02  0.36028673897E+02  0.00000000000E+00 0.  1.
</event>
<event>
 6    1  0.2809573E-005  0.3575866E+03  0.7818608E-02  0.1198770E+00
          2   -1    0    0  502    0  0.00000000000E+00  0.00000000000E+00  0.25300363274E+03  0.25300363274E+03  0.00000000000E+00 0.  1.
          1   -1    0    0  501    0 -0.00000000000E+00 -0.00000000000E+00 -0.96599685104E+03  0.96599685104E+03  0.00000000000E+00 0.  1.
          2    1    1    2  501    0  0.22475241069E+03 -0.68316372518E+02 -0.61606345831E+02  0.24284998397E+03  0.00000000000E+00 0.  1.
          1    1    1    2  502    0 -0.27837773139E+03 -0.44426167974E+02 -0.72977004859E+03  0.78232484912E+03  0.00000000000E+00 0.  1.
         22    1    1    2    0    0  0.63308477462E+02  0.10655843489E+03  0.98510175967E+01  0.12433706573E+03  0.00000000000E+00 0.  1.
         22    1    1    2    0    0 -0.96831567655E+01  0.61841055979E+01  0.68532158530E+02  0.69488584960E+02  0.00000000000E+00 0.  1.
</event>
<event>
 6    1  0.2809573E-005  0.8120274E+02  0.7818608E-02  0.1326467E+00
          2   -1    0    0  502    0  0.00000000000E+00  0.00000000000E+00  0.48785433288E+03  0.48785433288E+03  0.00000000000E+00 0.  1.
          1   -1    0    0  501    0 -0.00000000000E+00 -0.00000000000E+00 -0.83709572226E+02  0.83709572226E+02  0.00000000000E+00 0.  1.
          2    1    1    2  501    0  0.58639037970E+01 -0.59549778837E+02  0.24020492984E+02  0.64479032332E+02  0.00000000000E+00 0.  1.
          1    1    1    2  502    0  0.29106653796E+02 -0.47265822436E+00 -0.48455109780E+02  0.56527147149E+02  0.00000000000E+00 0.  1.
         22    1    1    2    0    0  0.15665393130E+01 -0.13009765419E+02 -0.11349537619E+01  0.13152800528E+02  0.00000000000E+00 0.  1.
         22    1    1    2    0    0 -0.36537096906E+02  0.73032202480E+02  0.42971433122E+03  0.43740492510E+03  0.00000000000E+00 0.  1.
</event>
<event>
 6    1  0.2809573E-005  0.7624945E+02  0.7818608E-02  0.1343426E+00
          2   -1    0    0  502    0  0.00000000000E+00  0.00000000000E+00  0.34153037837E+02  0.34153037837E+02  0.00000000000E+00 0. -1.
          1   -1    0    0  501    0 -0.00000000000E+00 -0.00000000000E+00 -0.69485015573E+03  0.69485015573E+03  0.00000000000E+00 0.  1.
          2    1    1    2  501    0 -0.22936247811E+02 -0.26690325380E+01 -0.27519863591E+02  0.35924060049E+02  0.00000000000E+00 0. -1.
          1    1    1    2  502    0  0.18813720523E+02 -0.11034131342E+02 -0.52865402788E+03  0.52910376046E+03  0.00000000000E+00 0.  1.
         22    1    1    2    0    0 -0.40755366050E+02 -0.39475367424E+02 -0.45469690348E+02  0.72710365392E+02  0.00000000000E+00 0. -1.
         22    1    1    2    0    0  0.44877893338E+02  0.53178531304E+02 -0.59053536071E+02  0.91265007668E+02  0.00000000000E+00 0.  1.
</event>
<event>
 6    1  0.2809573E-005  0.1725794E+03  0.7818608E-02  0.1176424E+00
          2   -1    0    0  502    0  0.00000000000E+00  0.00000000000E+00  0.44511675501E+03  0.44511675501E+03  0.00000000000E+00 0. -1.
          1   -1    0    0  501    0 -0.00000000000E+00 -0.00000000000E+00 -0.32436745694E+03  0.32436745694E+03  0.00000000000E+00 0.  1.
          2    1    1    2  501    0  0.16002506490E+03 -0.57616353185E+02  0.10186128412E+03  0.19825081778E+03  0.00000000000E+00 0. -1.
          1    1    1    2  502    0 -0.33099052466E+02  0.61559469645E+00 -0.24549688427E+03  0.24771888587E+03  0.00000000000E+00 0.  1.
         22    1    1    2    0    0 -0.15024087152E+03  0.50093116365E+02  0.24778109668E+03  0.29406990947E+03  0.00000000000E+00 0. -1.
         22    1    1    2    0    0  0.23314859088E+02  0.69076421231E+01  0.16603801545E+02  0.29444598821E+02  0.00000000000E+00 0.  1.
</event>
<event>
 6    1  0.2809573E-005  0.8336349E+02  0.7818608E-02  0.1321577E+00
          2   -1    0    0  502    0  0.00000000000E+00  0.00000000000E+00  0.31896994716E+02  0.31896994716E+02  0.00000000000E+00 0.  1.
          1   -1    0    0  501    0 -0.00000000000E+00 -0.00000000000E+00 -0.59262710130E+03  0.59262710130E+03  0.00000000000E+00 0.  1.
          2    1    1    2  501    0 -0.22835232373E+02 -0.11575660738E+02 -0.12018025868E+03  0.12287692353E+03  0.00000000000E+00 0.  1.
          1    1    1    2  502    0 -0.29754629335E+02  0.47746343161E+01 -0.30986128183E+03  0.31132322284E+03  0.00000000000E+00 0.  1.
         22    1    1    2    0    0 -0.33544546936E+02 -0.11438340763E+02 -0.82873372656E+02  0.90133612842E+02  0.00000000000E+00 0.  1.
         22    1    1    2    0    0  0.86134408645E+02  0.18239367185E+02 -0.47815193410E+02  0.10019033680E+03  0.00000000000E+00 0.  1.
</event>
<event>
 6    1  0.2809573E-005  0.7954601E+02  0.7818608E-02  0.1355656E+00
          2   -1    0    0  502    0  0.00000000000E+00  0.00000000000E+00  0.46252725148E+02  0.46252725148E+02  0.00000000000E+00 0.  1.
          1   -1    0    0  501    0 -0.00000000000E+00 -0.00000000000E+00 -0.33594245016E+03  0.33594245016E+03  0.00000000000E+00 0.  1.
          2    1    1    2  501    0  0.98663399368E+01  0.30484114394E+02 -0.51142619281E+02  0.60350587412E+02  0.00000000000E+00 0.  1.
          1    1    1    2  502    0 -0.14511671232E+02 -0.81990406084E+02 -0.83850388404E+02  0.11816895924E+03  0.00000000000E+00 0.  1.
         22    1    1    2    0    0  0.37830037132E+02  0.34807763866E+02 -0.76066468644E+01  0.51966847232E+02  0.00000000000E+00 0. -1.
         22    1    1    2    0    0 -0.33184705837E+02  0.16698527824E+02 -0.14709007046E+03  0.15170878143E+03  0.00000000000E+00 0. -1.
</event>
<event>
 6    1  0.2809573E-005  0.9038508E+02  0.7818608E-02  0.1420051E+00
          2   -1    0    0  502    0  0.00000000000E+00  0.00000000000E+00  0.24307058509E+02  0.24307058509E+02  0.00000000000E+00 0.  1.
          1   -1    0    0  501    0 -0.00000000000E+00 -0.00000000000E+00 -0.75641938338E+03  0.75641938338E+03  0.00000000000E+00 0.  1.
          2    1    1    2  501    0 -0.22738315400E+02  0.93520049889E+01 -0.25107486249E+03  0.25227579662E+03  0.00000000000E+00 0.  1.
          1    1    1    2  502    0  0.70869078967E+02 -0.51912170861E+00 -0.27664271925E+03  0.28557641702E+03  0.00000000000E+00 0.  1.
         22    1    1    2    0    0 -0.60202569539E+02 -0.11674068922E+02 -0.21681612383E+03  0.22532169185E+03  0.00000000000E+00 0.  1.
         22    1    1    2    0    0  0.12071805973E+02  0.28411856414E+01  0.12421380710E+02  0.17552536399E+02  0.00000000000E+00 0. -1.
</event>
<event>
 6    1  0.2809573E-005  0.8918225E+02  0.7818608E-02  0.1327872E+00
          2   -1    0    0  502    0  0.00000000000E+00  0.00000000000E+00  0.23841561962E+03  0.23841561962E+03  0.00000000000E+00 0. -1.
          1   -1    0    0  501    0 -0.00000000000E+00 -0.00000000000E+00 -0.12298259689E+03  0.12298259689E+03  0.00000000000E+00 0.  1.
          2    1    1    2  501    0 -0.41223528712E+01 -0.29208008997E+02  0.16962628535E+02  0.34026935647E+02  0.00000000000E+00 0. -1.
          1    1    1    2  502    0 -0.35304177749E+02  0.24024184652E+02 -0.88813842824E+02  0.98546664539E+02  0.00000000000E+00 0.  1.
         22    1    1    2    0    0  0.29879396145E+02 -0.38301674294E+02  0.17643539990E+03  0.18300067460E+03  0.00000000000E+00 0. -1.
         22    1    1    2    0    0  0.95471344753E+01  0.43485498638E+02  0.10848837116E+02  0.45823941726E+02  0.00000000000E+00 0.  1.
</event>
<event>
 6    1  0.2809573E-005  0.2083132E+03  0.7818608E-02  0.1250665E+00
          2   -1    0    0  502    0  0.00000000000E+00  0.00000000000E+00  0.39990817949E+03  0.39990817949E+03  0.00000000000E+00 0. -1.
          1   -1    0    0  501    0 -0.00000000000E+00 -0.00000000000E+00 -0.11884110001E+03  0.11884110001E+03  0.00000000000E+00 0. -1.
          2    1    1    2  501    0  0.31799172137E+02 -0.25301248062E+02  0.59048698779E+02  0.71680466862E+02  0.00000000000E+00 0. -1.
          1    1    1    2  502    0 -0.26456979666E+02  0.16180635029E+03  0.20611646272E+03  0.26337285922E+03  0.00000000000E+00 0. -1.
         22    1    1    2    0    0 -0.19272333167E+02  0.41058843771E+01  0.35935577403E+02  0.40983494672E+02  0.00000000000E+00 0.  1.
         22    1    1    2    0    0  0.13930140696E+02 -0.14061098660E+03 -0.20033659423E+02  0.14271245875E+03  0.00000000000E+00 0. -1.
</event>
<event>
 6    1  0.2809573E-005  0.5170498E+02  0.7818608E-02  0.1449742E+00
          2   -1    0    0  502    0  0.00000000000E+00  0.00000000000E+00  0.20424791856E+02  0.20424791856E+02  0.00000000000E+00 0. -1.
          1   -1    0    0  501    0 -0.00000000000E+00 -0.00000000000E+00 -0.99326555176E+03  0.99326555176E+03  0.00000000000E+00 0.  1.
          2    1    1    2  501    0  0.48502369562E+01  0.29024561107E+02 -0.85336643871E+02  0.90267894254E+02  0.00000000000E+00 0. -1.
          1    1    1    2  502    0 -0.16137751292E+02 -0.36110770678E+02 -0.66656938479E+03  0.66774183597E+03  0.00000000000E+00 0.  1.
         22    1    1    2    0    0 -0.18719617190E+02  0.35264548882E+02 -0.20906028237E+03  0.21283846959E+03  0.00000000000E+00 0. -1.
         22    1    1    2    0    0  0.30007131525E+02 -0.28178339311E+02 -0.11874448882E+02  0.42842143795E+02  0.00000000000E+00 0. -1.
</event>
<event>
 6    1  0.2809573E-005  0.1665339E+03  0.7818608E-02  0.1225039E+00
          2   -1    0    0  502    0  0.00000000000E+00  0.00000000000E+00  0.19006403224E+03  0.19006403224E+03  0.00000000000E+00 0.  1.
          1   -1    0    0  501    0 -0.00000000000E+00 -0.00000000000E+00 -0.27002202400E+04  0.27002202400E+04  0.00000000000E+00 0.  1.
          2    1    1    2  501    0 -0.14714114394E+01  0.21390627392E+02 -0.13668730478E+03  0.13835874847E+03  0.00000000000E+00 0.  1.
          1    1    1    2  502    0 -0.16556709023E+02 -0.64659802101E+02 -0.25383920170E+04  0.25392693923E+04  0.00000000000E+00 0.  1.
         22    1    1    2    0    0 -0.30775467420E+02  0.59927108914E+02  0.14003363698E+03  0.15539564751E+03  0.00000000000E+00 0.  1.
         22    1    1    2    0    0  0.48803587882E+02 -0.16657934205E+02  0.24889477008E+02  0.57260484000E+02  0.00000000000E+00 0.  1.
</event>
<event>
 6    1  0.2809573E-005  0.1056054E+03  0.7818608E-02  0.1289382E+00
          2   -1    0    0  502    0  0.00000000000E+00  0.00000000000E+00  0.22038710191E+03  0.22038710191E+03  0.00000000000E+00 0. -1.
          1   -1    0    0  501    0 -0.00000000000E+00 -0.00000000000E+00 -0.34113832609E+03  0.34113832609E+03  0.00000000000E+00 0.  1.
          2    1    1    2  501    0  0.86810562922E+02  0.13389666967E+02  0.76122975074E+02  0.11623280239E+03  0.00000000000E+00 0. -1.
          1    1    1    2  502    0 -0.54418411326E+02  0.49257691206E+01 -0.28465963297E+03  0.28985640124E+03  0.00000000000E+00 0.  1.
         22    1    1    2    0    0  0.29893994798E+02 -0.21701648459E+02 -0.11054001968E+02  0.38559090113E+02  0.00000000000E+00 0. -1.
         22    1    1    2    0    0 -0.62286146393E+02  0.33862123723E+01  0.98839435692E+02  0.11687713427E+03  0.00000000000E+00 0. -1.
</event>
<event>
 6    1  0.2809573E-005  0.9333050E+02  0.7818608E-02  0.1332375E+00
          2   -1    0    0  502    0  0.00000000000E+00  0.00000000000E+00  0.75006102641E+02  0.75006102641E+02  0.00000000000E+00 0. -1.
          1   -1    0    0  501    0 -0.00000000000E+00 -0.00000000000E+00 -0.48971547420E+03  0.48971547420E+03  0.00000000000E+00 0. -1.
          2    1    1    2  501    0  0.13164628699E+02 -0.66330773208E+02 -0.21440630093E+03  0.22481801708E+03  0.00000000000E+00 0. -1.
          1    1    1    2  502    0 -0.11096117945E+00  0.94073489344E+02 -0.19063577674E+03  0.21258370841E+03  0.00000000000E+00 0. -1.
         22    1    1    2    0    0 -0.22579615524E+02 -0.41818572363E+02  0.47791957844E+02  0.67399579125E+02  0.00000000000E+00 0. -1.
         22    1    1    2    0    0  0.95259480049E+01  0.14075856227E+02 -0.57459251732E+02  0.59920272225E+02  0.00000000000E+00 0. -1.
</event>
<event>
 6    1  0.2809573E-005  0.3727817E+03  0.7818608E-02  0.1172005E+00
          2   -1    0    0  502    0  0.00000000000E+00  0.00000000000E+00  0.52288611265E+03  0.52288611265E+03  0.00000000000E+00 0.  1.
          1   -1    0    0  501    0 -0.00000000000E+00 -0.00000000000E+00 -0.33369884941E+03  0.33369884941E+03  0.00000000000E+00 0.  1.
          2    1    1    2  501    0 -0.23586914244E+02  0.51193773831E+02  0.24840011052E+02  0.61596843683E+02  0.00000000000E+00 0.  1.
          1    1    1    2  502    0 -0.10396274730E+03 -0.34756958950E+03 -0.81618676997E+02  0.37185276764E+03  0.00000000000E+00 0.  1.
         22    1    1    2    0    0  0.11591718577E+03  0.28211054935E+03  0.17890913998E+03  0.35359812836E+03  0.00000000000E+00 0.  1.
         22    1    1    2    0    0  0.11632475775E+02  0.14265266315E+02  0.67056789212E+02  0.69537222371E+02  0.00000000000E+00 0.  1.
</event>
<event>
 6    1  0.2809573E-005  0.1708221E+03  0.7818608E-02  0.1217143E+00
          2   -1    0    0  502    0  0.00000000000E+00  0.00000000000E+00  0.53144393255E+03  0.53144393255E+03  0.00000000000E+00 0. -1.
          1   -1    0    0  501    0 -0.00000000000E+00 -0.00000000000E+00 -0.94408140043E+02  0.94408140043E+02  0.00000000000E+00 0.  1.
          2    1    1    2  501    0  0.14430742662E+03  0.20554238888E+00  0.15839908825E+03  0.21427773283E+03  0.00000000000E+00 0. -1.
          1    1    1    2  502    0 -0.76684226792E+02 -0.56814589235E+02  0.24079414484E+01  0.95468143225E+02  0.00000000000E+00 0.  1.
         22    1    1    2    0    0 -0.42790720142E+02  0.56771156422E+02  0.28182258499E+03  0.29065095792E+03  0.00000000000E+00 0. -1.
         22    1    1    2    0    0 -0.24832479685E+02 -0.16210957522E+00 -0.55938221791E+01  0.25455238624E+02  0.00000000000E+00 0. -1.
</event>
<event>
 6    1  0.2809573E-005  0.9745110E+02  0.7818608E-02  0.1305609E+00
          2   -1    0    0  502    0  0.00000000000E+00  0.00000000000E+00  0.15078457038E+03  0.15078457038E+03  0.00000000000E+00 0.  1.
          1   -1    0    0  501    0 -0.00000000000E+00 -0.00000000000E+00 -0.99126371397E+02  0.99126371397E+02  0.00000000000E+00 0. -1.
          2    1    1    2  501    0  0.42412703166E+02  0.19726378569E+02  0.21493484826E+02  0.51477541621E+02  0.00000000000E+00 0.  1.
          1    1    1    2  502    0 -0.24703344306E+02 -0.16574268756E+02 -0.44146239357E+02  0.53233937052E+02  0.00000000000E+00 0. -1.
         22    1    1    2    0    0 -0.68648354441E+01 -0.55744187470E+02  0.34237257797E+01  0.56269550385E+02  0.00000000000E+00 0. -1.
         22    1    1    2    0    0 -0.10844523417E+02  0.52592077658E+02  0.70887227739E+02  0.88929912724E+02  0.00000000000E+00 0.  1.
</event>
<event>
 6    1  0.2809573E-005  0.4284375E+02  0.7818608E-02  0.1513754E+00
          2   -1    0    0  502    0  0.00000000000E+00  0.00000000000E+00  0.29372891688E+03  0.29372891688E+03  0.00000000000E+00 0. -1.
          1   -1    0    0  501    0 -0.00000000000E+00 -0.00000000000E+00 -0.13063841277E+04  0.13063841277E+04  0.00000000000E+00 0. -1.
          2    1    1    2  501    0  0.13855787615E+02  0.26398470027E+02  0.11186638413E+03  0.11577111025E+03  0.00000000000E+00 0. -1.
          1    1    1    2  502    0 -0.10584216410E+02 -0.34766033200E+02 -0.12835466971E+04  0.12840610680E+04  0.00000000000E+00 0. -1.
         22    1    1    2    0    0  0.26693134536E+02  0.12119875738E+02  0.16658940312E+03  0.16914917691E+03  0.00000000000E+00 0. -1.
         22    1    1    2    0    0 -0.29964705741E+02 -0.37523125643E+01 -0.75643010452E+01  0.31131689482E+02  0.00000000000E+00 0.  1.
</event>
<event>
 6    1  0.2809573E-005  0.9898245E+02  0.7818608E-02  0.1288475E+00
          2   -1    0    0  502    0  0.00000000000E+00  0.00000000000E+00  0.54071095921E+02  0.54071095921E+02  0.00000000000E+00 0.  1.
          1   -1    0    0  501    0 -0.00000000000E+00 -0.00000000000E+00 -0.47433521981E+03  0.47433521981E+03  0.00000000000E+00 0.  1.
          2    1    1    2  501    0 -0.72561142463E+02 -0.29921832853E+02 -0.15303878702E+03  0.17199216787E+03  0.00000000000E+00 0.  1.
          1    1    1    2  502    0  0.49681315365E+02 -0.60339494264E+01 -0.20467081668E+03  0.21070069967E+03  0.00000000000E+00 0.  1.
         22    1    1    2    0    0  0.70254111982E+02  0.38658975855E+02 -0.21635593626E+02  0.83055737768E+02  0.00000000000E+00 0.  1.
         22    1    1    2    0    0 -0.47374284884E+02 -0.27031935760E+01 -0.40918926563E+02  0.62657710418E+02  0.00000000000E+00 0.  1.
</event>
<event>
 6    1  0.2809573E-005  0.1093901E+03  0.7818608E-02  0.1262780E+00
          2   -1    0    0  502    0  0.00000000000E+00  0.00000000000E+00  0.40108228393E+03  0.40108228393E+03  0.00000000000E+00 0.  1.
          1   -1    0    0  501    0 -0.00000000000E+00 -0.00000000000E+00 -0.83243033633E+02  0.83243033633E+02  0.00000000000E+00 0. -1.
          2    1    1    2  501    0 -0.77181567146E+02 -0.49786454676E+02  0.23678112784E+03  0.25397044686E+03  0.00000000000E+00 0.  1.
          1    1    1    2  502    0 -0.27706678024E+02  0.13384403967E+02 -0.20737068040E+02  0.37105636601E+02  0.00000000000E+00 0. -1.
         22    1    1    2    0    0  0.11562111773E+03  0.42695768384E+02  0.39062261709E+02  0.12929436103E+03  0.00000000000E+00 0.  1.
         22    1    1    2    0    0 -0.10732872565E+02 -0.62937176757E+01  0.62732928787E+02  0.63954873074E+02  0.00000000000E+00 0. -1.
</event>
<event>
 6    1  0.2809573E-005  0.1155144E+03  0.7818608E-02  0.1371291E+00
          2   -1    0    0  502    0  0.00000000000E+00  0.00000000000E+00  0.57871094844E+02  0.57871094844E+02  0.00000000000E+00 0. -1.
          1   -1    0    0  501    0 -0.00000000000E+00 -0.00000000000E+00 -0.16983849116E+04  0.16983849116E+04  0.00000000000E+00 0. -1.
          2    1    1    2  501    0  0.51663021350E+02 -0.63766976834E+02 -0.20155733946E+03  0.21762503579E+03  0.00000000000E+00 0. -1.
          1    1    1    2  502    0 -0.77823606550E+02  0.77127114514E+02 -0.13958452226E+04  0.14001389184E+04  0.00000000000E+00 0. -1.
         22    1    1    2    0    0  0.75174210041E+00 -0.12903619850E+02  0.44984224627E+02  0.46804369312E+02  0.00000000000E+00 0. -1.
         22    1    1    2    0    0  0.25408843099E+02 -0.45651782956E+00 -0.88095479305E+02  0.91687682870E+02  0.00000000000E+00 0.  1.
</event>
<event>
 6    1  0.2809573E-005  0.1409389E+03  0.7818608E-02  0.1333931E+00
          2   -1    0    0  502    0  0.00000000000E+00  0.00000000000E+00  0.85235525774E+02  0.85235525774E+02  0.00000000000E+00 0.  1.
          1   -1    0    0  501    0 -0.00000000000E+00 -0.00000000000E+00 -0.36124321839E+03  0.36124321839E+03  0.00000000000E+00 0.  1.
          2    1    1    2  501    0 -0.85238195556E+02  0.26087026400E+02 -0.19355980280E+03  0.21309969542E+03  0.00000000000E+00 0.  1.
          1    1    1    2  502    0  0.54523530336E+02 -0.50307678579E+02 -0.70105465817E+02  0.10207082944E+03  0.00000000000E+00 0.  1.
         22    1    1    2    0    0  0.42634990461E+02  0.18034552745E+02 -0.63406775619E+02  0.78507367162E+02  0.00000000000E+00 0. -1.
         22    1    1    2    0    0 -0.11920325241E+02  0.61860994346E+01  0.51064351625E+02  0.52800852142E+02  0.00000000000E+00 0. -1.
</event>
<event>
 6    1  0.2859438E-005  0.5171243E+02  0.7818608E-02  0.1521260E+00
          2   -1    0    0  502    0  0.00000000000E+00  0.00000000000E+00  0.50318425105E+02  0.50318425105E+02  0.00000000000E+00 0.  1.
          1   -1    0    0  501    0 -0.00000000000E+00 -0.00000000000E+00 -0.13782803021E+04  0.13782803021E+04  0.00000000000E+00 0. -1.
          2    1    1    2  501    0  0.32816153949E+02  0.26111514259E+02 -0.23835823000E+03  0.24201933176E+03  0.00000000000E+00 0.  1.
          1    1    1    2  502    0 -0.37448872070E+02 -0.28029489531E+02 -0.10497411649E+04  0.10507828432E+04  0.00000000000E+00 0. -1.
         22    1    1    2    0    0 -0.15482554286E+02 -0.11926251600E+01  0.45481279682E+02  0.48059116133E+02  0.00000000000E+00 0.  1.
         22    1    1    2    0    0  0.20115272408E+02  0.31106004327E+01 -0.85343761761E+02  0.87737436084E+02  0.00000000000E+00 0. -1.
</event>
<event>
 6    1  0.2809573E-005  0.1499452E+03  0.7818608E-02  0.1264277E+00
          2   -1    0    0  502    0  0.00000000000E+00  0.00000000000E+00  0.79972770548E+02  0.79972770548E+02  0.00000000000E+00 0.  1.
          1   -1    0    0  501    0 -0.00000000000E+00 -0.00000000000E+00 -0.13092113633E+04  0.13092113633E+04  0.00000000000E+00 0. -1.
          2    1    1    2  501    0 -0.11722241297E+01  0.40950943541E+02 -0.74850089158E+02  0.85328129789E+02  0.00000000000E+00 0.  1.
          1    1    1    2  502    0  0.30544090113E+02  0.17174784957E+01 -0.11683751097E+04  0.11687755508E+04  0.00000000000E+00 0. -1.
         22    1    1    2    0    0  0.92053338674E+01  0.38489426647E+02  0.21264957112E+02  0.44926301163E+02  0.00000000000E+00 0.  1.
         22    1    1    2    0    0 -0.38577199850E+02 -0.81157848683E+02 -0.72783510272E+01  0.90154152122E+02  0.00000000000E+00 0.  1.
</event>
<event>
 6    1  0.2809573E-005  0.2117684E+03  0.7818608E-02  0.1162452E+00
          2   -1    0    0  502    0  0.00000000000E+00  0.00000000000E+00  0.59213904271E+03  0.59213904271E+03  0.00000000000E+00 0.  1.
          1   -1    0    0  501    0 -0.00000000000E+00 -0.00000000000E+00 -0.10370289011E+04  0.10370289011E+04  0.00000000000E+00 0.  1.
          2    1    1    2  501    0 -0.13385644429E+03  0.12675579277E+03  0.23439381268E+03  0.29820301492E+03  0.00000000000E+00 0.  1.
          1    1    1    2  502    0  0.94133603897E+02 -0.33489306659E+02 -0.98206346383E+03  0.98713287658E+03  0.00000000000E+00 0.  1.
         22    1    1    2    0    0  0.47182414745E+01 -0.10750681311E+03  0.13920601546E+03  0.17594968431E+03  0.00000000000E+00 0.  1.
         22    1    1    2    0    0  0.35004598922E+02  0.14240326998E+02  0.16357377731E+03  0.16788236799E+03  0.00000000000E+00 0.  1.
</event>
<event>
 6    1  0.2809573E-005  0.2451768E+03  0.7818608E-02  0.1116590E+00
          2   -1    0    0  502    0  0.00000000000E+00  0.00000000000E+00  0.98465403114E+03  0.98465403114E+03  0.00000000000E+00 0. -1.
          1   -1    0    0  501    0 -0.00000000000E+00 -0.00000000000E+00 -0.89279564806E+02  0.89279564806E+02  0.00000000000E+00 0.  1.
          2    1    1    2  501    0  0.21212263589E+03  0.95385863674E+02  0.63652990672E+03  0.67769078332E+03  0.00000000000E+00 0. -1.
          1    1    1    2  502    0  0.11639966542E+02 -0.24337443018E+02  0.50243987884E+02  0.57028574174E+02  0.00000000000E+00 0.  1.
         22    1    1    2    0    0  0.12120531857E+02 -0.33640169573E+00  0.37347510386E+02  0.39266486864E+02  0.00000000000E+00 0. -1.
         22    1    1    2    0    0 -0.23588313429E+03 -0.70712018961E+02  0.17125306135E+03  0.29994775160E+03  0.00000000000E+00 0.  1.
</event>
<event>
 6    1  0.2809573E-005  0.1069556E+03  0.7818608E-02  0.1271876E+00
          2   -1    0    0  502    0  0.00000000000E+00  0.00000000000E+00  0.52015180107E+02  0.52015180107E+02  0.00000000000E+00 0.  1.
          1   -1    0    0  501    0 -0.00000000000E+00 -0.00000000000E+00 -0.39364789508E+03  0.39364789508E+03  0.00000000000E+00 0.  1.
          2    1    1    2  501    0 -0.62951930144E+02  0.41922082959E+02 -0.83146429634E+02  0.11239989017E+03  0.00000000000E+00 0.  1.
          1    1    1    2  502    0  0.74997310154E+01 -0.69331065186E+02 -0.10030295398E+03  0.12216269947E+03  0.00000000000E+00 0.  1.
         22    1    1    2    0    0  0.75543164665E+02 -0.17995493895E+02 -0.13623691315E+03  0.15681550954E+03  0.00000000000E+00 0.  1.
         22    1    1    2    0    0 -0.20090965536E+02  0.45404476121E+02 -0.21946418210E+02  0.54284976009E+02  0.00000000000E+00 0.  1.
</event>
<event>
 6    1  0.2809573E-005  0.5879477E+02  0.7818608E-02  0.1477480E+00
          2   -1    0    0  502    0  0.00000000000E+00  0.00000000000E+00  0.61602782945E+02  0.61602782945E+02  0.00000000000E+00 0. -1.
          1   -1    0    0  501    0 -0.00000000000E+00 -0.00000000000E+00 -0.30070215214E+03  0.30070215214E+03  0.00000000000E+00 0. -1.
          2    1    1    2  501    0 -0.21081851863E+02  0.31278390202E+02 -0.12007447886E+03  0.12585969428E+03  0.00000000000E+00 0. -1.
          1    1    1    2  502    0  0.48633839668E+02 -0.15435750401E+02 -0.94006027359E+02  0.10696095517E+03  0.00000000000E+00 0. -1.
         22    1    1    2    0    0 -0.38874804248E+01 -0.18900344465E+02  0.48496063791E+02  0.52193905086E+02  0.00000000000E+00 0. -1.
         22    1    1    2    0    0 -0.23664507381E+02  0.30577046642E+01 -0.73514926771E+02  0.77290380550E+02  0.00000000000E+00 0. -1.
</event>
<event>
 6    1  0.2809573E-005  0.1082715E+03  0.7818608E-02  0.1289983E+00
          2   -1    0    0  502    0  0.00000000000E+00  0.00000000000E+00  0.67461722265E+02  0.67461722265E+02  0.00000000000E+00 0.  1.
          1   -1    0    0  501    0 -0.00000000000E+00 -0.00000000000E+00 -0.27962105187E+03  0.27962105187E+03  0.00000000000E+00 0.  1.
          2    1    1    2  501    0  0.71122399738E+02 -0.17198624228E+02 -0.31897303542E+02  0.79822467971E+02  0.00000000000E+00 0.  1.
          1    1    1    2  502    0 -0.43039532826E+02  0.72361283956E+01 -0.11082575866E+03  0.11910966259E+03  0.00000000000E+00 0.  1.
         22    1    1    2    0    0 -0.29288351867E+02  0.53326149111E+02  0.59954490875E+01  0.61134533153E+02  0.00000000000E+00 0.  1.
         22    1    1    2    0    0  0.12054849559E+01 -0.43363653279E+02 -0.75431716496E+02  0.87016110423E+02  0.00000000000E+00 0.  1.
</event>
<event>
 6    1  0.2809573E-005  0.2852512E+03  0.7818608E-02  0.1205599E+00
          2   -1    0    0  502    0  0.00000000000E+00  0.00000000000E+00  0.42023651837E+03  0.42023651837E+03  0.00000000000E+00 0. -1.
          1   -1    0    0  501    0 -0.00000000000E+00 -0.00000000000E+00 -0.70419398946E+03  0.70419398946E+03  0.00000000000E+00 0.  1.
          2    1    1    2  501    0  0.57493487707E+02 -0.12658844537E+03  0.10341055945E+03  0.17327400103E+03  0.00000000000E+00 0. -1.
          1    1    1    2  502    0 -0.33105075576E+02  0.55078094365E+01 -0.64083026801E+03  0.64170843409E+03  0.00000000000E+00 0.  1.
         22    1    1    2    0    0  0.58601390348E+01 -0.18624544833E+02  0.90923999879E+02  0.92996713134E+02  0.00000000000E+00 0. -1.
         22    1    1    2    0    0 -0.30248551165E+02  0.13970518076E+03  0.16253823759E+03  0.21645135957E+03  0.00000000000E+00 0.  1.
</event>
<event>
 6    1  0.2809573E-005  0.1727635E+03  0.7818608E-02  0.1313848E+00
          2   -1    0    0  502    0  0.00000000000E+00  0.00000000000E+00  0.60453238196E+02  0.60453238196E+02  0.00000000000E+00 0.  1.
          1   -1    0    0  501    0 -0.00000000000E+00 -0.00000000000E+00 -0.87451743956E+03  0.87451743956E+03  0.00000000000E+00 0.  1.
          2    1    1    2  501    0 -0.15481767709E+02  0.62018961281E+02 -0.37616822123E+03  0.38156069944E+03  0.00000000000E+00 0.  1.
          1    1    1    2  502    0  0.28300892383E+02 -0.12772649311E+03 -0.37541299756E+03  0.39755492236E+03  0.00000000000E+00 0.  1.
         22    1    1    2    0    0 -0.19557377140E+02  0.73651021909E+02 -0.94956022595E+02  0.12175224949E+03  0.00000000000E+00 0.  1.
         22    1    1    2    0    0  0.67382524654E+01 -0.79434900840E+01  0.32473040025E+02  0.34102806475E+02  0.00000000000E+00 0.  1.
</event>
<event>
 6    1  0.2809573E-005  0.8110129E+02  0.7818608E-02  0.1424401E+00
          2   -1    0    0  502    0  0.00000000000E+00  0.00000000000E+00  0.11786721473E+03  0.11786721473E+03  0.00000000000E+00 0. -1.
          1   -1    0    0  501    0 -0.00000000000E+00 -0.00000000000E+00 -0.26251363738E+03  0.26251363738E+03  0.00000000000E+00 0. -1.
          2    1    1    2  501    0 -0.77082771483E+01 -0.25783480665E+02 -0.25098902600E+02  0.36798917424E+02  0.00000000000E+00 0. -1.
          1    1    1    2  502    0  0.51037862968E+02 -0.57379727442E+01 -0.18527642054E+03  0.19226320448E+03  0.00000000000E+00 0. -1.
         22    1    1    2    0    0 -0.14743953782E+02 -0.63650861931E+01  0.94475672901E+02  0.95830847150E+02  0.00000000000E+00 0. -1.
         22    1    1    2    0    0 -0.28585632037E+02  0.37886539602E+02 -0.28746772410E+02  0.55487883055E+02  0.00000000000E+00 0.  1.
</event>
<event>
 6    1  0.2809573E-005  0.2337099E+03  0.7818608E-02  0.1172150E+00
          2   -1    0    0  502    0  0.00000000000E+00  0.00000000000E+00  0.88177724089E+03  0.88177724089E+03  0.00000000000E+00 0. -1.
          1   -1    0    0  501    0 -0.00000000000E+00 -0.00000000000E+00 -0.94757922592E+02  0.94757922592E+02  0.00000000000E+00 0. -1.
          2    1    1    2  501    0  0.19298852996E+03 -0.58497018443E+02  0.12108775394E+03  0.23522057311E+03  0.00000000000E+00 0. -1.
          1    1    1    2  502    0 -0.15777401601E+03  0.64886140551E+02  0.50455873888E+03  0.53261841157E+03  0.00000000000E+00 0. -1.
         22    1    1    2    0    0 -0.59450424588E+02 -0.44818137643E+02  0.13982763831E+03  0.15841334187E+03  0.00000000000E+00 0. -1.
         22    1    1    2    0    0  0.24235910636E+02  0.38429015536E+02  0.21545187161E+02  0.50282836925E+02  0.00000000000E+00 0. -1.
</event>
<event>
 6    1  0.2809573E-005  0.1074041E+03  0.7818608E-02  0.1300602E+00
          2   -1    0    0  502    0  0.00000000000E+00  0.00000000000E+00  0.30595526077E+02  0.30595526077E+02  0.00000000000E+00 0.  1.
          1   -1    0    0  501    0 -0.00000000000E+00 -0.00000000000E+00 -0.72968341611E+03  0.72968341611E+03  0.00000000000E+00 0.  1.
          2    1    1    2  501    0 -0.17457669074E+02  0.11325598147E+02 -0.15487181364E+03  0.15626361714E+03  0.00000000000E+00 0.  1.
          1    1    1    2  502    0 -0.64451433363E+02 -0.44827646990E+02 -0.67268352931E+02  0.10338537858E+03  0.00000000000E+00 0.  1.
         22    1    1    2    0    0  0.35469546023E+02 -0.42284118385E+02 -0.10997817357E+03  0.12304972176E+03  0.00000000000E+00 0.  1.
         22    1    1    2    0    0  0.46439556415E+02  0.75786167229E+02 -0.36696954989E+03  0.37758022471E+03  0.00000000000E+00 0.  1.
</event>
<event>
 6    1  0.2809573E-005  0.1450397E+03  0.7818608E-02  0.1277149E+00
          2   -1    0    0  502    0  0.00000000000E+00  0.00000000000E+00  0.26812119356E+03  0.26812119356E+03  0.00000000000E+00 0. -1.
          1   -1    0    0  501    0 -0.00000000000E+00 -0.00000000000E+00 -0.22855938260E+03  0.22855938260E+03  0.00000000000E+00 0.  1.
          2    1    1    2  501    0 -0.35674956264E+01  0.23544098930E+02 -0.19470967863E+01  0.23892316869E+02  0.00000000000E+00 0. -1.
          1    1    1    2  502    0  0.75243487117E+02 -0.83224300163E+02 -0.17320087437E+03  0.20636474838E+03  0.00000000000E+00 0.  1.
         22    1    1    2    0    0  0.34181839487E+02  0.65403691544E+01  0.25295562160E+02  0.43023714907E+02  0.00000000000E+00 0.  1.
         22    1    1    2    0    0 -0.10585783098E+03  0.53139832078E+02  0.18941421996E+03  0.22339979601E+03  0.00000000000E+00 0. -1.
</event>
<event>
 6    1  0.2809573E-005  0.6747659E+02  0.7818608E-02  0.1450025E+00
          2   -1    0    0  502    0  0.00000000000E+00  0.00000000000E+00  0.44356857938E+02  0.44356857938E+02  0.00000000000E+00 0. -1.
          1   -1    0    0  501    0 -0.00000000000E+00 -0.00000000000E+00 -0.65179258793E+03  0.65179258793E+03  0.00000000000E+00 0. -1.
          2    1    1    2  501    0 -0.34525026301E+02 -0.41577185763E+00 -0.38368696057E+03  0.38523737360E+03  0.00000000000E+00 0. -1.
          1    1    1    2  502    0  0.68784358946E+02 -0.14351940363E+02 -0.14105442415E+03  0.15758685478E+03  0.00000000000E+00 0. -1.
         22    1    1    2    0    0 -0.18499546844E+02 -0.42548358979E+01  0.31342907293E+02  0.36643071644E+02  0.00000000000E+00 0.  1.
         22    1    1    2    0    0 -0.15759785802E+02  0.19022548118E+02 -0.11403725256E+03  0.11668214583E+03  0.00000000000E+00 0.  1.
</event>
<event>
 6    1  0.2809573E-005  0.2697686E+03  0.7818608E-02  0.1103102E+00
          2   -1    0    0  502    0  0.00000000000E+00  0.00000000000E+00  0.10526383027E+04  0.10526383027E+04  0.00000000000E+00 0. -1.
          1   -1    0    0  501    0 -0.00000000000E+00 -0.00000000000E+00 -0.52553142763E+03  0.52553142763E+03  0.00000000000E+00 0. -1.
          2    1    1    2  501    0 -0.21352199839E+03  0.20544574378E+03  0.13183271441E+03  0.32431383261E+03  0.00000000000E+00 0. -1.
          1    1    1    2  502    0  0.22506631654E+03  0.65159194131E+02 -0.36679041414E+03  0.43524220307E+03  0.00000000000E+00 0. -1.
         22    1    1    2    0    0  0.82886117109E+01 -0.26539691327E+03  0.74804734130E+03  0.79377518699E+03  0.00000000000E+00 0. -1.
         22    1    1    2    0    0 -0.19832929864E+02 -0.52080246356E+01  0.14017233478E+02  0.24838507644E+02  0.00000000000E+00 0.  1.
</event>
<event>
 6    1  0.2809573E-005  0.4322419E+02  0.7818608E-02  0.1596074E+00
          2   -1    0    0  502    0  0.00000000000E+00  0.00000000000E+00  0.48357878347E+02  0.48357878347E+02  0.00000000000E+00 0.  1.
          1   -1    0    0  501    0 -0.00000000000E+00 -0.00000000000E+00 -0.28334809916E+03  0.28334809916E+03  0.00000000000E+00 0.  1.
          2    1    1    2  501    0  0.30994777734E+01 -0.23897571899E+02 -0.12307401060E+03  0.12541097555E+03  0.00000000000E+00 0.  1.
          1    1    1    2  502    0 -0.29881025073E+02  0.17164152530E+02 -0.53666000119E+02  0.63777138226E+02  0.00000000000E+00 0.  1.
         22    1    1    2    0    0  0.16509708364E+02  0.64024047018E+01 -0.98959526384E+02  0.10053133401E+03  0.00000000000E+00 0.  1.
         22    1    1    2    0    0  0.10271838935E+02  0.33101466688E+00  0.40709316282E+02  0.41986529720E+02  0.00000000000E+00 0.  1.
</event>
<event>
 6    1  0.2809573E-005  0.1034902E+03  0.7818608E-02  0.1288370E+00
          2   -1    0    0  502    0  0.00000000000E+00  0.00000000000E+00  0.14816962665E+03  0.14816962665E+03  0.00000000000E+00 0.  1.
          1   -1    0    0  501    0 -0.00000000000E+00 -0.00000000000E+00 -0.15798823455E+03  0.15798823455E+03  0.00000000000E+00 0.  1.
          2    1    1    2  501    0  0.43289484661E+02 -0.32517615451E+02 -0.56142902462E+02  0.77996155634E+02  0.00000000000E+00 0.  1.
          1    1    1    2  502    0 -0.37595275442E+02  0.61882679916E+01 -0.51031916825E+02  0.63686387330E+02  0.00000000000E+00 0.  1.
         22    1    1    2    0    0 -0.52061635091E+02  0.51272227019E+02  0.81563150205E+02  0.10950708919E+03  0.00000000000E+00 0.  1.
         22    1    1    2    0    0  0.46367425872E+02 -0.24942879560E+02  0.15793061183E+02  0.54968229044E+02  0.00000000000E+00 0.  1.
</event>
<event>
 6    1  0.2809573E-005  0.2181111E+03  0.7818608E-02  0.1245243E+00
          2   -1    0    0  502    0  0.00000000000E+00  0.00000000000E+00  0.11099079504E+03  0.11099079504E+03  0.00000000000E+00 0.  1.
          1   -1    0    0  501    0 -0.00000000000E+00 -0.00000000000E+00 -0.46835908658E+03  0.46835908658E+03  0.00000000000E+00 0.  1.
          2    1    1    2  501    0 -0.29353303970E+02 -0.19728947674E+01 -0.10925429984E+03  0.11314597121E+03  0.00000000000E+00 0.  1.
          1    1    1    2  502    0  0.33337795896E+02  0.14945752742E+02 -0.31678701151E+03  0.31888680565E+03  0.00000000000E+00 0.  1.
         22    1    1    2    0    0 -0.10183416911E+02 -0.31079012637E+02  0.10297157731E+03  0.10804051435E+03  0.00000000000E+00 0.  1.
         22    1    1    2    0    0  0.61989249851E+01  0.18106154662E+02 -0.34298557499E+02  0.39276590409E+02  0.00000000000E+00 0.  1.
</event>
<event>
 6    1  0.2809573E-005  0.7919241E+02  0.7818608E-02  0.1335063E+00
          2   -1    0    0  502    0  0.00000000000E+00  0.00000000000E+00  0.16154007966E+02  0.16154007966E+02  0.00000000000E+00 0.  1.
          1   -1    0    0  501    0 -0.00000000000E+00 -0.00000000000E+00 -0.12112318225E+04  0.12112318225E+04  0.00000000000E+00 0.  1.
          2    1    1    2  501    0  0.31559264024E+02 -0.10618598903E+02 -0.39058769810E+02  0.51325717603E+02  0.00000000000E+00 0.  1.
          1    1    1    2  502    0  0.25695923243E+02  0.21015101884E+02 -0.65982093286E+03  0.66065541580E+03  0.00000000000E+00 0.  1.
         22    1    1    2    0    0  0.24735413892E+02 -0.34552227615E+02 -0.80681186976E+02  0.91187450153E+02  0.00000000000E+00 0.  1.
         22    1    1    2    0    0 -0.81990601159E+02  0.24155724634E+02 -0.41551692484E+03  0.42421724687E+03  0.00000000000E+00 0.  1.
</event>
<event>
 6    1  0.2809573E-005  0.1696883E+03  0.7818608E-02  0.1230288E+00
          2   -1    0    0  502    0  0.00000000000E+00  0.00000000000E+00  0.34521968245E+02  0.34521968245E+02  0.00000000000E+00 0. -1.
          1   -1    0    0  501    0 -0.00000000000E+00 -0.00000000000E+00 -0.25710410652E+04  0.25710410652E+04  0.00000000000E+00 0. -1.
          2    1    1    2  501    0  0.76139085208E+02 -0.13873516370E+02 -0.36671008314E+03  0.37478783309E+03  0.00000000000E+00 0. -1.
          1    1    1    2  502    0 -0.70982466935E+02  0.13362215553E+02 -0.20714276451E+04  0.20726865533E+04  0.00000000000E+00 0. -1.
         22    1    1    2    0    0  0.40306804937E+02 -0.37609647498E+02 -0.17618799847E+02  0.57875264295E+02  0.00000000000E+00 0. -1.
         22    1    1    2    0    0 -0.45463423210E+02  0.38120948315E+02 -0.80762568837E+02  0.10021338272E+03  0.00000000000E+00 0.  1.
</event>
<event>
 6    1  0.2809573E-005  0.9799739E+02  0.7818608E-02  0.1320749E+00
          2   -1    0    0  502    0  0.00000000000E+00  0.00000000000E+00  0.62558789955E+02  0.62558789955E+02  0.00000000000E+00 0. -1.
          1   -1    0    0  501    0 -0.00000000000E+00 -0.00000000000E+00 -0.53303208593E+03  0.53303208593E+03  0.00000000000E+00 0.  1.
          2    1    1    2  501    0  0.20061108743E+02  0.11883402741E+02  0.36341654744E+01  0.23598103810E+02  0.00000000000E+00 0. -1.
          1    1    1    2  502    0 -0.20111198799E+02  0.55933307984E+02 -0.41272906298E+03  0.41698713972E+03  0.00000000000E+00 0.  1.
         22    1    1    2    0    0  0.60942801407E+02 -0.27764257628E+02 -0.43834325200E+02  0.80039534673E+02  0.00000000000E+00 0. -1.
         22    1    1    2    0    0 -0.60892711351E+02 -0.40052453096E+02 -0.17544073263E+02  0.74966097680E+02  0.00000000000E+00 0. -1.
</event>
<event>
 6    1  0.2809573E-005  0.1695794E+03  0.7818608E-02  0.1283103E+00
          2   -1    0    0  502    0  0.00000000000E+00  0.00000000000E+00  0.42851408622E+02  0.42851408622E+02  0.00000000000E+00 0. -1.
          1   -1    0    0  501    0 -0.00000000000E+00 -0.00000000000E+00 -0.14735264356E+04  0.14735264356E+04  0.00000000000E+00 0.  1.
          2    1    1    2  501    0 -0.44887695953E+02  0.18031971304E+02 -0.13201250895E+03  0.14059644290E+03  0.00000000000E+00 0. -1.
          1    1    1    2  502    0  0.16571255560E+03 -0.41850036440E+02 -0.10905327374E+04  0.11038449746E+04  0.00000000000E+00 0.  1.
         22    1    1    2    0    0 -0.10971362920E+03  0.78639292268E+01 -0.22220145794E+03  0.24793630175E+03  0.00000000000E+00 0. -1.
         22    1    1    2    0    0 -0.11111230445E+02  0.15954135909E+02  0.14071677325E+02  0.24000124945E+02  0.00000000000E+00 0. -1.
</event>
<event>
 6    1  0.2809573E-005  0.1169519E+03  0.7818608E-02  0.1293811E+00
          2   -1    0    0  502    0  0.00000000000E+00  0.00000000000E+00  0.40585736241E+03  0.40585736241E+03  0.00000000000E+00 0.  1.
          1   -1    0    0  501    0 -0.00000000000E+00 -0.00000000000E+00 -0.19123071028E+03  0.19123071028E+03  0.00000000000E+00 0. -1.
          2    1    1    2  501    0 -0.18589107266E+02  0.12094649638E+02  0.25491939299E+01  0.22323392406E+02  0.00000000000E+00 0.  1.
          1    1    1    2  502    0 -0.18090667224E+02 -0.36313668007E+02 -0.16756682797E+03  0.17240822649E+03  0.00000000000E+00 0. -1.
         22    1    1    2    0    0 -0.45485796659E+02  0.11674981727E+02  0.18168270741E+03  0.18765358794E+03  0.00000000000E+00 0. -1.
         22    1    1    2    0    0  0.82165571149E+02  0.12544036643E+02  0.19796157876E+03  0.21470286585E+03  0.00000000000E+00 0.  1.
</event>
<event>
 6    1  0.2809573E-005  0.6166530E+02  0.7818608E-02  0.1489609E+00
          2   -1    0    0  502    0  0.00000000000E+00  0.00000000000E+00  0.55029252251E+02  0.55029252251E+02  0.00000000000E+00 0. -1.
          1   -1    0    0  501    0 -0.00000000000E+00 -0.00000000000E+00 -0.39533609178E+03  0.39533609178E+03  0.00000000000E+00 0.  1.
          2    1    1    2  501    0 -0.31603293506E+02  0.15923035811E+02 -0.46274876246E+02  0.58255260719E+02  0.00000000000E+00 0. -1.
          1    1    1    2  502    0  0.39913715803E+02  0.90221717851E+01 -0.25714095582E+03  0.26037660313E+03  0.00000000000E+00 0.  1.
         22    1    1    2    0    0 -0.22274570501E+02 -0.22970632514E+02 -0.80114254791E+02  0.86267608463E+02  0.00000000000E+00 0. -1.
         22    1    1    2    0    0  0.13964148204E+02 -0.19745750824E+01  0.43223247332E+02  0.45465871725E+02  0.00000000000E+00 0. -1.
</event>
<event>
 6    1  0.2809573E-005  0.1148771E+03  0.7818608E-02  0.1326078E+00
          2   -1    0    0  502    0  0.00000000000E+00  0.00000000000E+00  0.21077489373E+03  0.21077489373E+03  0.00000000000E+00 0.  1.
          1   -1    0    0  501    0 -0.00000000000E+00 -0.00000000000E+00 -0.23231789939E+03  0.23231789939E+03  0.00000000000E+00 0.  1.
          2    1    1    2  501    0 -0.96230883482E+02 -0.17093973470E+02 -0.46245187329E+02  0.10812587209E+03  0.00000000000E+00 0.  1.
          1    1    1    2  502    0  0.84721891147E+02  0.28373046924E+02 -0.11700839863E+03  0.14722022273E+03  0.00000000000E+00 0.  1.
         22    1    1    2    0    0  0.50803245960E+01  0.16460758899E+02 -0.18352201290E+02  0.25170807967E+02  0.00000000000E+00 0. -1.
         22    1    1    2    0    0  0.64286677395E+01 -0.27739832352E+02  0.16006278159E+03  0.16257589033E+03  0.00000000000E+00 0.  1.
</event>
<event>
 6    1  0.2809573E-005  0.1537223E+03  0.7818608E-02  0.1258762E+00
          2   -1    0    0  502    0  0.00000000000E+00  0.00000000000E+00  0.71476203724E+02  0.71476203724E+02  0.00000000000E+00 0. -1.
          1   -1    0    0  501    0 -0.00000000000E+00 -0.00000000000E+00 -0.14462043398E+04  0.14462043398E+04  0.00000000000E+00 0. -1.
          2    1    1    2  501    0 -0.98393769765E+02 -0.93138173651E+02 -0.58653547346E+03  0.60197999547E+03  0.00000000000E+00 0. -1.
          1    1    1    2  502    0  0.81434328769E+02  0.25179521417E+02 -0.76568847037E+03  0.77041832263E+03  0.00000000000E+00 0. -1.
         22    1    1    2    0    0  0.20504071194E+02  0.36384090939E+02  0.50577836793E+02  0.65592199107E+02  0.00000000000E+00 0. -1.
         22    1    1    2    0    0 -0.35446301981E+01  0.31574561295E+02 -0.73082029029E+02  0.79690026297E+02  0.00000000000E+00 0. -1.
</event>
<event>
 6    1  0.2809573E-005  0.8332960E+02  0.7818608E-02  0.1336643E+00
          2   -1    0    0  502    0  0.00000000000E+00  0.00000000000E+00  0.51987330338E+02  0.51987330338E+02  0.00000000000E+00 0.  1.
          1   -1    0    0  501    0 -0.00000000000E+00 -0.00000000000E+00 -0.83634474851E+03  0.83634474851E+03  0.00000000000E+00 0.  1.
          2    1    1    2  501    0  0.22281942781E+02  0.34001690716E+02 -0.45791643397E+03  0.45971737018E+03  0.00000000000E+00 0.  1.
          1    1    1    2  502    0 -0.10533837226E+03 -0.60877144999E+01 -0.21856446145E+03  0.24270075555E+03  0.00000000000E+00 0.  1.
         22    1    1    2    0    0  0.29237546468E+02  0.28155875313E+01 -0.11932878287E+03  0.12289068345E+03  0.00000000000E+00 0. -1.
         22    1    1    2    0    0  0.53818883016E+02 -0.30729563747E+02  0.11452260120E+02  0.63023269663E+02  0.00000000000E+00 0.  1.
</event>
<event>
 6    1  0.2809573E-005  0.1811395E+03  0.7818608E-02  0.1239613E+00
          2   -1    0    0  502    0  0.00000000000E+00  0.00000000000E+00  0.13554626309E+03  0.13554626309E+03  0.00000000000E+00 0. -1.
          1   -1    0    0  501    0 -0.00000000000E+00 -0.00000000000E+00 -0.46514425970E+03  0.46514425970E+03  0.00000000000E+00 0.  1.
          2    1    1    2  501    0 -0.12576439455E+02  0.44666140992E+02 -0.41672042743E+02  0.62368182007E+02  0.00000000000E+00 0. -1.
          1    1    1    2  502    0  0.94998464676E+02 -0.32566049185E+02 -0.35893368826E+03  0.37271792071E+03  0.00000000000E+00 0.  1.
         22    1    1    2    0    0 -0.10104737323E+03 -0.44579787000E+02  0.63567063160E+02  0.12743116010E+03  0.00000000000E+00 0. -1.
         22    1    1    2    0    0  0.18625348009E+02  0.32479695192E+02  0.74406712353E+01  0.38173259969E+02  0.00000000000E+00 0.  1.
</event>
<event>
 6    1  0.2809573E-005  0.5989436E+02  0.7818608E-02  0.1399596E+00
          2   -1    0    0  502    0  0.00000000000E+00  0.00000000000E+00  0.12286000777E+03  0.12286000777E+03  0.00000000000E+00 0.  1.
          1   -1    0    0  501    0 -0.00000000000E+00 -0.00000000000E+00 -0.72899106984E+02  0.72899106984E+02  0.00000000000E+00 0.  1.
          2    1    1    2  501    0  0.21588457088E+02  0.16010371768E+01  0.31080307018E+02  0.37876249601E+02  0.00000000000E+00 0.  1.
          1    1    1    2  502    0 -0.13304162860E+02  0.19279819344E+02 -0.95595330324E+01  0.25300135477E+02  0.00000000000E+00 0.  1.
         22    1    1    2    0    0  0.34456086674E+02  0.18549288805E+02  0.55931313184E+02  0.68261334726E+02  0.00000000000E+00 0.  1.
         22    1    1    2    0    0 -0.42740380903E+02 -0.39430145325E+02 -0.27491186381E+02  0.64321394953E+02  0.00000000000E+00 0.  1.
</event>
<event>
 6    1  0.2809573E-005  0.1421755E+03  0.7818608E-02  0.1210841E+00
          2   -1    0    0  502    0  0.00000000000E+00  0.00000000000E+00  0.18492322073E+03  0.18492322073E+03  0.00000000000E+00 0.  1.
          1   -1    0    0  501    0 -0.00000000000E+00 -0.00000000000E+00 -0.13191818934E+04  0.13191818934E+04  0.00000000000E+00 0. -1.
          2    1    1    2  501    0  0.96703793081E+02 -0.79089093372E+02  0.99883550048E+02  0.15994821617E+03  0.00000000000E+00 0.  1.
          1    1    1    2  502    0 -0.10874466668E+02 -0.24090614615E+02 -0.11370358004E+04  0.11373429663E+04  0.00000000000E+00 0. -1.
         22    1    1    2    0    0  0.15498347292E+02 -0.43316498858E+01  0.14498967491E+02  0.21660609821E+02  0.00000000000E+00 0.  1.
         22    1    1    2    0    0 -0.10132767371E+03  0.10751135787E+03 -0.11160538980E+03  0.18515332177E+03  0.00000000000E+00 0.  1.
</event>
<event>
 6    1  0.2809573E-005  0.2781986E+03  0.7818608E-02  0.1139646E+00
          2   -1    0    0  502    0  0.00000000000E+00  0.00000000000E+00  0.12172452023E+04  0.12172452023E+04  0.00000000000E+00 0.  1.
          1   -1    0    0  501    0 -0.00000000000E+00 -0.00000000000E+00 -0.18390102433E+04  0.18390102433E+04  0.00000000000E+00 0.  1.
          2    1    1    2  501    0  0.87824130619E+01 -0.85097848559E+02  0.53042361837E+03  0.53727831664E+03  0.00000000000E+00 0.  1.
          1    1    1    2  502    0 -0.90874887630E+02  0.24443584303E+03 -0.18080545347E+04  0.18267644421E+04  0.00000000000E+00 0.  1.
         22    1    1    2    0    0  0.99093299742E+02 -0.66276291683E+02  0.45216054286E+03  0.46761221692E+03  0.00000000000E+00 0. -1.
         22    1    1    2    0    0 -0.17000825174E+02 -0.93061702786E+02  0.20370533249E+03  0.22460046987E+03  0.00000000000E+00 0.  1.
</event>
<event>
 6    1  0.2809573E-005  0.9984586E+02  0.7818608E-02  0.1357839E+00
          2   -1    0    0  502    0  0.00000000000E+00  0.00000000000E+00  0.47174832655E+02  0.47174832655E+02  0.00000000000E+00 0. -1.
          1   -1    0    0  501    0 -0.00000000000E+00 -0.00000000000E+00 -0.21797421578E+04  0.21797421578E+04  0.00000000000E+00 0. -1.
          2    1    1    2  501    0  0.29811104653E+01  0.27055576607E+02 -0.33563866286E+02  0.43213705756E+02  0.00000000000E+00 0. -1.
          1    1    1    2  502    0 -0.30790672379E+02 -0.95336468284E+02 -0.20134805498E+04  0.20159714859E+04  0.00000000000E+00 0. -1.
         22    1    1    2    0    0  0.12588682410E+02  0.48380164416E+02 -0.11715763274E+03  0.12737749464E+03  0.00000000000E+00 0. -1.
         22    1    1    2    0    0  0.15220879504E+02  0.19900727261E+02  0.31634723678E+02  0.40354304115E+02  0.00000000000E+00 0. -1.
</event>
<event>
 6    1  0.2809573E-005  0.7506881E+02  0.7818608E-02  0.1385804E+00
          2   -1    0    0  502    0  0.00000000000E+00  0.00000000000E+00  0.24012421974E+02  0.24012421974E+02  0.00000000000E+00 0. -1.
          1   -1    0    0  501    0 -0.00000000000E+00 -0.00000000000E+00 -0.12760693880E+04  0.12760693880E+04  0.00000000000E+00 0. -1.
          2    1    1    2  501    0  0.26400552715E+02  0.25618477409E+02 -0.67319155934E+03  0.67419594417E+03  0.00000000000E+00 0. -1.
          1    1    1    2  502    0 -0.14131837178E+02 -0.37600163447E+02 -0.43409117337E+03  0.43594567082E+03  0.00000000000E+00 0. -1.
         22    1    1    2    0    0 -0.33253086326E+02 -0.16561761890E+02  0.36672778133E+01  0.37329728551E+02  0.00000000000E+00 0. -1.
         22    1    1    2    0    0  0.20984370789E+02  0.28543447928E+02 -0.14844151116E+03  0.15261046646E+03  0.00000000000E+00 0. -1.
</event>
<event>
 6    1  0.2809573E-005  0.3023298E+03  0.7818608E-02  0.1195823E+00
          2   -1    0    0  502    0  0.00000000000E+00  0.00000000000E+00  0.15814108270E+04  0.15814108270E+04  0.00000000000E+00 0.  1.
          1   -1    0    0  501    0 -0.00000000000E+00 -0.00000000000E+00 -0.15611044684E+03  0.15611044684E+03  0.00000000000E+00 0.  1.
          2    1    1    2  501    0  0.12231058049E+03  0.29055757629E+01  0.63414244005E+03  0.64583663162E+03  0.00000000000E+00 0.  1.
          1    1    1    2  502    0 -0.27907610421E+03 -0.70342127459E+02  0.15754754010E+02  0.28823549245E+03  0.00000000000E+00 0.  1.
         22    1    1    2    0    0 -0.11919544814E+02 -0.16399118094E+02  0.11204666131E+03  0.11386597795E+03  0.00000000000E+00 0.  1.
         22    1    1    2    0    0  0.16868506853E+03  0.83835669790E+02  0.66335652477E+03  0.68958317180E+03  0.00000000000E+00 0.  1.
</event>
<event>
 6    1  0.2809573E-005  0.4937681E+02  0.7818608E-02  0.1483685E+00
          2   -1    0    0  502    0  0.00000000000E+00  0.00000000000E+00  0.88776982866E+02  0.88776982866E+02  0.00000000000E+00 0.  1.
          1   -1    0    0  501    0 -0.00000000000E+00 -0.00000000000E+00 -0.72219665883E+03  0.72219665883E+03  0.00000000000E+00 0. -1.
          2    1    1    2  501    0 -0.21011608959E+02  0.14448912349E+02 -0.19607824250E+02  0.32167150184E+02  0.00000000000E+00 0.  1.
          1    1    1    2  502    0  0.10594110168E+02  0.18636181448E+02 -0.64800378223E+03  0.64835826841E+03  0.00000000000E+00 0. -1.
         22    1    1    2    0    0 -0.17535129745E+02 -0.23068685623E+02 -0.40656066416E+02  0.49925552255E+02  0.00000000000E+00 0.  1.
         22    1    1    2    0    0  0.27952628536E+02 -0.10016408174E+02  0.74847996936E+02  0.80522670845E+02  0.00000000000E+00 0.  1.
</event>
<event>
 6    1  0.2809573E-005  0.1929909E+03  0.7818608E-02  0.1215379E+00
          2   -1    0    0  502    0  0.00000000000E+00  0.00000000000E+00  0.57560754439E+03  0.57560754439E+03  0.00000000000E+00 0. -1.
          1   -1    0    0  501    0 -0.00000000000E+00 -0.00000000000E+00 -0.14741227647E+03  0.14741227647E+03  0.00000000000E+00 0. -1.
          2    1    1    2  501    0 -0.16057197207E+02 -0.28297011180E+02  0.29857709918E+02  0.44159226277E+02  0.00000000000E+00 0. -1.
          1    1    1    2  502    0  0.16770870541E+03  0.97039207562E+02 -0.35387772571E+02  0.19696474843E+03  0.00000000000E+00 0. -1.
         22    1    1    2    0    0 -0.10936636103E+03 -0.97560672455E+02  0.23725564790E+03  0.27887152633E+03  0.00000000000E+00 0. -1.
         22    1    1    2    0    0 -0.42285147170E+02  0.28818476072E+02  0.19646968267E+03  0.20302431983E+03  0.00000000000E+00 0. -1.
</event>
<event>
 6    1  0.2809573E-005  0.2322281E+03  0.7818608E-02  0.1241571E+00
          2   -1    0    0  502    0  0.00000000000E+00  0.00000000000E+00  0.10267906777E+04  0.10267906777E+04  0.00000000000E+00 0. -1.
          1   -1    0    0  501    0 -0.00000000000E+00 -0.00000000000E+00 -0.66648055176E+02  0.66648055176E+02  0.00000000000E+00 0.  1.
          2    1    1    2  501    0  0.23433727178E+02  0.24482463478E+02  0.61938188146E+02  0.70603609951E+02  0.00000000000E+00 0. -1.
          1    1    1    2  502    0 -0.18028899118E+03 -0.13308395047E+03  0.24685605319E+03  0.33339671446E+03  0.00000000000E+00 0.  1.
         22    1    1    2    0    0  0.17110838044E+03  0.11800555427E+03  0.58146195519E+03  0.61749606802E+03  0.00000000000E+00 0. -1.
         22    1    1    2    0    0 -0.14253116442E+02 -0.94040672764E+01  0.69886425968E+02  0.71942340414E+02  0.00000000000E+00 0.  1.
</event>
<event>
 6    1  0.2809573E-005  0.6343282E+03  0.7818608E-02  0.1111383E+00
          2   -1    0    0  502    0  0.00000000000E+00  0.00000000000E+00  0.17045845106E+04  0.17045845106E+04  0.00000000000E+00 0. -1.
          1   -1    0    0  501    0 -0.00000000000E+00 -0.00000000000E+00 -0.36557845359E+03  0.36557845359E+03  0.00000000000E+00 0.  1.
          2    1    1    2  501    0  0.25862724157E+02  0.26977087185E+03  0.42857388225E+03  0.50707078041E+03  0.00000000000E+00 0. -1.
          1    1    1    2  502    0  0.18221465560E+02  0.42621348629E+02 -0.30120373710E+03  0.30474955686E+03  0.00000000000E+00 0.  1.
         22    1    1    2    0    0 -0.12996907654E+02  0.94495668972E+01  0.68334082747E+02  0.70198011283E+02  0.00000000000E+00 0. -1.
         22    1    1    2    0    0 -0.31087282064E+02 -0.32184178738E+03  0.11433018291E+04  0.11881446156E+04  0.00000000000E+00 0. -1.
</event>
<event>
 6    1  0.2809573E-005  0.1040418E+03  0.7818608E-02  0.1274727E+00
          2   -1    0    0  502    0  0.00000000000E+00  0.00000000000E+00  0.35283303528E+03  0.35283303528E+03  0.00000000000E+00 0.  1.
          1   -1    0    0  501    0 -0.00000000000E+00 -0.00000000000E+00 -0.23374169356E+03  0.23374169356E+03  0.00000000000E+00 0.  1.
          2    1    1    2  501    0  0.14656444756E+02 -0.72421950048E+02  0.11768153479E+03  0.13895572623E+03  0.00000000000E+00 0.  1.
          1    1    1    2  502    0  0.68608422540E+02  0.36210482087E+02 -0.18848642680E+03  0.20382700446E+03  0.00000000000E+00 0.  1.
         22    1    1    2    0    0  0.19296447647E+02 -0.20200158895E+02  0.73885718163E+02  0.78990497274E+02  0.00000000000E+00 0.  1.
         22    1    1    2    0    0 -0.10256131494E+03  0.56411626856E+02  0.11601051558E+03  0.16480150088E+03  0.00000000000E+00 0. -1.
</event>
<event>
 6    1  0.2809573E-005  0.7262011E+02  0.7818608E-02  0.1377804E+00
          2   -1    0    0  502    0  0.00000000000E+00  0.00000000000E+00  0.35376417655E+03  0.35376417655E+03  0.00000000000E+00 0.  1.
          1   -1    0    0  501    0 -0.00000000000E+00 -0.00000000000E+00 -0.13831951001E+03  0.13831951001E+03  0.00000000000E+00 0.  1.
          2    1    1    2  501    0 -0.46981981244E+02  0.57534284263E+00 -0.10768992803E+03  0.11749365166E+03  0.00000000000E+00 0.  1.
          1    1    1    2  502    0  0.16768594172E+02  0.45744239062E+02  0.84127065648E+02  0.97216687520E+02  0.00000000000E+00 0.  1.
         22    1    1    2    0    0  0.11163576556E+02 -0.45385605141E+02  0.25068828221E+03  0.25500802622E+03  0.00000000000E+00 0.  1.
         22    1    1    2    0    0  0.19049810516E+02 -0.93397676422E+00 -0.11680753293E+02  0.22365321164E+02  0.00000000000E+00 0. -1.
</event>
<event>
 6    1  0.2809573E-005  0.2438803E+03  0.7818608E-02  0.1212459E+00
          2   -1    0    0  502    0  0.00000000000E+00  0.00000000000E+00  0.15811947704E+03  0.15811947704E+03  0.00000000000E+00 0.  1.
          1   -1    0    0  501    0 -0.00000000000E+00 -0.00000000000E+00 -0.74682181067E+03  0.74682181067E+03  0.00000000000E+00 0.  1.
          2    1    1    2  501    0 -0.17311940792E+03 -0.49527517957E+02 -0.39661320046E+03  0.43557471829E+03  0.00000000000E+00 0.  1.
          1    1    1    2  502    0  0.19993781662E+03  0.10636061181E+03  0.56766738461E+01  0.22653903612E+03  0.00000000000E+00 0.  1.
         22    1    1    2    0    0 -0.26917717019E+02 -0.17994747336E+01  0.93288640971E+01  0.28545215083E+02  0.00000000000E+00 0. -1.
         22    1    1    2    0    0  0.99308323693E-01 -0.55033619120E+02 -0.20709467112E+03  0.21428231822E+03  0.00000000000E+00 0.  1.
</event>
<event>
 6    1  0.2809573E-005  0.8678567E+02  0.7818608E-02  0.1311631E+00
          2   -1    0    0  502    0  0.00000000000E+00  0.00000000000E+00  0.12900000477E+03  0.12900000477E+03  0.00000000000E+00 0. -1.
          1   -1    0    0  501    0 -0.00000000000E+00 -0.00000000000E+00 -0.73163329428E+03  0.73163329428E+03  0.00000000000E+00 0.  1.
          2    1    1    2  501    0  0.46927306377E+02 -0.76860643977E+01 -0.72186609036E+02  0.86441623040E+02  0.00000000000E+00 0. -1.
          1    1    1    2  502    0  0.35709951471E+01  0.60804579539E+02 -0.60729331303E+03  0.61034016495E+03  0.00000000000E+00 0.  1.
         22    1    1    2    0    0  0.22913704682E+02  0.51446111455E+00 -0.20429748790E+02  0.30703048189E+02  0.00000000000E+00 0.  1.
         22    1    1    2    0    0 -0.73412006206E+02 -0.53632976256E+02  0.97276381341E+02  0.13314846287E+03  0.00000000000E+00 0. -1.
</event>
<event>
 6    1  0.2809573E-005  0.9294663E+02  0.7818608E-02  0.1350322E+00
          2   -1    0    0  502    0  0.00000000000E+00  0.00000000000E+00  0.72128232448E+02  0.72128232448E+02  0.00000000000E+00 0. -1.
          1   -1    0    0  501    0 -0.00000000000E+00 -0.00000000000E+00 -0.46332229441E+03  0.46332229441E+03  0.00000000000E+00 0. -1.
          2    1    1    2  501    0  0.27562680386E+01 -0.52681440918E+02 -0.13376734646E+03  0.14379372104E+03  0.00000000000E+00 0. -1.
          1    1    1    2  502    0  0.22076182642E+02  0.74159249567E+02 -0.24603969533E+03  0.25791952973E+03  0.00000000000E+00 0. -1.
         22    1    1    2    0    0 -0.18798692714E+02  0.29854578325E+02  0.45042521195E+02  0.57214643321E+02  0.00000000000E+00 0. -1.
         22    1    1    2    0    0 -0.60337579660E+01 -0.51332386973E+02 -0.56429541366E+02  0.76522632772E+02  0.00000000000E+00 0. -1.
</event>
<event>
 6    1  0.2809573E-005  0.5997378E+02  0.7818608E-02  0.1453537E+00
          2   -1    0    0  502    0  0.00000000000E+00  0.00000000000E+00  0.56830682250E+02  0.56830682250E+02  0.00000000000E+00 0.  1.
          1   -1    0    0  501    0 -0.00000000000E+00 -0.00000000000E+00 -0.33918218106E+03  0.33918218106E+03  0.00000000000E+00 0.  1.
          2    1    1    2  501    0 -0.49179193219E+01  0.22684624161E+02 -0.12303022509E+02  0.26270562740E+02  0.00000000000E+00 0.  1.
          1    1    1    2  502    0 -0.12440698051E+02 -0.20396626986E+02 -0.23359708993E+03  0.23481565915E+03  0.00000000000E+00 0.  1.
         22    1    1    2    0    0 -0.24308383158E+02 -0.61940007263E+01  0.40321790270E+02  0.47487997508E+02  0.00000000000E+00 0.  1.
         22    1    1    2    0    0  0.41667000531E+02  0.39060035508E+01 -0.76773176642E+02  0.87438643909E+02  0.00000000000E+00 0.  1.
</event>
<event>
 6    1  0.2809573E-005  0.1569279E+03  0.7818608E-02  0.1236044E+00
          2   -1    0    0  502    0  0.00000000000E+00  0.00000000000E+00  0.91835389440E+02  0.91835389440E+02  0.00000000000E+00 0.  1.
          1   -1    0    0  501    0 -0.00000000000E+00 -0.00000000000E+00 -0.60841993575E+03  0.60841993575E+03  0.00000000000E+00 0. -1.
          2    1    1    2  501    0  0.75537768541E+02 -0.89901037747E+02 -0.24538757469E+02  0.11995958354E+03  0.00000000000E+00 0.  1.
          1    1    1    2  502    0 -0.35950195147E+02  0.75284498830E+02 -0.42792408158E+03  0.43598072422E+03  0.00000000000E+00 0. -1.
         22    1    1    2    0    0 -0.60808002089E+02 -0.11718713837E+02  0.10105337425E+02  0.62745989645E+02  0.00000000000E+00 0.  1.
         22    1    1    2    0    0  0.21220428695E+02  0.26335252754E+02 -0.74227044695E+02  0.81569027797E+02  0.00000000000E+00 0.  1.
</event>
<event>
 6    1  0.2809573E-005  0.2360734E+03  0.7818608E-02  0.1251748E+00
          2   -1    0    0  502    0  0.00000000000E+00  0.00000000000E+00  0.10083221903E+03  0.10083221903E+03  0.00000000000E+00 0. -1.
          1   -1    0    0  501    0 -0.00000000000E+00 -0.00000000000E+00 -0.35437772165E+03  0.35437772165E+03  0.00000000000E+00 0. -1.
          2    1    1    2  501    0  0.11156097602E+03 -0.84282352346E+02 -0.12311321698E+03  0.18629608285E+03  0.00000000000E+00 0. -1.
          1    1    1    2  502    0 -0.56990570617E+02 -0.10077206147E+02 -0.65299950881E+02  0.87255709315E+02  0.00000000000E+00 0. -1.
         22    1    1    2    0    0 -0.11981558681E+02  0.56565353443E+01  0.37322892647E+02  0.39604954944E+02  0.00000000000E+00 0. -1.
         22    1    1    2    0    0 -0.42588846723E+02  0.88703023149E+02 -0.10245522741E+03  0.14205319357E+03  0.00000000000E+00 0.  1.
</event>
<event>
 6    1  0.2809573E-005  0.9015299E+02  0.7818608E-02  0.1340432E+00
          2   -1    0    0  502    0  0.00000000000E+00  0.00000000000E+00  0.10679276696E+03  0.10679276696E+03  0.00000000000E+00 0.  1.
          1   -1    0    0  501    0 -0.00000000000E+00 -0.00000000000E+00 -0.26045220650E+03  0.26045220650E+03  0.00000000000E+00 0.  1.
          2    1    1    2  501    0  0.64467722134E+02  0.12094425295E+02 -0.72486936225E+02  0.97758468910E+02  0.00000000000E+00 0.  1.
          1    1    1    2  502    0 -0.90184469925E+02  0.20054377820E+02 -0.98923618086E+02  0.13535619269E+03  0.00000000000E+00 0.  1.
         22    1    1    2    0    0  0.16281881605E+02  0.12693377881E+02 -0.48995614141E+02  0.53167581435E+02  0.00000000000E+00 0. -1.
         22    1    1    2    0    0  0.94348661871E+01 -0.44842180996E+02  0.66746728908E+02  0.80962730416E+02  0.00000000000E+00 0. -1.
</event>
<event>
 6    1  0.2809573E-005  0.1523137E+03  0.7818608E-02  0.1266310E+00
          2   -1    0    0  502    0  0.00000000000E+00  0.00000000000E+00  0.18740918185E+03  0.18740918185E+03  0.00000000000E+00 0. -1.
          1   -1    0    0  501    0 -0.00000000000E+00 -0.00000000000E+00 -0.19773108788E+03  0.19773108788E+03  0.00000000000E+00 0. -1.
          2    1    1    2  501    0  0.28450585848E+02  0.57255151119E+02  0.26677546707E+02  0.69276833523E+02  0.00000000000E+00 0. -1.
          1    1    1    2  502    0 -0.11365501667E+03 -0.70473022580E+02 -0.80829322304E+02  0.15626032469E+03  0.00000000000E+00 0. -1.
         22    1    1    2    0    0 -0.68991734314E+01 -0.36388279234E+02  0.40579245651E+02  0.54939791019E+02  0.00000000000E+00 0.  1.
         22    1    1    2    0    0  0.92103604257E+02  0.49606150695E+02  0.32506239191E+01  0.10466332051E+03  0.00000000000E+00 0. -1.
</event>
<event>
 6    1  0.2809573E-005  0.1072518E+03  0.7818608E-02  0.1303244E+00
          2   -1    0    0  502    0  0.00000000000E+00  0.00000000000E+00  0.28242740166E+03  0.28242740166E+03  0.00000000000E+00 0.  1.
          1   -1    0    0  501    0 -0.00000000000E+00 -0.00000000000E+00 -0.18738528175E+03  0.18738528175E+03  0.00000000000E+00 0. -1.
          2    1    1    2  501    0 -0.29867063642E+01 -0.64140327300E+02  0.42425327006E+02  0.76959797119E+02  0.00000000000E+00 0.  1.
          1    1    1    2  502    0 -0.11579690361E+02  0.16642967064E+02 -0.14886072612E+03  0.15023512692E+03  0.00000000000E+00 0. -1.
         22    1    1    2    0    0  0.47774785328E+02  0.23098115428E+02  0.19349993926E+03  0.20064441069E+03  0.00000000000E+00 0.  1.
         22    1    1    2    0    0 -0.33208388604E+02  0.24399244808E+02  0.79775797615E+01  0.41973348683E+02  0.00000000000E+00 0. -1.
</event>
<event>
 6    1  0.2809573E-005  0.7584934E+03  0.7818608E-02  0.1104431E+00
          2   -1    0    0  502    0  0.00000000000E+00  0.00000000000E+00  0.75268011115E+03  0.75268011115E+03  0.00000000000E+00 0.  1.
          1   -1    0    0  501    0 -0.00000000000E+00 -0.00000000000E+00 -0.52931509346E+03  0.52931509346E+03  0.00000000000E+00 0. -1.
          2    1    1    2  501    0  0.17573373168E+02  0.80087151303E+02 -0.17738322987E+03  0.19541644119E+03  0.00000000000E+00 0.  1.
          1    1    1    2  502    0 -0.33672282630E+03 -0.13145835161E+03 -0.18555069128E+03  0.40631591034E+03  0.00000000000E+00 0. -1.
         22    1    1    2    0    0 -0.10506404963E+02  0.39581709414E+01  0.12411613753E+02  0.16736182910E+02  0.00000000000E+00 0.  1.
         22    1    1    2    0    0  0.32965585809E+03  0.47413029364E+02  0.57388732509E+03  0.66352667017E+03  0.00000000000E+00 0.  1.
</event>
<event>
 6    1  0.2809573E-005  0.2219017E+03  0.7818608E-02  0.1263050E+00
          2   -1    0    0  502    0  0.00000000000E+00  0.00000000000E+00  0.11084163588E+03  0.11084163588E+03  0.00000000000E+00 0.  1.
          1   -1    0    0  501    0 -0.00000000000E+00 -0.00000000000E+00 -0.27765847916E+03  0.27765847916E+03  0.00000000000E+00 0. -1.
          2    1    1    2  501    0  0.33759769013E+02 -0.12773227479E+03 -0.96855066517E+02  0.16381745919E+03  0.00000000000E+00 0.  1.
          1    1    1    2  502    0 -0.49324330819E+02  0.42567779417E+02 -0.20988102952E+02  0.68450024987E+02  0.00000000000E+00 0. -1.
         22    1    1    2    0    0  0.28196906373E+02  0.86992118546E+02 -0.80744767601E+02  0.12199349045E+03  0.00000000000E+00 0. -1.
         22    1    1    2    0    0 -0.12632344568E+02 -0.18276231736E+01  0.31771093783E+02  0.34239140408E+02  0.00000000000E+00 0.  1.
</event>
<event>
 6    1  0.2809573E-005  0.1265278E+03  0.7818608E-02  0.1274201E+00
          2   -1    0    0  502    0  0.00000000000E+00  0.00000000000E+00  0.29507844691E+02  0.29507844691E+02  0.00000000000E+00 0.  1.
          1   -1    0    0  501    0 -0.00000000000E+00 -0.00000000000E+00 -0.13186436493E+04  0.13186436493E+04  0.00000000000E+00 0.  1.
          2    1    1    2  501    0  0.40016202561E+02  0.55732691348E+01 -0.10430684863E+03  0.11185828743E+03  0.00000000000E+00 0.  1.
          1    1    1    2  502    0 -0.11924335818E+03  0.23933648915E+02 -0.93571565819E+03  0.94358655724E+03  0.00000000000E+00 0.  1.
         22    1    1    2    0    0  0.45457041560E+02  0.31785748191E+02 -0.30786820544E+02  0.63438984345E+02  0.00000000000E+00 0. -1.
         22    1    1    2    0    0  0.33770114058E+02 -0.61292666241E+02 -0.21832647730E+03  0.22926766503E+03  0.00000000000E+00 0.  1.
</event>
<event>
 6    1  0.2809573E-005  0.1024474E+03  0.7818608E-02  0.1276564E+00
          2   -1    0    0  502    0  0.00000000000E+00  0.00000000000E+00  0.27587675221E+03  0.27587675221E+03  0.00000000000E+00 0. -1.
          1   -1    0    0  501    0 -0.00000000000E+00 -0.00000000000E+00 -0.59375668417E+02  0.59375668417E+02  0.00000000000E+00 0. -1.
          2    1    1    2  501    0 -0.13576663220E+02  0.39489467720E+02  0.19175802410E+02  0.45950573914E+02  0.00000000000E+00 0. -1.
          1    1    1    2  502    0  0.52151609857E+02 -0.56933091174E+02  0.40385523296E+02  0.87132989006E+02  0.00000000000E+00 0. -1.
         22    1    1    2    0    0  0.35474248743E+02 -0.15349501083E+02  0.21144702759E+02  0.44058233761E+02  0.00000000000E+00 0. -1.
         22    1    1    2    0    0 -0.74049195379E+02  0.32793124537E+02  0.13579505533E+03  0.15811062395E+03  0.00000000000E+00 0. -1.
</event>
<event>
 6    1  0.2809573E-005  0.4488611E+03  0.7818608E-02  0.1153366E+00
          2   -1    0    0  502    0  0.00000000000E+00  0.00000000000E+00  0.24242948113E+03  0.24242948113E+03  0.00000000000E+00 0.  1.
          1   -1    0    0  501    0 -0.00000000000E+00 -0.00000000000E+00 -0.49476115594E+03  0.49476115594E+03  0.00000000000E+00 0.  1.
          2    1    1    2  501    0 -0.79486923760E+02 -0.18073257298E+02 -0.19379535064E+03  0.21024141268E+03  0.00000000000E+00 0.  1.
          1    1    1    2  502    0  0.25996977254E+01 -0.53739357825E+02 -0.26246117630E+03  0.26791891698E+03  0.00000000000E+00 0.  1.
         22    1    1    2    0    0  0.10715245857E+01 -0.16203743131E+02 -0.74271522177E+01  0.17856988729E+02  0.00000000000E+00 0. -1.
         22    1    1    2    0    0  0.75815701449E+02  0.88016358254E+02  0.21135200435E+03  0.24117331869E+03  0.00000000000E+00 0.  1.
</event>
<event>
 6    1  0.4760539E-005  0.1257598E+03  0.7818608E-02  0.1273713E+00
          2   -1    0    0  502    0  0.00000000000E+00  0.00000000000E+00  0.33579273751E+03  0.33579273751E+03  0.00000000000E+00 0. -1.
          1   -1    0    0  501    0 -0.00000000000E+00 -0.00000000000E+00 -0.33888574196E+03  0.33888574196E+03  0.00000000000E+00 0. -1.
          2    1    1    2  501    0  0.57950543064E+02 -0.10277987851E+03 -0.25419851981E+03  0.28024784805E+03  0.00000000000E+00 0. -1.
          1    1    1    2  502    0 -0.15417535099E+02  0.80667692175E+02 -0.27256642582E+02  0.86532661546E+02  0.00000000000E+00 0. -1.
         22    1    1    2    0    0 -0.54974081975E+02  0.15144318595E+02  0.28606378247E+03  0.29169159692E+03  0.00000000000E+00 0. -1.
         22    1    1    2    0    0  0.12441074010E+02  0.69678677397E+01 -0.77016245320E+01  0.16206372938E+02  0.00000000000E+00 0. -1.
</event>
<event>
 6    1  0.2809573E-005  0.1836636E+03  0.7818608E-02  0.1249259E+00
          2   -1    0    0  502    0  0.00000000000E+00  0.00000000000E+00  0.37833207615E+03  0.37833207615E+03  0.00000000000E+00 0. -1.
          1   -1    0    0  501    0 -0.00000000000E+00 -0.00000000000E+00 -0.29229754451E+03  0.29229754451E+03  0.00000000000E+00 0. -1.
          2    1    1    2  501    0  0.20662479330E+02 -0.29602454183E+02 -0.19186039124E+03  0.19522718323E+03  0.00000000000E+00 0. -1.
          1    1    1    2  502    0 -0.12139468849E+02  0.13542818244E+03  0.27671886185E+03  0.30832043041E+03  0.00000000000E+00 0. -1.
         22    1    1    2    0    0 -0.33304757239E+02 -0.89693002831E+02 -0.50017471839E+02  0.10796197988E+03  0.00000000000E+00 0. -1.
         22    1    1    2    0    0  0.24781746758E+02 -0.16132725427E+02  0.51193532863E+02  0.59120027141E+02  0.00000000000E+00 0. -1.
</event>
<event>
 6    1  0.2809573E-005  0.7637498E+02  0.7818608E-02  0.1370480E+00
          2   -1    0    0  502    0  0.00000000000E+00  0.00000000000E+00  0.30466151628E+03  0.30466151628E+03  0.00000000000E+00 0.  1.
          1   -1    0    0  501    0 -0.00000000000E+00 -0.00000000000E+00 -0.99779035917E+02  0.99779035917E+02  0.00000000000E+00 0.  1.
          2    1    1    2  501    0  0.20549718940E+02 -0.38254901005E+02 -0.63359864992E+02  0.76812765158E+02  0.00000000000E+00 0.  1.
          1    1    1    2  502    0 -0.32128640154E+01  0.28922427732E+02 -0.34047415900E+01  0.29298832509E+02  0.00000000000E+00 0.  1.
         22    1    1    2    0    0  0.27055472027E+02  0.12084487376E+01  0.45694154514E+01  0.27465222965E+02  0.00000000000E+00 0.  1.
         22    1    1    2    0    0 -0.44392326952E+02  0.81240245358E+01  0.26707767149E+03  0.27086373156E+03  0.00000000000E+00 0.  1.
</event>
<event>
 6    1  0.2809573E-005  0.1348619E+03  0.7818608E-02  0.1264624E+00
          2   -1    0    0  502    0  0.00000000000E+00  0.00000000000E+00  0.10583090255E+03  0.10583090255E+03  0.00000000000E+00 0.  1.
          1   -1    0    0  501    0 -0.00000000000E+00 -0.00000000000E+00 -0.59913406292E+03  0.59913406292E+03  0.00000000000E+00 0. -1.
          2    1    1    2  501    0 -0.84877905264E+02  0.35279713065E+01 -0.12487275373E+02  0.85864063669E+02  0.00000000000E+00 0.  1.
          1    1    1    2  502    0  0.12207673476E+03  0.20663450250E+01 -0.47101752008E+03  0.48658452829E+03  0.00000000000E+00 0. -1.
         22    1    1    2    0    0 -0.57943280715E+02  0.45491175053E+02  0.91080046122E+01  0.74228205796E+02  0.00000000000E+00 0.  1.
         22    1    1    2    0    0  0.20744451220E+02 -0.51085491385E+02 -0.18906369532E+02  0.58288167713E+02  0.00000000000E+00 0.  1.
</event>
<event>
 6    1  0.2809573E-005  0.1231906E+03  0.7818608E-02  0.1279877E+00
          2   -1    0    0  502    0  0.00000000000E+00  0.00000000000E+00  0.40704227867E+02  0.40704227867E+02  0.00000000000E+00 0. -1.
          1   -1    0    0  501    0 -0.00000000000E+00 -0.00000000000E+00 -0.71170999769E+03  0.71170999769E+03  0.00000000000E+00 0. -1.
          2    1    1    2  501    0  0.51403667118E+01 -0.71515843553E+02 -0.44581591242E+03  0.45154486711E+03  0.00000000000E+00 0. -1.
          1    1    1    2  502    0 -0.53829828621E+02  0.20943073897E+02 -0.80368158138E+02  0.98971226304E+02  0.00000000000E+00 0. -1.
         22    1    1    2    0    0 -0.48254301686E+01  0.43992485426E+02 -0.14107077791E+03  0.14784988309E+03  0.00000000000E+00 0. -1.
         22    1    1    2    0    0  0.53514892078E+02  0.65802842302E+01 -0.37509213615E+01  0.54048249053E+02  0.00000000000E+00 0. -1.
</event>
<event>
 6    1  0.2809573E-005  0.5982003E+02  0.7818608E-02  0.1407224E+00
          2   -1    0    0  502    0  0.00000000000E+00  0.00000000000E+00  0.99451790289E+02  0.99451790289E+02  0.00000000000E+00 0.  1.
          1   -1    0    0  501    0 -0.00000000000E+00 -0.00000000000E+00 -0.13178919470E+04  0.13178919470E+04  0.00000000000E+00 0.  1.
          2    1    1    2  501    0 -0.17508411658E+02  0.42873681963E+02 -0.13445127687E+03  0.14220352646E+03  0.00000000000E+00 0.  1.
          1    1    1    2  502    0  0.47435279350E+02  0.20315352144E+01 -0.11286406968E+04  0.11296389049E+04  0.00000000000E+00 0.  1.
         22    1    1    2    0    0 -0.95725717192E+01 -0.51715858388E+02  0.84909778568E+02  0.99879100089E+02  0.00000000000E+00 0.  1.
         22    1    1    2    0    0 -0.20354295973E+02  0.68106412102E+01 -0.40257961581E+02  0.45622205875E+02  0.00000000000E+00 0.  1.
</event>
<event>
 6    1  0.2809573E-005  0.1762568E+03  0.7818608E-02  0.1268531E+00
          2   -1    0    0  502    0  0.00000000000E+00  0.00000000000E+00  0.36000818098E+02  0.36000818098E+02  0.00000000000E+00 0. -1.
          1   -1    0    0  501    0 -0.00000000000E+00 -0.00000000000E+00 -0.25735340573E+04  0.25735340573E+04  0.00000000000E+00 0. -1.
          2    1    1    2  501    0  0.34824723312E+02 -0.46486304150E+02 -0.12049622405E+03  0.13376500976E+03  0.00000000000E+00 0. -1.
          1    1    1    2  502    0 -0.38000174931E+02 -0.65847104173E+02 -0.21899080587E+04  0.21912273182E+04  0.00000000000E+00 0. -1.
         22    1    1    2    0    0  0.21531148893E+02  0.12601138047E+03 -0.22826331219E+03  0.26162300754E+03  0.00000000000E+00 0.  1.
         22    1    1    2    0    0 -0.18355697274E+02 -0.13677972151E+02  0.11343557768E+01  0.22919539865E+02  0.00000000000E+00 0.  1.
</event>
<event>
 6    1  0.2809573E-005  0.6169939E+03  0.7818608E-02  0.1068544E+00
          2   -1    0    0  502    0  0.00000000000E+00  0.00000000000E+00  0.10049448886E+04  0.10049448886E+04  0.00000000000E+00 0. -1.
          1   -1    0    0  501    0 -0.00000000000E+00 -0.00000000000E+00 -0.24314266220E+03  0.24314266220E+03  0.00000000000E+00 0. -1.
          2    1    1    2  501    0  0.19480942872E+03  0.13071061540E+03  0.13746747069E+03  0.27190675606E+03  0.00000000000E+00 0. -1.
          1    1    1    2  502    0 -0.11975873617E+03  0.25115984537E+03  0.69862263099E+02  0.28688701369E+03  0.00000000000E+00 0. -1.
         22    1    1    2    0    0  0.25283300886E+02 -0.47960335436E+02  0.12400899046E+03  0.13534278257E+03  0.00000000000E+00 0. -1.
         22    1    1    2    0    0 -0.10033399343E+03 -0.33391012533E+03  0.43046350211E+03  0.55395099846E+03  0.00000000000E+00 0. -1.
</event>
<event>
 6    1  0.2809573E-005  0.1888963E+03  0.7818608E-02  0.1265311E+00
          2   -1    0    0  502    0  0.00000000000E+00  0.00000000000E+00  0.20583634594E+03  0.20583634594E+03  0.00000000000E+00 0.  1.
          1   -1    0    0  501    0 -0.00000000000E+00 -0.00000000000E+00 -0.13013423026E+03  0.13013423026E+03  0.00000000000E+00 0.  1.
          2    1    1    2  501    0 -0.88804903440E+02  0.43330226759E+02  0.93074236884E+02  0.13574473470E+03  0.00000000000E+00 0.  1.
          1    1    1    2  502    0  0.63393228172E+02 -0.21504123598E+02 -0.28725490034E+02  0.72844234415E+02  0.00000000000E+00 0.  1.
         22    1    1    2    0    0  0.26800878737E+02 -0.20768711664E+01 -0.53337808623E+02  0.59728739511E+02  0.00000000000E+00 0. -1.
         22    1    1    2    0    0 -0.13892034692E+01 -0.19749231995E+02  0.64691177454E+02  0.67652867574E+02  0.00000000000E+00 0.  1.
</event>
<event>
 6    1  0.2809573E-005  0.1097620E+03  0.7818608E-02  0.1308077E+00
          2   -1    0    0  502    0  0.00000000000E+00  0.00000000000E+00  0.15513218216E+03  0.15513218216E+03  0.00000000000E+00 0.  1.
          1   -1    0    0  501    0 -0.00000000000E+00 -0.00000000000E+00 -0.45849614825E+03  0.45849614825E+03  0.00000000000E+00 0. -1.
          2    1    1    2  501    0 -0.45010461152E+02 -0.30121698633E+02  0.28754127939E+02  0.61319313557E+02  0.00000000000E+00 0.  1.
          1    1    1    2  502    0  0.83666190053E+02  0.58051652296E+02 -0.39267017647E+03  0.40565982446E+03  0.00000000000E+00 0. -1.
         22    1    1    2    0    0 -0.33549087589E+02 -0.72735768380E+02  0.62366886669E+02  0.10151680567E+03  0.00000000000E+00 0.  1.
         22    1    1    2    0    0 -0.51066413127E+01  0.44805814717E+02 -0.18148042275E+01  0.45132386735E+02  0.00000000000E+00 0.  1.
</event>
<event>
 6    1  0.2809573E-005  0.9006038E+02  0.7818608E-02  0.1305695E+00
          2   -1    0    0  502    0  0.00000000000E+00  0.00000000000E+00  0.18441101460E+03  0.18441101460E+03  0.00000000000E+00 0.  1.
          1   -1    0    0  501    0 -0.00000000000E+00 -0.00000000000E+00 -0.93188135631E+02  0.93188135631E+02  0.00000000000E+00 0.  1.
          2    1    1    2  501    0  0.11289497630E+02 -0.43549225077E+02  0.80860720245E+02  0.92533474160E+02  0.00000000000E+00 0.  1.
          1    1    1    2  502    0 -0.23296998582E+02  0.41345536135E+02 -0.21057273950E+02  0.51919286276E+02  0.00000000000E+00 0.  1.
         22    1    1    2    0    0  0.82339349969E+01  0.56782832773E+02 -0.17258542223E+02  0.59916150268E+02  0.00000000000E+00 0.  1.
         22    1    1    2    0    0  0.37735659551E+01 -0.54579143830E+02  0.48677974896E+02  0.73230239528E+02  0.00000000000E+00 0. -1.
</event>
<event>
 6    1  0.2809573E-005  0.2583540E+03  0.7818608E-02  0.1178658E+00
          2   -1    0    0  502    0  0.00000000000E+00  0.00000000000E+00  0.27016166164E+03  0.27016166164E+03  0.00000000000E+00 0. -1.
          1   -1    0    0  501    0 -0.00000000000E+00 -0.00000000000E+00 -0.21321290259E+04  0.21321290259E+04  0.00000000000E+00 0.  1.
          2    1    1    2  501    0  0.10735190267E+03 -0.17547814424E+02 -0.30436037440E+01  0.10881920934E+03  0.00000000000E+00 0. -1.
          1    1    1    2  502    0  0.90692746784E+01 -0.35792187377E+02 -0.20396929471E+04  0.20400271201E+04  0.00000000000E+00 0.  1.
         22    1    1    2    0    0 -0.21980743137E+02 -0.39335736586E+02  0.52070609001E+02  0.68860740364E+02  0.00000000000E+00 0.  1.
         22    1    1    2    0    0 -0.94440434209E+02  0.92675738387E+02  0.12869857751E+03  0.18458361778E+03  0.00000000000E+00 0. -1.
</event>
<event>
 6    1  0.2809573E-005  0.1648952E+03  0.7818608E-02  0.1233291E+00
          2   -1    0    0  502    0  0.00000000000E+00  0.00000000000E+00  0.71622802487E+02  0.71622802487E+02  0.00000000000E+00 0. -1.
          1   -1    0    0  501    0 -0.00000000000E+00 -0.00000000000E+00 -0.94545361297E+03  0.94545361297E+03  0.00000000000E+00 0. -1.
          2    1    1    2  501    0  0.81537695817E+02  0.21173882060E+02 -0.15459540497E+03  0.17605813914E+03  0.00000000000E+00 0. -1.
          1    1    1    2  502    0 -0.17736829443E+03  0.30089787270E+02 -0.62959827083E+03  0.65479683093E+03  0.00000000000E+00 0. -1.
         22    1    1    2    0    0  0.37741371031E+02 -0.42012100394E+02  0.21539431537E+02  0.60443153275E+02  0.00000000000E+00 0. -1.
         22    1    1    2    0    0  0.58089227584E+02 -0.92515689354E+01 -0.11117656623E+03  0.12577829211E+03  0.00000000000E+00 0. -1.
</event>
<event>
 6    1  0.2809573E-005  0.2351574E+03  0.7818608E-02  0.1217005E+00
          2   -1    0    0  502    0  0.00000000000E+00  0.00000000000E+00  0.64182406396E+02  0.64182406396E+02  0.00000000000E+00 0.  1.
          1   -1    0    0  501    0 -0.00000000000E+00 -0.00000000000E+00 -0.11875925884E+04  0.11875925884E+04  0.00000000000E+00 0.  1.
          2    1    1    2  501    0 -0.81966727940E+02  0.10578072180E+03 -0.22842633857E+03  0.26473892374E+03  0.00000000000E+00 0.  1.
          1    1    1    2  502    0  0.84470534367E+02 -0.10359206232E+03 -0.84691592760E+03  0.85739907568E+03  0.00000000000E+00 0.  1.
         22    1    1    2    0    0 -0.26531412882E+02 -0.15212392434E+02  0.32459778023E+02  0.44597869258E+02  0.00000000000E+00 0.  1.
         22    1    1    2    0    0  0.24027606456E+02  0.13023732961E+02 -0.80527693873E+02  0.85039126128E+02  0.00000000000E+00 0. -1.
</event>
<event>
 6    1  0.2809573E-005  0.9628991E+02  0.7818608E-02  0.1396305E+00
          2   -1    0    0  502    0  0.00000000000E+00  0.00000000000E+00  0.11633796923E+03  0.11633796923E+03  0.00000000000E+00 0.  1.
          1   -1    0    0  501    0 -0.00000000000E+00 -0.00000000000E+00 -0.21741924677E+03  0.21741924677E+03  0.00000000000E+00 0. -1.
          2    1    1    2  501    0  0.22158457348E+02 -0.10122157095E+02  0.13510245664E+02  0.27856454085E+02  0.00000000000E+00 0.  1.
          1    1    1    2  502    0 -0.29174639091E+02  0.69302464970E+02 -0.14345650476E+03  0.16196839190E+03  0.00000000000E+00 0. -1.
         22    1    1    2    0    0 -0.84416866878E+01  0.12245514284E+02  0.61951573414E+02  0.63711946625E+02  0.00000000000E+00 0. -1.
         22    1    1    2    0    0  0.15457868431E+02 -0.71425822159E+02 -0.33086591863E+02  0.80220423388E+02  0.00000000000E+00 0.  1.
</event>
<event>
 6    1  0.2809573E-005  0.1281435E+03  0.7818608E-02  0.1233685E+00
          2   -1    0    0  502    0  0.00000000000E+00  0.00000000000E+00  0.76577578092E+03  0.76577578092E+03  0.00000000000E+00 0. -1.
          1   -1    0    0  501    0 -0.00000000000E+00 -0.00000000000E+00 -0.11732717020E+03  0.11732717020E+03  0.00000000000E+00 0. -1.
          2    1    1    2  501    0 -0.14221926943E+02  0.12880771491E+03  0.22797233974E+02  0.13158041079E+03  0.00000000000E+00 0. -1.
          1    1    1    2  502    0  0.66112573417E+02 -0.20775550733E+02 -0.29085176180E+02  0.75156126467E+02  0.00000000000E+00 0. -1.
         22    1    1    2    0    0 -0.13921421170E+02  0.51016407744E+01  0.48286397159E+01  0.15593218638E+02  0.00000000000E+00 0. -1.
         22    1    1    2    0    0 -0.37969225304E+02 -0.11313380495E+03  0.64990791320E+03  0.66077319523E+03  0.00000000000E+00 0. -1.
</event>
<event>
 6    1  0.2809573E-005  0.2104900E+03  0.7818608E-02  0.1251154E+00
          2   -1    0    0  502    0  0.00000000000E+00  0.00000000000E+00  0.28552565963E+03  0.28552565963E+03  0.00000000000E+00 0. -1.
          1   -1    0    0  501    0 -0.00000000000E+00 -0.00000000000E+00 -0.43113042969E+03  0.43113042969E+03  0.00000000000E+00 0.  1.
          2    1    1    2  501    0  0.75572473361E+01 -0.24790373349E+02  0.11019477095E+01  0.25940101905E+02  0.00000000000E+00 0. -1.
          1    1    1    2  502    0 -0.10493426894E+03  0.16949454722E+03 -0.34617965966E+03  0.39947460382E+03  0.00000000000E+00 0.  1.
         22    1    1    2    0    0 -0.90152712202E+01  0.16627966666E+02  0.16235209515E+02  0.24926821270E+02  0.00000000000E+00 0.  1.
         22    1    1    2    0    0  0.10639229282E+03 -0.16133214054E+03  0.18323773237E+03  0.26631456233E+03  0.00000000000E+00 0. -1.
</event>
<event>
 6    1  0.2809573E-005  0.1436823E+03  0.7818608E-02  0.1224743E+00
          2   -1    0    0  502    0  0.00000000000E+00  0.00000000000E+00  0.80333913376E+03  0.80333913376E+03  0.00000000000E+00 0.  1.
          1   -1    0    0  501    0 -0.00000000000E+00 -0.00000000000E+00 -0.12510435846E+03  0.12510435846E+03  0.00000000000E+00 0.  1.
          2    1    1    2  501    0  0.44722904394E+02 -0.87463433950E+02  0.49399018029E+03  0.50366287205E+03  0.00000000000E+00 0.  1.
          1    1    1    2  502    0  0.31424514468E+02  0.43036402026E+02 -0.93858820003E+02  0.10793104327E+03  0.00000000000E+00 0.  1.
         22    1    1    2    0    0 -0.45728373966E+02 -0.29168869898E+02  0.19222595052E+03  0.19973162797E+03  0.00000000000E+00 0.  1.
         22    1    1    2    0    0 -0.30419044896E+02  0.73595901821E+02  0.85877464486E+02  0.11711794894E+03  0.00000000000E+00 0.  1.
</event>
<event>
 6    1  0.2809573E-005  0.2485779E+03  0.7818608E-02  0.1247247E+00
          2   -1    0    0  502    0  0.00000000000E+00  0.00000000000E+00  0.15142787744E+03  0.15142787744E+03  0.00000000000E+00 0. -1.
          1   -1    0    0  501    0 -0.00000000000E+00 -0.00000000000E+00 -0.39431312642E+03  0.39431312642E+03  0.00000000000E+00 0. -1.
          2    1    1    2  501    0 -0.11999223871E+03 -0.97673280507E+02 -0.13890045884E+03  0.20792196744E+03  0.00000000000E+00 0. -1.
          1    1    1    2  502    0  0.31172976262E+02  0.14300755043E+03 -0.99368295100E+02  0.17690950229E+03  0.00000000000E+00 0. -1.
         22    1    1    2    0    0  0.79297090304E+02 -0.53304901523E+02 -0.54162023388E+02  0.10983153388E+03  0.00000000000E+00 0. -1.
         22    1    1    2    0    0  0.95221721412E+01  0.79706316037E+01  0.49545528356E+02  0.51078000260E+02  0.00000000000E+00 0. -1.
</event>
<event>
 6    1  0.2809573E-005  0.1846500E+03  0.7818608E-02  0.1164057E+00
          2   -1    0    0  502    0  0.00000000000E+00  0.00000000000E+00  0.81399953383E+02  0.81399953383E+02  0.00000000000E+00 0.  1.
          1   -1    0    0  501    0 -0.00000000000E+00 -0.00000000000E+00 -0.83071690739E+03  0.83071690739E+03  0.00000000000E+00 0.  1.
          2    1    1    2  501    0 -0.11432763042E+03 -0.13353320323E+03 -0.29821038093E+03  0.34616665746E+03  0.00000000000E+00 0.  1.
          1    1    1    2  502    0 -0.53838980542E+02  0.10749729104E+03 -0.97987054803E+02  0.15509921443E+03  0.00000000000E+00 0.  1.
         22    1    1    2    0    0  0.18398038418E+03  0.37567863522E+02 -0.33570545309E+03  0.38465345100E+03  0.00000000000E+00 0.  1.
         22    1    1    2    0    0 -0.15813773213E+02 -0.11531951341E+02 -0.17414065174E+02  0.26197537878E+02  0.00000000000E+00 0.  1.
</event>
<event>
 6    1  0.2809573E-005  0.1247632E+03  0.7818608E-02  0.1277010E+00
          2   -1    0    0  502    0  0.00000000000E+00  0.00000000000E+00  0.49792472343E+02  0.49792472343E+02  0.00000000000E+00 0. -1.
          1   -1    0    0  501    0 -0.00000000000E+00 -0.00000000000E+00 -0.84199151988E+03  0.84199151988E+03  0.00000000000E+00 0. -1.
          2    1    1    2  501    0  0.45638985297E+01  0.77845244704E+02 -0.58013202205E+03  0.58534936089E+03  0.00000000000E+00 0. -1.
          1    1    1    2  502    0 -0.16254187906E+02 -0.76142414804E+02 -0.21336849484E+02  0.80728725387E+02  0.00000000000E+00 0. -1.
         22    1    1    2    0    0  0.27500557613E+02  0.47425596441E+02 -0.15079000986E+03  0.16044654854E+03  0.00000000000E+00 0. -1.
         22    1    1    2    0    0 -0.15810268236E+02 -0.49128426340E+02 -0.39940166153E+02  0.65259357403E+02  0.00000000000E+00 0. -1.
</event>
<event>
 6    1  0.2809573E-005  0.1041351E+03  0.7818608E-02  0.1376565E+00
          2   -1    0    0  502    0  0.00000000000E+00  0.00000000000E+00  0.40135645281E+02  0.40135645281E+02  0.00000000000E+00 0.  1.
          1   -1    0    0  501    0 -0.00000000000E+00 -0.00000000000E+00 -0.69772794515E+03  0.69772794515E+03  0.00000000000E+00 0. -1.
          2    1    1    2  501    0 -0.51828687782E+01  0.30610269861E+02 -0.79029701943E+02  0.84909036851E+02  0.00000000000E+00 0.  1.
          1    1    1    2  502    0  0.22582701138E+01 -0.98185872399E+02 -0.45420624076E+03  0.46470299598E+03  0.00000000000E+00 0. -1.
         22    1    1    2    0    0 -0.11456984063E+02 -0.11418987732E+02  0.18378262932E+02  0.24482980069E+02  0.00000000000E+00 0.  1.
         22    1    1    2    0    0  0.14381582727E+02  0.78994590271E+02 -0.14273462010E+03  0.16376857754E+03  0.00000000000E+00 0.  1.
</event>
<event>
 6    1  0.2809573E-005  0.2261581E+03  0.7818608E-02  0.1160230E+00
          2   -1    0    0  502    0  0.00000000000E+00  0.00000000000E+00  0.10757114430E+04  0.10757114430E+04  0.00000000000E+00 0.  1.
          1   -1    0    0  501    0 -0.00000000000E+00 -0.00000000000E+00 -0.70409650425E+03  0.70409650425E+03  0.00000000000E+00 0.  1.
          2    1    1    2  501    0  0.15889906762E+03 -0.77192877798E+02  0.39568904655E+03  0.43333298470E+03  0.00000000000E+00 0.  1.
          1    1    1    2  502    0 -0.22029584292E+03 -0.17723419370E+02 -0.65603966813E+03  0.69226615125E+03  0.00000000000E+00 0.  1.
         22    1    1    2    0    0  0.59342580968E+02 -0.13175649240E+02  0.21090984971E+03  0.21949511237E+03  0.00000000000E+00 0. -1.
         22    1    1    2    0    0  0.20541943375E+01  0.10809194641E+03  0.42105571059E+03  0.43471369890E+03  0.00000000000E+00 0. -1.
</event>
<event>
 6    1  0.2809573E-005  0.8077716E+02  0.7818608E-02  0.1329449E+00
          2   -1    0    0  502    0  0.00000000000E+00  0.00000000000E+00  0.11326956028E+03  0.11326956028E+03  0.00000000000E+00 0. -1.
          1   -1    0    0  501    0 -0.00000000000E+00 -0.00000000000E+00 -0.90497541228E+02  0.90497541228E+02  0.00000000000E+00 0. -1.
          2    1    1    2  501    0  0.30001781320E+02 -0.20170299787E+02  0.52323218319E+01  0.36528414524E+02  0.00000000000E+00 0. -1.
          1    1    1    2  502    0 -0.27709725040E+02  0.63483029674E+01 -0.23205440402E+02  0.36696352361E+02  0.00000000000E+00 0. -1.
         22    1    1    2    0    0  0.29817955724E+02 -0.45847077993E+02  0.28547468768E+02  0.61692973806E+02  0.00000000000E+00 0. -1.
         22    1    1    2    0    0 -0.32110012003E+02  0.59669074813E+02  0.12197668858E+02  0.68849360821E+02  0.00000000000E+00 0. -1.
</event>
<event>
 6    1  0.2809573E-005  0.3033351E+03  0.7818608E-02  0.1182870E+00
          2   -1    0    0  502    0  0.00000000000E+00  0.00000000000E+00  0.96174757603E+02  0.96174757603E+02  0.00000000000E+00 0. -1.
          1   -1    0    0  501    0 -0.00000000000E+00 -0.00000000000E+00 -0.18610798008E+04  0.18610798008E+04  0.00000000000E+00 0. -1.
          2    1    1    2  501    0 -0.20185263845E+03  0.39208239979E+02 -0.11316427666E+04  0.11501726501E+04  0.00000000000E+00 0. -1.
          1    1    1    2  502    0  0.26899353081E+03 -0.77390675425E+01 -0.16302806680E+03  0.31463560407E+03  0.00000000000E+00 0. -1.
         22    1    1    2    0    0  0.17362311940E+02  0.20326098832E+02 -0.26003932464E+02  0.37293493712E+02  0.00000000000E+00 0. -1.
         22    1    1    2    0    0 -0.84503204309E+02 -0.51795271269E+02 -0.44423027730E+03  0.45515281053E+03  0.00000000000E+00 0. -1.
</event>
<event>
 6    1  0.2809573E-005  0.7078645E+02  0.7818608E-02  0.1413564E+00
          2   -1    0    0  502    0  0.00000000000E+00  0.00000000000E+00  0.22646889838E+03  0.22646889838E+03  0.00000000000E+00 0.  1.
          1   -1    0    0  501    0 -0.00000000000E+00 -0.00000000000E+00 -0.25493537946E+03  0.25493537946E+03  0.00000000000E+00 0.  1.
          2    1    1    2  501    0 -0.23268533138E+02  0.12897508059E+01  0.29569082480E+02  0.37648621890E+02  0.00000000000E+00 0.  1.
          1    1    1    2  502    0  0.61568239832E+02 -0.49716105720E+01 -0.22371288675E+03  0.23208365036E+03  0.00000000000E+00 0.  1.
         22    1    1    2    0    0 -0.48113720603E+02  0.30481369577E+02  0.17306080812E+03  0.18219244581E+03  0.00000000000E+00 0.  1.
         22    1    1    2    0    0  0.98140139088E+01 -0.26799509811E+02 -0.73834849223E+01  0.29479559778E+02  0.00000000000E+00 0. -1.
</event>
<event>
 6    1  0.2809573E-005  0.1235201E+03  0.7818608E-02  0.1287523E+00
          2   -1    0    0  502    0  0.00000000000E+00  0.00000000000E+00  0.91069247378E+02  0.91069247378E+02  0.00000000000E+00 0.  1.
          1   -1    0    0  501    0 -0.00000000000E+00 -0.00000000000E+00 -0.58298588537E+03  0.58298588537E+03  0.00000000000E+00 0.  1.
          2    1    1    2  501    0  0.44774823848E+02  0.31359352769E+02 -0.12259308790E+02  0.56022178721E+02  0.00000000000E+00 0.  1.
          1    1    1    2  502    0 -0.46027309751E+02 -0.10559781381E+03 -0.45484660437E+03  0.46920661230E+03  0.00000000000E+00 0.  1.
         22    1    1    2    0    0 -0.44774556247E+02 -0.11721283345E+02 -0.22082477225E+02  0.51281431052E+02  0.00000000000E+00 0. -1.
         22    1    1    2    0    0  0.46027042150E+02  0.85959744385E+02 -0.27282476144E+01  0.97544910676E+02  0.00000000000E+00 0.  1.
</event>
<event>
 6    1  0.2809573E-005  0.8183734E+02  0.7818608E-02  0.1408518E+00
          2   -1    0    0  502    0  0.00000000000E+00  0.00000000000E+00  0.64213933707E+02  0.64213933707E+02  0.00000000000E+00 0.  1.
          1   -1    0    0  501    0 -0.00000000000E+00 -0.00000000000E+00 -0.40579986841E+03  0.40579986841E+03  0.00000000000E+00 0. -1.
          2    1    1    2  501    0  0.50509341706E+02 -0.13351734640E+02 -0.18415665017E+03  0.19142396459E+03  0.00000000000E+00 0.  1.
          1    1    1    2  502    0 -0.92547688381E+02 -0.48226817966E+01 -0.57147237807E+02  0.10887671777E+03  0.00000000000E+00 0. -1.
         22    1    1    2    0    0  0.23749994861E+02  0.10127978427E+02 -0.13075179891E+03  0.13327667133E+03  0.00000000000E+00 0.  1.
         22    1    1    2    0    0  0.18288351813E+02  0.80464380090E+01  0.30469752175E+02  0.36436448431E+02  0.00000000000E+00 0.  1.
</event>
<event>
 6    1  0.2809573E-005  0.1014464E+03  0.7818608E-02  0.1391891E+00
          2   -1    0    0  502    0  0.00000000000E+00  0.00000000000E+00  0.41264766210E+02  0.41264766210E+02  0.00000000000E+00 0.  1.
          1   -1    0    0  501    0 -0.00000000000E+00 -0.00000000000E+00 -0.66361670118E+03  0.66361670118E+03  0.00000000000E+00 0.  1.
          2    1    1    2  501    0  0.27976122587E+02  0.23878857455E+02 -0.10345803227E+03  0.10980176552E+03  0.00000000000E+00 0.  1.
          1    1    1    2  502    0 -0.55052082184E+02 -0.88052821628E+02 -0.39491115879E+03  0.40833669255E+03  0.00000000000E+00 0.  1.
         22    1    1    2    0    0  0.10082259398E+02  0.91983381462E+01  0.24198286493E+02  0.27781620695E+02  0.00000000000E+00 0.  1.
         22    1    1    2    0    0  0.16993700199E+02  0.54975626027E+02 -0.14818103040E+03  0.15896138863E+03  0.00000000000E+00 0.  1.
</event>
<event>
 6    1  0.2809573E-005  0.2143057E+03  0.7818608E-02  0.1224788E+00
          2   -1    0    0  502    0  0.00000000000E+00  0.00000000000E+00  0.30707979301E+03  0.30707979301E+03  0.00000000000E+00 0.  1.
          1   -1    0    0  501    0 -0.00000000000E+00 -0.00000000000E+00 -0.16417632490E+03  0.16417632490E+03  0.00000000000E+00 0.  1.
          2    1    1    2  501    0 -0.66929859479E+02 -0.44245834603E+02 -0.38697991795E+02  0.89077688220E+02  0.00000000000E+00 0.  1.
          1    1    1    2  502    0  0.36901290224E+02 -0.11044379341E+03  0.12503335428E+03  0.17085922979E+03  0.00000000000E+00 0.  1.
         22    1    1    2    0    0  0.29279037241E+02  0.12402612750E+03 -0.19852974588E+02  0.12897241148E+03  0.00000000000E+00 0.  1.
         22    1    1    2    0    0  0.74953201416E+00  0.30663500514E+02  0.76421080214E+02  0.82346788420E+02  0.00000000000E+00 0.  1.
</event>
<event>
 6    1  0.2809573E-005  0.7069453E+02  0.7818608E-02  0.1360538E+00
          2   -1    0    0  502    0  0.00000000000E+00  0.00000000000E+00  0.11998239149E+02  0.11998239149E+02  0.00000000000E+00 0.  1.
          1   -1    0    0  501    0 -0.00000000000E+00 -0.00000000000E+00 -0.13010047891E+04  0.13010047891E+04  0.00000000000E+00 0.  1.
          2    1    1    2  501    0 -0.14769354448E+02  0.23205148772E+02 -0.96061215777E+02  0.99921819123E+02  0.00000000000E+00 0.  1.
          1    1    1    2  502    0  0.38593436169E+02 -0.38662055235E+01 -0.78124178423E+03  0.78220401833E+03  0.00000000000E+00 0.  1.
         22    1    1    2    0    0 -0.93393562165E+01  0.46895060330E+02 -0.26480435952E+03  0.26908682443E+03  0.00000000000E+00 0.  1.
         22    1    1    2    0    0 -0.14484725504E+02 -0.66234003579E+02 -0.14689919038E+03  0.16179036633E+03  0.00000000000E+00 0.  1.
</event>
<event>
 6    1  0.2809573E-005  0.5751176E+02  0.7818608E-02  0.1441363E+00
          2   -1    0    0  502    0  0.00000000000E+00  0.00000000000E+00  0.12971481820E+03  0.12971481820E+03  0.00000000000E+00 0.  1.
          1   -1    0    0  501    0 -0.00000000000E+00 -0.00000000000E+00 -0.25284962723E+03  0.25284962723E+03  0.00000000000E+00 0. -1.
          2    1    1    2  501    0  0.10570984890E+02  0.33554739653E+02 -0.39981509657E+01  0.35406941211E+02  0.00000000000E+00 0.  1.
          1    1    1    2  502    0 -0.26260105736E+02 -0.20328905350E+02 -0.19445754930E+03  0.19727289734E+03  0.00000000000E+00 0. -1.
         22    1    1    2    0    0  0.28837374028E+02 -0.20363817458E+02  0.10817215662E+03  0.11378705844E+03  0.00000000000E+00 0.  1.
         22    1    1    2    0    0 -0.13148253183E+02  0.71379831542E+01 -0.32851265384E+02  0.36097548429E+02  0.00000000000E+00 0.  1.
</event>
<event>
 6    1  0.2809573E-005  0.9271004E+02  0.7818608E-02  0.1315547E+00
          2   -1    0    0  502    0  0.00000000000E+00  0.00000000000E+00  0.16506627295E+03  0.16506627295E+03  0.00000000000E+00 0. -1.
          1   -1    0    0  501    0 -0.00000000000E+00 -0.00000000000E+00 -0.14955196163E+04  0.14955196163E+04  0.00000000000E+00 0.  1.
          2    1    1    2  501    0 -0.15946473963E+02  0.23551546573E+02  0.24362535990E+02  0.37449947098E+02  0.00000000000E+00 0. -1.
          1    1    1    2  502    0 -0.57387721078E+02  0.72813464632E+02 -0.14323524746E+04  0.14353497005E+04  0.00000000000E+00 0.  1.
         22    1    1    2    0    0  0.10236387450E+03 -0.91153344733E+02  0.45933728914E+02  0.14455864731E+03  0.00000000000E+00 0. -1.
         22    1    1    2    0    0 -0.29029679462E+02 -0.52116664719E+01  0.31602866329E+02  0.43227594396E+02  0.00000000000E+00 0.  1.
</event>
<event>
 6    1  0.2809573E-005  0.8725918E+02  0.7818608E-02  0.1328855E+00
          2   -1    0    0  502    0  0.00000000000E+00  0.00000000000E+00  0.93358867434E+02  0.93358867434E+02  0.00000000000E+00 0. -1.
          1   -1    0    0  501    0 -0.00000000000E+00 -0.00000000000E+00 -0.51641030679E+03  0.51641030679E+03  0.00000000000E+00 0. -1.
          2    1    1    2  501    0 -0.66739630369E+02 -0.19226068474E+02  0.39412617592E+02  0.79857212550E+02  0.00000000000E+00 0. -1.
          1    1    1    2  502    0  0.10984698965E+02 -0.18003748776E+02 -0.34544526449E+03  0.34608847040E+03  0.00000000000E+00 0. -1.
         22    1    1    2    0    0  0.38962404373E+01  0.14157679393E+02  0.26051835790E+02  0.29905162153E+02  0.00000000000E+00 0. -1.
         22    1    1    2    0    0  0.51858690967E+02  0.23072137857E+02 -0.14307062824E+03  0.15391832912E+03  0.00000000000E+00 0. -1.
</event>
<event>
 6    1  0.2809573E-005  0.2049901E+03  0.7818608E-02  0.1203437E+00
          2   -1    0    0  502    0  0.00000000000E+00  0.00000000000E+00  0.23351545550E+02  0.23351545550E+02  0.00000000000E+00 0.  1.
          1   -1    0    0  501    0 -0.00000000000E+00 -0.00000000000E+00 -0.12821634930E+04  0.12821634930E+04  0.00000000000E+00 0.  1.
          2    1    1    2  501    0  0.62278563926E+02 -0.12735656668E+02 -0.50985186818E+03  0.51379932266E+03  0.00000000000E+00 0.  1.
          1    1    1    2  502    0 -0.70867722899E+01 -0.33850914571E+02 -0.51345737270E+03  0.51462081219E+03  0.00000000000E+00 0.  1.
         22    1    1    2    0    0 -0.26013827601E+02  0.87034054523E+02 -0.11407744289E+03  0.14582629684E+03  0.00000000000E+00 0.  1.
         22    1    1    2    0    0 -0.29177964035E+02 -0.40447483284E+02 -0.12142526371E+03  0.13126860689E+03  0.00000000000E+00 0.  1.
</event>
<event>
 6    1  0.2809573E-005  0.7935654E+02  0.7818608E-02  0.1335240E+00
          2   -1    0    0  502    0  0.00000000000E+00  0.00000000000E+00  0.41811631518E+03  0.41811631518E+03  0.00000000000E+00 0.  1.
          1   -1    0    0  501    0 -0.00000000000E+00 -0.00000000000E+00 -0.34186199375E+02  0.34186199375E+02  0.00000000000E+00 0.  1.
          2    1    1    2  501    0 -0.24546026471E+02 -0.18833964860E+02  0.15316108597E+01  0.30976950781E+02  0.00000000000E+00 0.  1.
          1    1    1    2  502    0  0.43588160699E+02 -0.14137745758E+01  0.55116271457E+02  0.70283212014E+02  0.00000000000E+00 0.  1.
         22    1    1    2    0    0 -0.53408144365E+02 -0.47502349050E+01  0.28872421580E+03  0.29366080331E+03  0.00000000000E+00 0.  1.
         22    1    1    2    0    0  0.34366010137E+02  0.24997974341E+02  0.38558017695E+02  0.57381548449E+02  0.00000000000E+00 0.  1.
</event>
<event>
 6    1  0.2809573E-005  0.1614396E+03  0.7818608E-02  0.1249958E+00
          2   -1    0    0  502    0  0.00000000000E+00  0.00000000000E+00  0.47650244842E+02  0.47650244842E+02  0.00000000000E+00 0.  1.
          1   -1    0    0  501    0 -0.00000000000E+00 -0.00000000000E+00 -0.15813277276E+04  0.15813277276E+04  0.00000000000E+00 0. -1.
          2    1    1    2  501    0  0.19041774615E+02  0.36729845991E+02 -0.22376722430E+03  0.22755975356E+03  0.00000000000E+00 0.  1.
          1    1    1    2  502    0 -0.44797799132E+02 -0.10891797220E+03 -0.12328348282E+04  0.12384472863E+04  0.00000000000E+00 0. -1.
         22    1    1    2    0    0  0.66902077371E+02  0.59917798551E+02 -0.79531999035E+02  0.11996403382E+03  0.00000000000E+00 0.  1.
         22    1    1    2    0    0 -0.41146052854E+02  0.12270327654E+02  0.24565687774E+01  0.43006898706E+02  0.00000000000E+00 0. -1.
</event>
<event>
 6    1  0.2809573E-005  0.6444237E+02  0.7818608E-02  0.1383047E+00
          2   -1    0    0  502    0  0.00000000000E+00  0.00000000000E+00  0.11359648055E+03  0.11359648055E+03  0.00000000000E+00 0.  1.
          1   -1    0    0  501    0 -0.00000000000E+00 -0.00000000000E+00 -0.17060546603E+04  0.17060546603E+04  0.00000000000E+00 0. -1.
          2    1    1    2  501    0 -0.26223517609E+02  0.19444365834E+02 -0.21807633499E+02  0.39259764611E+02  0.00000000000E+00 0.  1.
          1    1    1    2  502    0  0.86282033077E+01 -0.50971024270E+02 -0.16342976643E+04  0.16351150867E+04  0.00000000000E+00 0. -1.
         22    1    1    2    0    0 -0.42263029449E+02  0.29093330939E+02 -0.79507236581E+01  0.51921089838E+02  0.00000000000E+00 0.  1.
         22    1    1    2    0    0  0.59858343751E+02  0.24333274973E+01  0.71597841637E+02  0.93355199782E+02  0.00000000000E+00 0.  1.
</event>
<event>
 6    1  0.2809573E-005  0.1340474E+03  0.7818608E-02  0.1298600E+00
          2   -1    0    0  502    0  0.00000000000E+00  0.00000000000E+00  0.32022935036E+03  0.32022935036E+03  0.00000000000E+00 0.  1.
          1   -1    0    0  501    0 -0.00000000000E+00 -0.00000000000E+00 -0.12123122483E+03  0.12123122483E+03  0.00000000000E+00 0.  1.
          2    1    1    2  501    0 -0.23201208730E+01  0.47752062827E+02  0.27464769729E+02  0.55135796371E+02  0.00000000000E+00 0.  1.
          1    1    1    2  502    0 -0.38543090523E+02 -0.29637077286E+02 -0.85253108187E+02  0.98142848098E+02  0.00000000000E+00 0.  1.
         22    1    1    2    0    0 -0.23350579418E+01 -0.45759991365E+02  0.22086216790E+03  0.22556490533E+03  0.00000000000E+00 0.  1.
         22    1    1    2    0    0  0.43198269338E+02  0.27645005824E+02  0.35924296081E+02  0.62617025399E+02  0.00000000000E+00 0.  1.
</event>
<event>
 6    1  0.2809573E-005  0.8827449E+02  0.7818608E-02  0.1401991E+00
          2   -1    0    0  502    0  0.00000000000E+00  0.00000000000E+00  0.79872991550E+02  0.79872991550E+02  0.00000000000E+00 0.  1.
          1   -1    0    0  501    0 -0.00000000000E+00 -0.00000000000E+00 -0.44291203584E+03  0.44291203584E+03  0.00000000000E+00 0.  1.
          2    1    1    2  501    0  0.36380542030E+02  0.30328285110E+02 -0.45930012919E+02  0.65976623155E+02  0.00000000000E+00 0.  1.
          1    1    1    2  502    0 -0.62333062748E+02 -0.62101070559E+02 -0.30932906063E+03  0.32159978456E+03  0.00000000000E+00 0.  1.
         22    1    1    2    0    0  0.44202200424E+01  0.17076848718E+02  0.60025829341E+02  0.62564025569E+02  0.00000000000E+00 0.  1.
         22    1    1    2    0    0  0.21532300675E+02  0.14695936730E+02 -0.67805800079E+02  0.72644594108E+02  0.00000000000E+00 0.  1.
</event>
<event>
 6    1  0.4759006E-005  0.9501113E+02  0.7818608E-02  0.1295810E+00
          2   -1    0    0  502    0  0.00000000000E+00  0.00000000000E+00  0.58220766270E+03  0.58220766270E+03  0.00000000000E+00 0. -1.
          1   -1    0    0  501    0 -0.00000000000E+00 -0.00000000000E+00 -0.18278524881E+03  0.18278524881E+03  0.00000000000E+00 0. -1.
          2    1    1    2  501    0  0.25623913517E+02 -0.61586030673E+02  0.38942775920E+02  0.77239652474E+02  0.00000000000E+00 0. -1.
          1    1    1    2  502    0  0.28790147692E+02  0.40047027007E+02 -0.15083302016E+03  0.15869227123E+03  0.00000000000E+00 0. -1.
         22    1    1    2    0    0 -0.79710335553E+02  0.37603692659E+02  0.46901470533E+03  0.47722381449E+03  0.00000000000E+00 0. -1.
         22    1    1    2    0    0  0.25296274344E+02 -0.16064688993E+02  0.42297952797E+02  0.51837173331E+02  0.00000000000E+00 0. -1.
</event>
<event>
 6    1  0.2809573E-005  0.1617711E+03  0.7818608E-02  0.1251782E+00
          2   -1    0    0  502    0  0.00000000000E+00  0.00000000000E+00  0.34097187588E+02  0.34097187588E+02  0.00000000000E+00 0.  1.
          1   -1    0    0  501    0 -0.00000000000E+00 -0.00000000000E+00 -0.18398836369E+04  0.18398836369E+04  0.00000000000E+00 0.  1.
          2    1    1    2  501    0 -0.63680341712E+02 -0.17434113693E+02 -0.13142063035E+03  0.14707316656E+03  0.00000000000E+00 0.  1.
          1    1    1    2  502    0  0.14829163525E+02 -0.47376344283E+02 -0.14797009144E+04  0.14805334235E+04  0.00000000000E+00 0.  1.
         22    1    1    2    0    0  0.15664772624E+02 -0.38050091972E+02 -0.71635833603E+02  0.82612875851E+02  0.00000000000E+00 0.  1.
         22    1    1    2    0    0  0.33186405563E+02  0.10286054995E+03 -0.12302907090E+03  0.16376135850E+03  0.00000000000E+00 0.  1.
</event>
<event>
 6    1  0.2809573E-005  0.8653749E+02  0.7818608E-02  0.1347973E+00
          2   -1    0    0  502    0  0.00000000000E+00  0.00000000000E+00  0.34667364938E+03  0.34667364938E+03  0.00000000000E+00 0. -1.
          1   -1    0    0  501    0 -0.00000000000E+00 -0.00000000000E+00 -0.26464861131E+04  0.26464861131E+04  0.00000000000E+00 0.  1.
          2    1    1    2  501    0 -0.27418054496E+02  0.63164980929E+01  0.13143575223E+02  0.31054813317E+02  0.00000000000E+00 0. -1.
          1    1    1    2  502    0  0.69088361420E+02 -0.24158331623E+02 -0.26229995353E+04  0.26240204627E+04  0.00000000000E+00 0.  1.
         22    1    1    2    0    0 -0.16681447143E+02 -0.42335761434E+02  0.23197746038E+03  0.23639824344E+03  0.00000000000E+00 0. -1.
         22    1    1    2    0    0 -0.24988859780E+02  0.60177594964E+02  0.78066035951E+02  0.10168624301E+03  0.00000000000E+00 0.  1.
</event>
<event>
 6    1  0.2809573E-005  0.8322318E+02  0.7818608E-02  0.1324766E+00
          2   -1    0    0  502    0  0.00000000000E+00  0.00000000000E+00  0.57752600637E+03  0.57752600637E+03  0.00000000000E+00 0.  1.
          1   -1    0    0  501    0 -0.00000000000E+00 -0.00000000000E+00 -0.56933272069E+02  0.56933272069E+02  0.00000000000E+00 0. -1.
          2    1    1    2  501    0  0.20625842831E+02 -0.20175237298E+02  0.41097569025E+01  0.29143707628E+02  0.00000000000E+00 0.  1.
          1    1    1    2  502    0 -0.22723381093E+02  0.80777500875E+02  0.14180036701E+02  0.85102468453E+02  0.00000000000E+00 0. -1.
         22    1    1    2    0    0  0.38733243220E+02  0.67289367766E+01  0.62906162741E+02  0.74180374974E+02  0.00000000000E+00 0. -1.
         22    1    1    2    0    0 -0.36635704959E+02 -0.67331200353E+02  0.43939677795E+03  0.44603272738E+03  0.00000000000E+00 0.  1.
</event>
<event>
 6    1  0.2809573E-005  0.8677452E+02  0.7818608E-02  0.1325084E+00
          2   -1    0    0  502    0  0.00000000000E+00  0.00000000000E+00  0.53463159246E+03  0.53463159246E+03  0.00000000000E+00 0.  1.
          1   -1    0    0  501    0 -0.00000000000E+00 -0.00000000000E+00 -0.27060358744E+02  0.27060358744E+02  0.00000000000E+00 0.  1.
          2    1    1    2  501    0 -0.13852647115E+02  0.30708684113E+02  0.15353736200E+03  0.15718982360E+03  0.00000000000E+00 0.  1.
          1    1    1    2  502    0  0.37427060121E+02 -0.40514804567E+02  0.45659072512E+02  0.71602968661E+02  0.00000000000E+00 0.  1.
         22    1    1    2    0    0 -0.56674158369E+02 -0.36411526722E+02  0.18984542606E+03  0.20144241187E+03  0.00000000000E+00 0.  1.
         22    1    1    2    0    0  0.33099745363E+02  0.46217647177E+02  0.11852937314E+03  0.13145674707E+03  0.00000000000E+00 0.  1.
</event>
<event>
 6    1  0.2809573E-005  0.1196121E+03  0.7818608E-02  0.1244967E+00
          2   -1    0    0  502    0  0.00000000000E+00  0.00000000000E+00  0.13107125319E+03  0.13107125319E+03  0.00000000000E+00 0. -1.
          1   -1    0    0  501    0 -0.00000000000E+00 -0.00000000000E+00 -0.66138206172E+03  0.66138206172E+03  0.00000000000E+00 0.  1.
          2    1    1    2  501    0 -0.98942170187E+02 -0.90123713345E+01  0.50522216634E+02  0.11145972480E+03  0.00000000000E+00 0. -1.
          1    1    1    2  502    0  0.49702592646E+01 -0.22232562716E+02 -0.50663838135E+03  0.50715031280E+03  0.00000000000E+00 0.  1.
         22    1    1    2    0    0  0.10992956333E+03  0.43092694961E+02 -0.89988685757E+02  0.14845690559E+03  0.00000000000E+00 0.  1.
         22    1    1    2    0    0 -0.15957652403E+02 -0.11847760910E+02  0.15794041933E+02  0.25386371725E+02  0.00000000000E+00 0. -1.
</event>
<event>
 6    1  0.2809573E-005  0.1915625E+03  0.7818608E-02  0.1221112E+00
          2   -1    0    0  502    0  0.00000000000E+00  0.00000000000E+00  0.66951530165E+02  0.66951530165E+02  0.00000000000E+00 0.  1.
          1   -1    0    0  501    0 -0.00000000000E+00 -0.00000000000E+00 -0.22818370522E+04  0.22818370522E+04  0.00000000000E+00 0.  1.
          2    1    1    2  501    0  0.13794501380E+03  0.11655492674E+03 -0.49093669752E+03  0.52309914811E+03  0.00000000000E+00 0.  1.
          1    1    1    2  502    0 -0.12638047528E+03 -0.13036372676E+03 -0.16805565937E+04  0.16903364133E+04  0.00000000000E+00 0.  1.
         22    1    1    2    0    0  0.34801419201E+02  0.12948046643E+02 -0.71896615188E+02  0.80919181692E+02  0.00000000000E+00 0.  1.
         22    1    1    2    0    0 -0.46365957725E+02  0.86075338173E+00  0.28504384295E+02  0.54433839257E+02  0.00000000000E+00 0.  1.
</event>
<event>
 6    1  0.2809573E-005  0.3378712E+03  0.7818608E-02  0.1158517E+00
          2   -1    0    0  502    0  0.00000000000E+00  0.00000000000E+00  0.72366935524E+03  0.72366935524E+03  0.00000000000E+00 0. -1.
          1   -1    0    0  501    0 -0.00000000000E+00 -0.00000000000E+00 -0.15117126032E+03  0.15117126032E+03  0.00000000000E+00 0.  1.
          2    1    1    2  501    0  0.12163296242E+02 -0.29284472576E+02  0.84276285707E+02  0.90044535881E+02  0.00000000000E+00 0. -1.
          1    1    1    2  502    0  0.28158393234E+03 -0.44898182836E+02  0.21314594542E+03  0.35600077503E+03  0.00000000000E+00 0.  1.
         22    1    1    2    0    0 -0.17102336173E+02  0.29089342155E+02  0.81339807167E+02  0.88061591852E+02  0.00000000000E+00 0. -1.
         22    1    1    2    0    0 -0.27664489240E+03  0.45093313257E+02  0.19373605662E+03  0.34073371279E+03  0.00000000000E+00 0. -1.
</event>
<event>
 6    1  0.2809573E-005  0.3091271E+03  0.7818608E-02  0.1200957E+00
          2   -1    0    0  502    0  0.00000000000E+00  0.00000000000E+00  0.32524255713E+03  0.32524255713E+03  0.00000000000E+00 0.  1.
          1   -1    0    0  501    0 -0.00000000000E+00 -0.00000000000E+00 -0.32592251838E+03  0.32592251838E+03  0.00000000000E+00 0.  1.
          2    1    1    2  501    0  0.89741133644E+02 -0.17564204793E+03 -0.99351503487E+02  0.22084909172E+03  0.00000000000E+00 0.  1.
          1    1    1    2  502    0 -0.18689133670E+03  0.15594908531E+03 -0.17375293802E+01  0.24341632639E+03  0.00000000000E+00 0.  1.
         22    1    1    2    0    0  0.10231471796E+03  0.35397125821E+01  0.19479946697E+02  0.10421276025E+03  0.00000000000E+00 0.  1.
         22    1    1    2    0    0 -0.51645148996E+01  0.16153250040E+02  0.80929124914E+02  0.82686897151E+02  0.00000000000E+00 0.  1.
</event>
<event>
 6    1  0.2809573E-005  0.1350788E+03  0.7818608E-02  0.1230621E+00
          2   -1    0    0  502    0  0.00000000000E+00  0.00000000000E+00  0.93954684605E+03  0.93954684605E+03  0.00000000000E+00 0.  1.
          1   -1    0    0  501    0 -0.00000000000E+00 -0.00000000000E+00 -0.71004409869E+02  0.71004409869E+02  0.00000000000E+00 0. -1.
          2    1    1    2  501    0 -0.13247717825E+03  0.43743877271E+02  0.58262874742E+03  0.59909931303E+03  0.00000000000E+00 0.  1.
          1    1    1    2  502    0  0.75048025113E+02 -0.93915642798E+02  0.42056805045E+02  0.12736219567E+03  0.00000000000E+00 0. -1.
         22    1    1    2    0    0 -0.35735707903E+02 -0.55103099952E+01  0.76567909630E+02  0.84676142571E+02  0.00000000000E+00 0.  1.
         22    1    1    2    0    0  0.93164861041E+02  0.55682075521E+02  0.16728897409E+03  0.19941360465E+03  0.00000000000E+00 0.  1.
</event>
<event>
 6    1  0.2809573E-005  0.9082151E+02  0.7818608E-02  0.1411867E+00
          2   -1    0    0  502    0  0.00000000000E+00  0.00000000000E+00  0.79479751462E+02  0.79479751462E+02  0.00000000000E+00 0. -1.
          1   -1    0    0  501    0 -0.00000000000E+00 -0.00000000000E+00 -0.12208463912E+04  0.12208463912E+04  0.00000000000E+00 0.  1.
          2    1    1    2  501    0  0.16664018547E+02  0.59652599798E+02 -0.35348913657E+02  0.71313868732E+02  0.00000000000E+00 0. -1.
          1    1    1    2  502    0 -0.28380401213E+02 -0.32156840582E+02 -0.11018781795E+04  0.11027125791E+04  0.00000000000E+00 0.  1.
         22    1    1    2    0    0  0.19134191153E+02 -0.15771546485E+02 -0.62012875933E+02  0.66786643358E+02  0.00000000000E+00 0.  1.
         22    1    1    2    0    0 -0.74178084874E+01 -0.11724212731E+02  0.57873329362E+02  0.59513051496E+02  0.00000000000E+00 0.  1.
</event>
<event>
 6    1  0.2809573E-005  0.5201417E+02  0.7818608E-02  0.1443837E+00
          2   -1    0    0  502    0  0.00000000000E+00  0.00000000000E+00  0.14013763062E+03  0.14013763062E+03  0.00000000000E+00 0.  1.
          1   -1    0    0  501    0 -0.00000000000E+00 -0.00000000000E+00 -0.10162736270E+03  0.10162736270E+03  0.00000000000E+00 0. -1.
          2    1    1    2  501    0 -0.11725997570E+02  0.35577590016E+02  0.62366067953E+01  0.37975771153E+02  0.00000000000E+00 0.  1.
          1    1    1    2  502    0  0.11937532695E+01 -0.37795213950E+02 -0.41365995735E+02  0.56045060867E+02  0.00000000000E+00 0. -1.
         22    1    1    2    0    0  0.16991470718E+02 -0.38789507317E+02  0.92812964636E+02  0.10201755907E+03  0.00000000000E+00 0.  1.
         22    1    1    2    0    0 -0.64592264180E+01  0.41007131251E+02 -0.19173307775E+02  0.45726602218E+02  0.00000000000E+00 0.  1.
</event>
<event>
 6    1  0.2809573E-005  0.2825562E+03  0.7818608E-02  0.1223829E+00
          2   -1    0    0  502    0  0.00000000000E+00  0.00000000000E+00  0.17014381257E+03  0.17014381257E+03  0.00000000000E+00 0.  1.
          1   -1    0    0  501    0 -0.00000000000E+00 -0.00000000000E+00 -0.13086299623E+04  0.13086299623E+04  0.00000000000E+00 0. -1.
          2    1    1    2  501    0 -0.39342446007E+02 -0.16851413371E+03 -0.11779874654E+03  0.20933558227E+03  0.00000000000E+00 0.  1.
          1    1    1    2  502    0  0.69193824632E+02  0.26968303690E+03 -0.10636594618E+04  0.10994945095E+04  0.00000000000E+00 0. -1.
         22    1    1    2    0    0  0.84432963856E+01 -0.10728930112E+02  0.67374694442E+02  0.68744080810E+02  0.00000000000E+00 0. -1.
         22    1    1    2    0    0 -0.38294675010E+02 -0.90439973084E+02 -0.24402635837E+02  0.10119960228E+03  0.00000000000E+00 0. -1.
</event>
<event>
 6    1  0.2809573E-005  0.1101693E+03  0.7818608E-02  0.1262057E+00
          2   -1    0    0  502    0  0.00000000000E+00  0.00000000000E+00  0.28713233432E+02  0.28713233432E+02  0.00000000000E+00 0. -1.
          1   -1    0    0  501    0 -0.00000000000E+00 -0.00000000000E+00 -0.66906077819E+03  0.66906077819E+03  0.00000000000E+00 0. -1.
          2    1    1    2  501    0 -0.46335103240E+02  0.75760619231E+02 -0.21553269301E+03  0.23311146470E+03  0.00000000000E+00 0. -1.
          1    1    1    2  502    0  0.34302152847E+02 -0.23815583277E+02 -0.53465584444E+02  0.67840905188E+02  0.00000000000E+00 0. -1.
         22    1    1    2    0    0 -0.21120098265E+02  0.35779849375E+02 -0.16518265076E+03  0.17032781418E+03  0.00000000000E+00 0. -1.
         22    1    1    2    0    0  0.33153048658E+02 -0.87724885329E+02 -0.20616661654E+03  0.22649382754E+03  0.00000000000E+00 0. -1.
</event>
<event>
 6    1  0.4319022E-005  0.9529595E+02  0.7818608E-02  0.1291133E+00
          2   -1    0    0  502    0  0.00000000000E+00  0.00000000000E+00  0.50901799550E+03  0.50901799550E+03  0.00000000000E+00 0. -1.
          1   -1    0    0  501    0 -0.00000000000E+00 -0.00000000000E+00 -0.41645967005E+03  0.41645967005E+03  0.00000000000E+00 0.  1.
          2    1    1    2  501    0  0.21404648797E+02 -0.66635337681E+02 -0.50249094803E+02  0.86159147782E+02  0.00000000000E+00 0. -1.
          1    1    1    2  502    0  0.23879938911E+02 -0.40193225949E+01 -0.33624777597E+03  0.33711863384E+03  0.00000000000E+00 0.  1.
         22    1    1    2    0    0  0.29612529378E+01 -0.11293936538E+02 -0.19909801333E+01  0.11844240093E+02  0.00000000000E+00 0. -1.
         22    1    1    2    0    0 -0.48245840646E+02  0.81948596814E+02  0.48104617635E+03  0.49035564384E+03  0.00000000000E+00 0. -1.
</event>
<event>
 6    1  0.2809573E-005  0.3179422E+03  0.7818608E-02  0.1190550E+00
          2   -1    0    0  502    0  0.00000000000E+00  0.00000000000E+00  0.28575986245E+03  0.28575986245E+03  0.00000000000E+00 0.  1.
          1   -1    0    0  501    0 -0.00000000000E+00 -0.00000000000E+00 -0.15312470800E+04  0.15312470800E+04  0.00000000000E+00 0. -1.
          2    1    1    2  501    0 -0.89801834116E+02 -0.10206500812E+03  0.46719245191E+01  0.13602743169E+03  0.00000000000E+00 0.  1.
          1    1    1    2  502    0  0.11438577494E+03  0.25740142055E+03 -0.14001506729E+04  0.14282021929E+04  0.00000000000E+00 0. -1.
         22    1    1    2    0    0 -0.43954602399E+02 -0.15253320107E+03  0.16435714381E+03  0.22849869851E+03  0.00000000000E+00 0.  1.
         22    1    1    2    0    0  0.19370661571E+02 -0.28032113515E+01 -0.14365612952E+02  0.24278619382E+02  0.00000000000E+00 0. -1.
</event>
<event>
 6    1  0.2809573E-005  0.1747990E+03  0.7818608E-02  0.1216686E+00
          2   -1    0    0  502    0  0.00000000000E+00  0.00000000000E+00  0.17644367840E+03  0.17644367840E+03  0.00000000000E+00 0.  1.
          1   -1    0    0  501    0 -0.00000000000E+00 -0.00000000000E+00 -0.32856109797E+03  0.32856109797E+03  0.00000000000E+00 0.  1.
          2    1    1    2  501    0  0.52278180202E+02 -0.15308148612E+03 -0.20078574107E+03  0.25784077128E+03  0.00000000000E+00 0.  1.
          1    1    1    2  502    0 -0.57086630474E+02  0.70841740723E+02  0.13231946382E+02  0.91937587594E+02  0.00000000000E+00 0.  1.
         22    1    1    2    0    0 -0.18220176397E+02  0.19329214546E+02 -0.43947937349E+02  0.51351870075E+02  0.00000000000E+00 0.  1.
         22    1    1    2    0    0  0.23028626669E+02  0.62910530846E+02  0.79384312467E+02  0.10387454743E+03  0.00000000000E+00 0. -1.
</event>
<event>
 6    1  0.2809573E-005  0.9562815E+02  0.7818608E-02  0.1296750E+00
          2   -1    0    0  502    0  0.00000000000E+00  0.00000000000E+00  0.21607269402E+03  0.21607269402E+03  0.00000000000E+00 0. -1.
          1   -1    0    0  501    0 -0.00000000000E+00 -0.00000000000E+00 -0.98069378655E+02  0.98069378655E+02  0.00000000000E+00 0. -1.
          2    1    1    2  501    0  0.55303925207E+02  0.19156547937E+02 -0.25923028657E+02  0.64011724605E+02  0.00000000000E+00 0. -1.
          1    1    1    2  502    0 -0.48396537314E+02  0.29802288423E+02  0.52441104287E+01  0.57078033545E+02  0.00000000000E+00 0. -1.
         22    1    1    2    0    0 -0.45425022290E+02 -0.69533355599E+02  0.11908554309E+03  0.14518845258E+03  0.00000000000E+00 0. -1.
         22    1    1    2    0    0  0.38517634397E+02  0.20574519240E+02  0.19596690507E+02  0.47863861945E+02  0.00000000000E+00 0. -1.
</event>
<event>
 6    1  0.2809573E-005  0.2662906E+03  0.7818608E-02  0.1191292E+00
          2   -1    0    0  502    0  0.00000000000E+00  0.00000000000E+00  0.31509104514E+03  0.31509104514E+03  0.00000000000E+00 0.  1.
          1   -1    0    0  501    0 -0.00000000000E+00 -0.00000000000E+00 -0.12657318731E+04  0.12657318731E+04  0.00000000000E+00 0. -1.
          2    1    1    2  501    0  0.71732126315E+02  0.19388707276E+03 -0.32821665534E+02  0.20932022515E+03  0.00000000000E+00 0.  1.
          1    1    1    2  502    0 -0.83980428159E+02 -0.25442100714E+03 -0.11056780449E+04  0.11376760085E+04  0.00000000000E+00 0. -1.
         22    1    1    2    0    0  0.15493802338E+02  0.28878846329E+02  0.19779405698E+03  0.20049073458E+03  0.00000000000E+00 0. -1.
         22    1    1    2    0    0 -0.32455004933E+01  0.31655088052E+02 -0.99351744659E+01  0.33335950034E+02  0.00000000000E+00 0. -1.
</event>
<event>
 6    1  0.2809573E-005  0.9680492E+02  0.7818608E-02  0.1328205E+00
          2   -1    0    0  502    0  0.00000000000E+00  0.00000000000E+00  0.43646691732E+03  0.43646691732E+03  0.00000000000E+00 0. -1.
          1   -1    0    0  501    0 -0.00000000000E+00 -0.00000000000E+00 -0.46494385835E+02  0.46494385835E+02  0.00000000000E+00 0. -1.
          2    1    1    2  501    0 -0.55669597465E+01 -0.21047017250E+02 -0.15521974170E+02  0.26737607561E+02  0.00000000000E+00 0. -1.
          1    1    1    2  502    0 -0.35728886236E+02  0.22493860628E+02  0.24735210416E+03  0.25092945326E+03  0.00000000000E+00 0. -1.
         22    1    1    2    0    0 -0.18447705370E+01 -0.47730723931E+02  0.12511090990E+03  0.13391924791E+03  0.00000000000E+00 0. -1.
         22    1    1    2    0    0  0.43140616519E+02  0.46283880553E+02  0.33031491594E+02  0.71374994428E+02  0.00000000000E+00 0. -1.
</event>
<event>
 6    1  0.2809573E-005  0.3470306E+03  0.7818608E-02  0.1148478E+00
          2   -1    0    0  502    0  0.00000000000E+00  0.00000000000E+00  0.13533114966E+03  0.13533114966E+03  0.00000000000E+00 0. -1.
          1   -1    0    0  501    0 -0.00000000000E+00 -0.00000000000E+00 -0.26110422389E+04  0.26110422389E+04  0.00000000000E+00 0.  1.
          2    1    1    2  501    0  0.26085381480E+03 -0.16484451945E+03 -0.42194392757E+03  0.52273808575E+03  0.00000000000E+00 0. -1.
          1    1    1    2  502    0 -0.26976367276E+03  0.21649972060E+03 -0.20591643015E+04  0.20880139341E+04  0.00000000000E+00 0.  1.
         22    1    1    2    0    0  0.11780701804E+02 -0.12313018030E+02 -0.58277581251E+02  0.60717969535E+02  0.00000000000E+00 0. -1.
         22    1    1    2    0    0 -0.28708438458E+01 -0.39342183121E+02  0.63674721056E+02  0.74903399246E+02  0.00000000000E+00 0. -1.
</event>
<event>
 6    1  0.2809573E-005  0.2986854E+03  0.7818608E-02  0.1169633E+00
          2   -1    0    0  502    0  0.00000000000E+00  0.00000000000E+00  0.24051799269E+03  0.24051799269E+03  0.00000000000E+00 0. -1.
          1   -1    0    0  501    0 -0.00000000000E+00 -0.00000000000E+00 -0.15153335278E+04  0.15153335278E+04  0.00000000000E+00 0. -1.
          2    1    1    2  501    0 -0.10512648982E+03  0.22488914690E+03 -0.13136697838E+03  0.28086293858E+03  0.00000000000E+00 0. -1.
          1    1    1    2  502    0  0.16017579831E+03 -0.24294883814E+03 -0.12600124387E+04  0.12931789397E+04  0.00000000000E+00 0. -1.
         22    1    1    2    0    0 -0.22083791331E+02 -0.38911367529E+00 -0.26121662041E+02  0.34207988494E+02  0.00000000000E+00 0. -1.
         22    1    1    2    0    0 -0.32965517165E+02  0.18448804912E+02  0.14268554401E+03  0.14760165376E+03  0.00000000000E+00 0. -1.
</event>
<event>
 6    1  0.2809573E-005  0.1527985E+03  0.7818608E-02  0.1206316E+00
          2   -1    0    0  502    0  0.00000000000E+00  0.00000000000E+00  0.22885027940E+03  0.22885027940E+03  0.00000000000E+00 0. -1.
          1   -1    0    0  501    0 -0.00000000000E+00 -0.00000000000E+00 -0.19146918891E+03  0.19146918891E+03  0.00000000000E+00 0. -1.
          2    1    1    2  501    0  0.74926206270E+02 -0.61648293365E+02 -0.11660063170E+03  0.15169098778E+03  0.00000000000E+00 0. -1.
          1    1    1    2  502    0 -0.48837041628E+02 -0.32856689774E+02  0.62499070507E+02  0.85853086794E+02  0.00000000000E+00 0. -1.
         22    1    1    2    0    0  0.16259643975E+02 -0.25768379708E+02  0.13656125844E+02  0.33389746750E+02  0.00000000000E+00 0. -1.
         22    1    1    2    0    0 -0.42348808617E+02  0.12027336285E+03  0.77826525832E+02  0.14938564698E+03  0.00000000000E+00 0. -1.
</event>
<event>
 6    1  0.2809573E-005  0.6312612E+02  0.7818608E-02  0.1392480E+00
          2   -1    0    0  502    0  0.00000000000E+00  0.00000000000E+00  0.79126915963E+02  0.79126915963E+02  0.00000000000E+00 0. -1.
          1   -1    0    0  501    0 -0.00000000000E+00 -0.00000000000E+00 -0.42315369608E+03  0.42315369608E+03  0.00000000000E+00 0.  1.
          2    1    1    2  501    0 -0.16137845119E+02 -0.13618738354E+02  0.23690827694E+01  0.21248826617E+02  0.00000000000E+00 0. -1.
          1    1    1    2  502    0 -0.91896618038E+01  0.26234689894E+02 -0.34849151264E+03  0.34959840277E+03  0.00000000000E+00 0.  1.
         22    1    1    2    0    0 -0.22820457074E+02 -0.30404721053E+02  0.48920485375E+02  0.61955098359E+02  0.00000000000E+00 0. -1.
         22    1    1    2    0    0  0.48147963996E+02  0.17788769512E+02 -0.46824835622E+02  0.69478284296E+02  0.00000000000E+00 0.  1.
</event>
<event>
 6    1  0.2809573E-005  0.8543429E+02  0.7818608E-02  0.1319857E+00
          2   -1    0    0  502    0  0.00000000000E+00  0.00000000000E+00  0.14525611780E+04  0.14525611780E+04  0.00000000000E+00 0.  1.
          1   -1    0    0  501    0 -0.00000000000E+00 -0.00000000000E+00 -0.14983151720E+02  0.14983151720E+02  0.00000000000E+00 0.  1.
          2    1    1    2  501    0  0.26979957687E+02  0.38991256114E+02  0.11470571198E+03  0.12411944462E+03  0.00000000000E+00 0.  1.
          1    1    1    2  502    0 -0.11913331148E+02 -0.62115765633E+02  0.89695883424E+03  0.89918599083E+03  0.00000000000E+00 0.  1.
         22    1    1    2    0    0  0.48547817958E+02  0.32251728051E+02  0.25667210737E+03  0.26320644994E+03  0.00000000000E+00 0.  1.
         22    1    1    2    0    0 -0.63614444497E+02 -0.91272185312E+01  0.16924137265E+03  0.18103244428E+03  0.00000000000E+00 0.  1.
</event>
<event>
 6    1  0.2809573E-005  0.1791809E+03  0.7818608E-02  0.1170690E+00
          2   -1    0    0  502    0  0.00000000000E+00  0.00000000000E+00  0.12033679377E+03  0.12033679377E+03  0.00000000000E+00 0. -1.
          1   -1    0    0  501    0 -0.00000000000E+00 -0.00000000000E+00 -0.21707918133E+04  0.21707918133E+04  0.00000000000E+00 0.  1.
          2    1    1    2  501    0 -0.12834366543E+03 -0.12253862206E+03 -0.11836476213E+04  0.11968748898E+04  0.00000000000E+00 0. -1.
          1    1    1    2  502    0 -0.52638146479E+01  0.35178563185E+02 -0.89092811027E+03  0.89163789551E+03  0.00000000000E+00 0.  1.
         22    1    1    2    0    0 -0.10469022395E+02 -0.30224912483E+01 -0.23578141684E+02  0.25974307469E+02  0.00000000000E+00 0.  1.
         22    1    1    2    0    0  0.14407650248E+03  0.90382550123E+02  0.47698853720E+02  0.17664151431E+03  0.00000000000E+00 0. -1.
</event>
<event>
 6    1  0.2809573E-005  0.1184426E+03  0.7818608E-02  0.1257713E+00
          2   -1    0    0  502    0  0.00000000000E+00  0.00000000000E+00  0.71553364193E+02  0.71553364193E+02  0.00000000000E+00 0. -1.
          1   -1    0    0  501    0 -0.00000000000E+00 -0.00000000000E+00 -0.16402672792E+04  0.16402672792E+04  0.00000000000E+00 0.  1.
          2    1    1    2  501    0 -0.48253878349E+02  0.40877866758E+02 -0.52363538806E+02  0.82105888721E+02  0.00000000000E+00 0. -1.
          1    1    1    2  502    0 -0.27650795456E+02 -0.37225159919E+01 -0.14706584677E+04  0.14709230953E+04  0.00000000000E+00 0.  1.
         22    1    1    2    0    0  0.81667423517E+02 -0.63678051964E+02 -0.67805307114E+02  0.12378215557E+03  0.00000000000E+00 0. -1.
         22    1    1    2    0    0 -0.57627497124E+01  0.26522701198E+02  0.22113398579E+02  0.35009503850E+02  0.00000000000E+00 0.  1.
</event>
<event>
 6    1  0.2809573E-005  0.1059433E+03  0.7818608E-02  0.1286632E+00
          2   -1    0    0  502    0  0.00000000000E+00  0.00000000000E+00  0.20215263438E+03  0.20215263438E+03  0.00000000000E+00 0. -1.
          1   -1    0    0  501    0 -0.00000000000E+00 -0.00000000000E+00 -0.24702217393E+03  0.24702217393E+03  0.00000000000E+00 0.  1.
          2    1    1    2  501    0  0.47068562263E+02 -0.24412919967E+02  0.17052188939E+02  0.55697552572E+02  0.00000000000E+00 0. -1.
          1    1    1    2  502    0 -0.43406613278E+02 -0.72231651203E+01 -0.20007961299E+03  0.20486131828E+03  0.00000000000E+00 0.  1.
         22    1    1    2    0    0 -0.19877491635E+02 -0.45300697222E+02  0.47051654792E+02  0.68272439982E+02  0.00000000000E+00 0. -1.
         22    1    1    2    0    0  0.16215542649E+02  0.76936782309E+02  0.91106229705E+02  0.12034349748E+03  0.00000000000E+00 0. -1.
</event>
<event>
 6    1  0.2809573E-005  0.1145963E+03  0.7818608E-02  0.1253460E+00
          2   -1    0    0  502    0  0.00000000000E+00  0.00000000000E+00  0.65171346476E+03  0.65171346476E+03  0.00000000000E+00 0. -1.
          1   -1    0    0  501    0 -0.00000000000E+00 -0.00000000000E+00 -0.41484502641E+03  0.41484502641E+03  0.00000000000E+00 0. -1.
          2    1    1    2  501    0  0.11625706691E+02  0.10394767732E+03  0.21255162816E+03  0.23689337540E+03  0.00000000000E+00 0. -1.
          1    1    1    2  502    0 -0.39441823213E+02 -0.40224498776E+02 -0.38886929500E+03  0.39292874203E+03  0.00000000000E+00 0. -1.
         22    1    1    2    0    0 -0.99281529008E+01  0.32690862900E+02  0.64330527579E+02  0.72840081794E+02  0.00000000000E+00 0. -1.
         22    1    1    2    0    0  0.37744269423E+02 -0.96414041439E+02  0.34885557761E+03  0.36389629195E+03  0.00000000000E+00 0. -1.
</event>
<event>
 6    1  0.2809573E-005  0.1000632E+03  0.7818608E-02  0.1283148E+00
          2   -1    0    0  502    0  0.00000000000E+00  0.00000000000E+00  0.11064084166E+04  0.11064084166E+04  0.00000000000E+00 0.  1.
          1   -1    0    0  501    0 -0.00000000000E+00 -0.00000000000E+00 -0.43374123315E+02  0.43374123315E+02  0.00000000000E+00 0.  1.
          2    1    1    2  501    0 -0.18638909670E+02 -0.64713408626E+02  0.47877720181E+02  0.82628749836E+02  0.00000000000E+00 0.  1.
          1    1    1    2  502    0  0.13018808839E+03  0.92057197837E+02  0.53410607382E+03  0.55739820965E+03  0.00000000000E+00 0.  1.
         22    1    1    2    0    0 -0.17514268724E+02 -0.17472180145E+02  0.60934156603E+01  0.25478547886E+02  0.00000000000E+00 0.  1.
         22    1    1    2    0    0 -0.94034909992E+02 -0.98716090660E+01  0.47495708361E+03  0.48427703253E+03  0.00000000000E+00 0.  1.
</event>
<event>
 6    1  0.2809573E-005  0.2012517E+03  0.7818608E-02  0.1245222E+00
          2   -1    0    0  502    0  0.00000000000E+00  0.00000000000E+00  0.15343354239E+03  0.15343354239E+03  0.00000000000E+00 0. -1.
          1   -1    0    0  501    0 -0.00000000000E+00 -0.00000000000E+00 -0.19768876326E+04  0.19768876326E+04  0.00000000000E+00 0. -1.
          2    1    1    2  501    0  0.31735429973E+02 -0.10929213335E+02 -0.43060953903E+02  0.54596986829E+02  0.00000000000E+00 0. -1.
          1    1    1    2  502    0 -0.17896931876E+03  0.14440323356E+02 -0.18565356365E+04  0.18651978741E+04  0.00000000000E+00 0. -1.
         22    1    1    2    0    0  0.15365699353E+01  0.24323468958E+02  0.55691387640E+02  0.60790812189E+02  0.00000000000E+00 0.  1.
         22    1    1    2    0    0  0.14569731885E+03 -0.27834578979E+02  0.20451112570E+02  0.14973550184E+03  0.00000000000E+00 0. -1.
</event>
<event>
 6    1  0.2809573E-005  0.1457656E+03  0.7818608E-02  0.1328469E+00
          2   -1    0    0  502    0  0.00000000000E+00  0.00000000000E+00  0.28707414474E+02  0.28707414474E+02  0.00000000000E+00 0.  1.
          1   -1    0    0  501    0 -0.00000000000E+00 -0.00000000000E+00 -0.95657526112E+03  0.95657526112E+03  0.00000000000E+00 0.  1.
          2    1    1    2  501    0  0.30187649354E+02  0.54593647044E+02 -0.32729366162E+03  0.33318598622E+03  0.00000000000E+00 0.  1.
          1    1    1    2  502    0  0.62722223386E+02 -0.71193052045E+02 -0.19683221623E+03  0.21850732096E+03  0.00000000000E+00 0.  1.
         22    1    1    2    0    0 -0.13174363287E+02 -0.22286806865E+01  0.67720861695E+01  0.14979720181E+02  0.00000000000E+00 0.  1.
         22    1    1    2    0    0 -0.79735509454E+02  0.18828085688E+02 -0.41051405496E+03  0.41860964824E+03  0.00000000000E+00 0. -1.
</event>
<event>
 6    1  0.2809573E-005  0.2125097E+03  0.7818608E-02  0.1266573E+00
          2   -1    0    0  502    0  0.00000000000E+00  0.00000000000E+00  0.54452286311E+02  0.54452286311E+02  0.00000000000E+00 0.  1.
          1   -1    0    0  501    0 -0.00000000000E+00 -0.00000000000E+00 -0.57249301055E+03  0.57249301055E+03  0.00000000000E+00 0.  1.
          2    1    1    2  501    0 -0.83439233401E+02  0.26248710132E+02 -0.11747113572E+03  0.14646012488E+03  0.00000000000E+00 0.  1.
          1    1    1    2  502    0 -0.36594672693E+02  0.42797455233E+01 -0.23935489558E+03  0.24217401250E+03  0.00000000000E+00 0.  1.
         22    1    1    2    0    0  0.27206390737E+01  0.13291559178E+02  0.16212753023E+02  0.21140501010E+02  0.00000000000E+00 0.  1.
         22    1    1    2    0    0  0.11731326702E+03 -0.43820014833E+02 -0.17742744596E+03  0.21717065847E+03  0.00000000000E+00 0.  1.
</event>
<event>
 6    1  0.2809573E-005  0.3811602E+02  0.7818608E-02  0.1586068E+00
          2   -1    0    0  502    0  0.00000000000E+00  0.00000000000E+00  0.52034760817E+02  0.52034760817E+02  0.00000000000E+00 0.  1.
          1   -1    0    0  501    0 -0.00000000000E+00 -0.00000000000E+00 -0.50982546131E+03  0.50982546131E+03  0.00000000000E+00 0.  1.
          2    1    1    2  501    0  0.27732601974E+02 -0.13532892088E+02 -0.80789269221E+02  0.86482035139E+02  0.00000000000E+00 0.  1.
          1    1    1    2  502    0 -0.28761439335E+02  0.17278993999E+02 -0.34125617624E+03  0.34290167956E+03  0.00000000000E+00 0.  1.
         22    1    1    2    0    0  0.16573931276E+02 -0.10449318162E+02 -0.81431107835E+02  0.83755052213E+02  0.00000000000E+00 0.  1.
         22    1    1    2    0    0 -0.15545093915E+02  0.67032162510E+01  0.45685852795E+02  0.48721455218E+02  0.00000000000E+00 0.  1.
</event>
<event>
 6    1  0.2809573E-005  0.1238821E+03  0.7818608E-02  0.1273002E+00
          2   -1    0    0  502    0  0.00000000000E+00  0.00000000000E+00  0.40480701392E+03  0.40480701392E+03  0.00000000000E+00 0.  1.
          1   -1    0    0  501    0 -0.00000000000E+00 -0.00000000000E+00 -0.13330735324E+03  0.13330735324E+03  0.00000000000E+00 0.  1.
          2    1    1    2  501    0  0.50853817665E+02 -0.44415884874E+02  0.11904773467E+03  0.13686213768E+03  0.00000000000E+00 0.  1.
          1    1    1    2  502    0 -0.47730353996E+02  0.10775357521E+03 -0.69874893438E+02  0.13700919822E+03  0.00000000000E+00 0.  1.
         22    1    1    2    0    0 -0.57796754050E+02 -0.17800830439E+02  0.15461095780E+03  0.16601771778E+03  0.00000000000E+00 0. -1.
         22    1    1    2    0    0  0.54673290381E+02 -0.45536859896E+02  0.67715861652E+02  0.98225313487E+02  0.00000000000E+00 0.  1.
</event>
<event>
 6    1  0.2809573E-005  0.7093414E+02  0.7818608E-02  0.1394155E+00
          2   -1    0    0  502    0  0.00000000000E+00  0.00000000000E+00  0.17482008791E+03  0.17482008791E+03  0.00000000000E+00 0. -1.
          1   -1    0    0  501    0 -0.00000000000E+00 -0.00000000000E+00 -0.15349283967E+03  0.15349283967E+03  0.00000000000E+00 0.  1.
          2    1    1    2  501    0  0.53515143383E+01  0.19590121668E+02 -0.11701701611E+01  0.20341604433E+02  0.00000000000E+00 0. -1.
          1    1    1    2  502    0  0.11788861837E+02 -0.22646072576E+02 -0.11805432060E+03  0.12078346111E+03  0.00000000000E+00 0.  1.
         22    1    1    2    0    0 -0.47402708876E+02 -0.21336537318E+02  0.12636011676E+02  0.53497041270E+02  0.00000000000E+00 0.  1.
         22    1    1    2    0    0  0.30262332701E+02  0.24392488226E+02  0.12791572732E+03  0.13369082077E+03  0.00000000000E+00 0. -1.
</event>
<event>
 6    1  0.2809573E-005  0.1019719E+03  0.7818608E-02  0.1309009E+00
          2   -1    0    0  502    0  0.00000000000E+00  0.00000000000E+00  0.55452081378E+03  0.55452081378E+03  0.00000000000E+00 0. -1.
          1   -1    0    0  501    0 -0.00000000000E+00 -0.00000000000E+00 -0.10991291337E+03  0.10991291337E+03  0.00000000000E+00 0.  1.
          2    1    1    2  501    0 -0.66961839375E+02  0.74623430659E+02  0.34826596529E+03  0.36241099172E+03  0.00000000000E+00 0. -1.
          1    1    1    2  502    0  0.24039288237E+02 -0.95275817609E+02 -0.47005828402E+02  0.10892619843E+03  0.00000000000E+00 0.  1.
         22    1    1    2    0    0 -0.12338128894E+02  0.22612657227E+02  0.13468546564E+03  0.13712671638E+03  0.00000000000E+00 0. -1.
         22    1    1    2    0    0  0.55260680031E+02 -0.19602702778E+01  0.86622978786E+01  0.55969820632E+02  0.00000000000E+00 0. -1.
</event>
<event>
 6    1  0.2809573E-005  0.1131419E+03  0.7818608E-02  0.1340152E+00
          2   -1    0    0  502    0  0.00000000000E+00  0.00000000000E+00  0.20205061961E+03  0.20205061961E+03  0.00000000000E+00 0. -1.
          1   -1    0    0  501    0 -0.00000000000E+00 -0.00000000000E+00 -0.26004191252E+03  0.26004191252E+03  0.00000000000E+00 0.  1.
          2    1    1    2  501    0  0.23839303151E+02  0.29443139368E+02  0.26042005388E+02  0.45971696457E+02  0.00000000000E+00 0. -1.
          1    1    1    2  502    0  0.16841616011E+02  0.21357638959E+02 -0.22089770535E+03  0.22256591159E+03  0.00000000000E+00 0.  1.
         22    1    1    2    0    0 -0.81696747450E+01  0.21815938111E+02  0.10548734512E+03  0.10802897167E+03  0.00000000000E+00 0. -1.
         22    1    1    2    0    0 -0.32511244416E+02 -0.72616716438E+02  0.31377061938E+02  0.85525952410E+02  0.00000000000E+00 0.  1.
</event>
<event>
 6    1  0.2809573E-005  0.1272696E+03  0.7818608E-02  0.1342924E+00
          2   -1    0    0  502    0  0.00000000000E+00  0.00000000000E+00  0.13851073559E+03  0.13851073559E+03  0.00000000000E+00 0. -1.
          1   -1    0    0  501    0 -0.00000000000E+00 -0.00000000000E+00 -0.17707348240E+03  0.17707348240E+03  0.00000000000E+00 0. -1.
          2    1    1    2  501    0 -0.87845279690E+02 -0.91046241590E+01 -0.19460247464E+01  0.88337276147E+02  0.00000000000E+00 0. -1.
          1    1    1    2  502    0  0.82603208689E+02  0.40927376763E+01 -0.58667953337E+02  0.10140004604E+03  0.00000000000E+00 0. -1.
         22    1    1    2    0    0  0.82539032057E+01 -0.13239198362E+02  0.71431628475E+02  0.73115530758E+02  0.00000000000E+00 0. -1.
         22    1    1    2    0    0 -0.30118322055E+01  0.18251084845E+02 -0.49380397206E+02  0.52731365044E+02  0.00000000000E+00 0. -1.
</event>
<event>
 6    1  0.2809573E-005  0.5825506E+02  0.7818608E-02  0.1408002E+00
          2   -1    0    0  502    0  0.00000000000E+00  0.00000000000E+00  0.58339292392E+02  0.58339292392E+02  0.00000000000E+00 0. -1.
          1   -1    0    0  501    0 -0.00000000000E+00 -0.00000000000E+00 -0.27860614538E+03  0.27860614538E+03  0.00000000000E+00 0. -1.
          2    1    1    2  501    0 -0.24239598808E+02  0.11975953258E+02 -0.14779638007E+03  0.15024896528E+03  0.00000000000E+00 0. -1.
          1    1    1    2  502    0  0.18081754040E+02  0.26685885606E+02 -0.39846813903E+02  0.51252852584E+02  0.00000000000E+00 0. -1.
         22    1    1    2    0    0 -0.20264971715E+02  0.11704113186E+02 -0.65634588019E+02  0.69681808878E+02  0.00000000000E+00 0.  1.
         22    1    1    2    0    0  0.26422816483E+02 -0.50365952050E+02  0.33010929000E+02  0.65761811032E+02  0.00000000000E+00 0. -1.
</event>
<event>
 6    1  0.2809573E-005  0.6287556E+02  0.7818608E-02  0.1405642E+00
          2   -1    0    0  502    0  0.00000000000E+00  0.00000000000E+00  0.42716409969E+03  0.42716409969E+03  0.00000000000E+00 0.  1.
          1   -1    0    0  501    0 -0.00000000000E+00 -0.00000000000E+00 -0.28350933133E+02  0.28350933133E+02  0.00000000000E+00 0.  1.
          2    1    1    2  501    0 -0.22090972483E+02 -0.15907676192E+02  0.10014236070E+03  0.10377647919E+03  0.00000000000E+00 0.  1.
          1    1    1    2  502    0  0.56100085442E+02  0.14498186118E+02  0.11493493267E+03  0.12871462906E+03  0.00000000000E+00 0.  1.
         22    1    1    2    0    0 -0.26345527762E+02 -0.44036464838E+02  0.16581633546E+03  0.17357521186E+03  0.00000000000E+00 0.  1.
         22    1    1    2    0    0 -0.76635851977E+01  0.45445954912E+02  0.17919537735E+02  0.49448712709E+02  0.00000000000E+00 0.  1.
</event>
<event>
 6    1  0.2809573E-005  0.3884992E+03  0.7818608E-02  0.1074998E+00
          2   -1    0    0  502    0  0.00000000000E+00  0.00000000000E+00  0.19557648239E+03  0.19557648239E+03  0.00000000000E+00 0. -1.
          1   -1    0    0  501    0 -0.00000000000E+00 -0.00000000000E+00 -0.11964303451E+04  0.11964303451E+04  0.00000000000E+00 0. -1.
          2    1    1    2  501    0  0.22792557217E+03  0.23140708537E+03 -0.52845507190E+03  0.62029353425E+03  0.00000000000E+00 0. -1.
          1    1    1    2  502    0 -0.13485171502E+03 -0.37108921957E+03 -0.36612592050E+03  0.53846112542E+03  0.00000000000E+00 0. -1.
         22    1    1    2    0    0  0.78619149669E+01 -0.11785201901E+02  0.99334415288E+01  0.17302426171E+02  0.00000000000E+00 0. -1.
         22    1    1    2    0    0 -0.10093577212E+03  0.15146733610E+03 -0.11620631181E+03  0.21594974162E+03  0.00000000000E+00 0. -1.
</event>
<event>
 6    1  0.2809573E-005  0.1983904E+03  0.7818608E-02  0.1213516E+00
          2   -1    0    0  502    0  0.00000000000E+00  0.00000000000E+00  0.50520978726E+02  0.50520978726E+02  0.00000000000E+00 0. -1.
          1   -1    0    0  501    0 -0.00000000000E+00 -0.00000000000E+00 -0.41168223553E+03  0.41168223553E+03  0.00000000000E+00 0. -1.
          2    1    1    2  501    0  0.18815158343E+02 -0.46251922876E+02 -0.22155209723E+03  0.22710918594E+03  0.00000000000E+00 0. -1.
          1    1    1    2  502    0 -0.14615522108E+02  0.14105864149E+02 -0.91949120359E+02  0.94165968506E+02  0.00000000000E+00 0. -1.
         22    1    1    2    0    0 -0.41401686815E+02  0.15072168241E+02 -0.78267672983E+02  0.89817028234E+02  0.00000000000E+00 0. -1.
         22    1    1    2    0    0  0.37202050580E+02  0.17073890486E+02  0.30607633766E+02  0.51111031573E+02  0.00000000000E+00 0. -1.
</event>
<event>
 6    1  0.2809573E-005  0.1807292E+03  0.7818608E-02  0.1169170E+00
          2   -1    0    0  502    0  0.00000000000E+00  0.00000000000E+00  0.38754899405E+03  0.38754899405E+03  0.00000000000E+00 0. -1.
          1   -1    0    0  501    0 -0.00000000000E+00 -0.00000000000E+00 -0.78808071306E+03  0.78808071306E+03  0.00000000000E+00 0.  1.
          2    1    1    2  501    0 -0.75601104599E+02  0.11552331619E+03  0.11973142051E+03  0.18274784994E+03  0.00000000000E+00 0. -1.
          1    1    1    2  502    0 -0.92735184084E+02 -0.56925127277E+01 -0.69445636605E+03  0.70064389202E+03  0.00000000000E+00 0.  1.
         22    1    1    2    0    0  0.18701199116E+03 -0.10763000053E+03  0.16213646062E+03  0.26989985868E+03  0.00000000000E+00 0.  1.
         22    1    1    2    0    0 -0.18675702482E+02 -0.22008029362E+01  0.12056765906E+02  0.22338106474E+02  0.00000000000E+00 0.  1.
</event>
<event>
 6    1  0.2809573E-005  0.1173032E+03  0.7818608E-02  0.1297938E+00
          2   -1    0    0  502    0  0.00000000000E+00  0.00000000000E+00  0.14382042137E+03  0.14382042137E+03  0.00000000000E+00 0. -1.
          1   -1    0    0  501    0 -0.00000000000E+00 -0.00000000000E+00 -0.25474160646E+03  0.25474160646E+03  0.00000000000E+00 0. -1.
          2    1    1    2  501    0  0.50200404211E+02  0.36351295850E+02 -0.87092980218E+02  0.10689567108E+03  0.00000000000E+00 0. -1.
          1    1    1    2  502    0 -0.72289130384E+02 -0.10022112969E+03 -0.72294332204E+02  0.14316586073E+03  0.00000000000E+00 0. -1.
         22    1    1    2    0    0  0.37094521807E+02  0.24580579805E+02  0.82937448413E+02  0.94121351461E+02  0.00000000000E+00 0.  1.
         22    1    1    2    0    0 -0.15005795634E+02  0.39289254038E+02 -0.34471321080E+02  0.54379144554E+02  0.00000000000E+00 0.  1.
</event>
<event>
 6    1  0.2809573E-005  0.1330533E+03  0.7818608E-02  0.1232898E+00
          2   -1    0    0  502    0  0.00000000000E+00  0.00000000000E+00  0.37487302197E+03  0.37487302197E+03  0.00000000000E+00 0.  1.
          1   -1    0    0  501    0 -0.00000000000E+00 -0.00000000000E+00 -0.81301153487E+02  0.81301153487E+02  0.00000000000E+00 0.  1.
          2    1    1    2  501    0 -0.41768517816E+02  0.93259507736E+02  0.33230158808E+02  0.10745319129E+03  0.00000000000E+00 0.  1.
          1    1    1    2  502    0 -0.11685211033E+02 -0.35192382981E+02  0.17110950649E+03  0.17508144159E+03  0.00000000000E+00 0.  1.
         22    1    1    2    0    0  0.91679945441E+02 -0.52042344162E+02  0.83574682554E+02  0.13453009160E+03  0.00000000000E+00 0. -1.
         22    1    1    2    0    0 -0.38226216592E+02 -0.60247805938E+01  0.56575206260E+01  0.39109450977E+02  0.00000000000E+00 0. -1.
</event>
<event>
 6    1  0.2809573E-005  0.8833287E+02  0.7818608E-02  0.1378711E+00
          2   -1    0    0  502    0  0.00000000000E+00  0.00000000000E+00  0.13015472104E+03  0.13015472104E+03  0.00000000000E+00 0. -1.
          1   -1    0    0  501    0 -0.00000000000E+00 -0.00000000000E+00 -0.45354656837E+03  0.45354656837E+03  0.00000000000E+00 0.  1.
          2    1    1    2  501    0  0.17907640792E+02 -0.32567150879E+02 -0.34120571532E+02  0.50453110080E+02  0.00000000000E+00 0. -1.
          1    1    1    2  502    0 -0.63192627876E+02  0.69892647549E+02 -0.36681432433E+03  0.37872290521E+03  0.00000000000E+00 0.  1.
         22    1    1    2    0    0  0.19193200732E+02 -0.16922590913E+02  0.10711140688E+03  0.11012541270E+03  0.00000000000E+00 0. -1.
         22    1    1    2    0    0  0.26091786352E+02 -0.20402905758E+02 -0.29568358350E+02  0.44399861418E+02  0.00000000000E+00 0.  1.
</event>
<event>
 6    1  0.2809573E-005  0.2004332E+03  0.7818608E-02  0.1234571E+00
          2   -1    0    0  502    0  0.00000000000E+00  0.00000000000E+00  0.10410605600E+03  0.10410605600E+03  0.00000000000E+00 0.  1.
          1   -1    0    0  501    0 -0.00000000000E+00 -0.00000000000E+00 -0.26549436393E+03  0.26549436393E+03  0.00000000000E+00 0. -1.
          2    1    1    2  501    0 -0.57248732835E+01 -0.64720186494E+02  0.49730802493E+02  0.81820715168E+02  0.00000000000E+00 0.  1.
          1    1    1    2  502    0  0.35475364985E+02  0.24364237203E+02 -0.10761033909E+03  0.11589694842E+03  0.00000000000E+00 0. -1.
         22    1    1    2    0    0 -0.29084717102E+02  0.96098300242E+01  0.25129048521E+02  0.39619927834E+02  0.00000000000E+00 0.  1.
         22    1    1    2    0    0 -0.66577459962E+00  0.30746119267E+02 -0.12863781986E+03  0.13226282851E+03  0.00000000000E+00 0. -1.
</event>
<event>
 6    1  0.2809573E-005  0.1088198E+03  0.7818608E-02  0.1300422E+00
          2   -1    0    0  502    0  0.00000000000E+00  0.00000000000E+00  0.47947529983E+03  0.47947529983E+03  0.00000000000E+00 0. -1.
          1   -1    0    0  501    0 -0.00000000000E+00 -0.00000000000E+00 -0.19323831268E+03  0.19323831268E+03  0.00000000000E+00 0. -1.
          2    1    1    2  501    0  0.75783185338E+02 -0.54398285213E+02 -0.13366088584E+03  0.16299538956E+03  0.00000000000E+00 0. -1.
          1    1    1    2  502    0 -0.17157075984E+02  0.64991460652E+02  0.34317063017E+03  0.34969177375E+03  0.00000000000E+00 0. -1.
         22    1    1    2    0    0 -0.53007058532E+02  0.49909090870E+01  0.11036197145E+03  0.12253335126E+03  0.00000000000E+00 0. -1.
         22    1    1    2    0    0 -0.56190508210E+01 -0.15584084526E+02 -0.33634728643E+02  0.37493097945E+02  0.00000000000E+00 0.  1.
</event>
<event>
 6    1  0.2809573E-005  0.8087428E+02  0.7818608E-02  0.1332402E+00
          2   -1    0    0  502    0  0.00000000000E+00  0.00000000000E+00  0.47850124154E+03  0.47850124154E+03  0.00000000000E+00 0. -1.
          1   -1    0    0  501    0 -0.00000000000E+00 -0.00000000000E+00 -0.17583895081E+03  0.17583895081E+03  0.00000000000E+00 0. -1.
          2    1    1    2  501    0 -0.28531394323E+02  0.24190090566E+01  0.92572538548E+02  0.96899777915E+02  0.00000000000E+00 0. -1.
          1    1    1    2  502    0 -0.13629688283E+01  0.26580530195E+02 -0.16070493996E+03  0.16289401461E+03  0.00000000000E+00 0. -1.
         22    1    1    2    0    0  0.63039019694E+02 -0.46200022109E+02  0.33047451804E+03  0.33959058750E+03  0.00000000000E+00 0. -1.
         22    1    1    2    0    0 -0.33144656542E+02  0.17200482857E+02  0.40320174103E+02  0.54955812318E+02  0.00000000000E+00 0. -1.
</event>
<event>
 6    1  0.2809573E-005  0.9710823E+02  0.7818608E-02  0.1369799E+00
          2   -1    0    0  502    0  0.00000000000E+00  0.00000000000E+00  0.45928254363E+02  0.45928254363E+02  0.00000000000E+00 0. -1.
          1   -1    0    0  501    0 -0.00000000000E+00 -0.00000000000E+00 -0.44354814564E+03  0.44354814564E+03  0.00000000000E+00 0.  1.
          2    1    1    2  501    0 -0.79959901837E+01  0.61956121761E+02 -0.78301943051E+02  0.10016831419E+03  0.00000000000E+00 0. -1.
          1    1    1    2  502    0  0.17734254276E+02 -0.49999740303E+02 -0.22780507882E+03  0.23390090154E+03  0.00000000000E+00 0.  1.
         22    1    1    2    0    0  0.21742871879E+02 -0.49535679334E+01  0.25590778164E+02  0.33943751116E+02  0.00000000000E+00 0. -1.
         22    1    1    2    0    0 -0.31481135970E+02 -0.70028135242E+01 -0.11710364757E+03  0.12146343315E+03  0.00000000000E+00 0.  1.
</event>
<event>
 6    1  0.2809573E-005  0.1126865E+03  0.7818608E-02  0.1280746E+00
          2   -1    0    0  502    0  0.00000000000E+00  0.00000000000E+00  0.82008356653E+03  0.82008356653E+03  0.00000000000E+00 0. -1.
          1   -1    0    0  501    0 -0.00000000000E+00 -0.00000000000E+00 -0.23122894220E+02  0.23122894220E+02  0.00000000000E+00 0. -1.
          2    1    1    2  501    0  0.32590085282E+02 -0.51801979220E+02  0.10194112328E+03  0.11890143534E+03  0.00000000000E+00 0. -1.
          1    1    1    2  502    0 -0.17631369515E+02  0.51703697006E+02  0.78706156924E+02  0.95806036411E+02  0.00000000000E+00 0. -1.
         22    1    1    2    0    0 -0.25381459314E+02 -0.58434038022E+02  0.31825232700E+03  0.32456632437E+03  0.00000000000E+00 0. -1.
         22    1    1    2    0    0  0.10422743547E+02  0.58532320235E+02  0.29806106511E+03  0.30393266463E+03  0.00000000000E+00 0.  1.
</event>
<event>
 6    1  0.2809573E-005  0.7594304E+02  0.7818608E-02  0.1361542E+00
          2   -1    0    0  502    0  0.00000000000E+00  0.00000000000E+00  0.10029247098E+03  0.10029247098E+03  0.00000000000E+00 0. -1.
          1   -1    0    0  501    0 -0.00000000000E+00 -0.00000000000E+00 -0.60701349444E+03  0.60701349444E+03  0.00000000000E+00 0.  1.
          2    1    1    2  501    0  0.30290300554E+02  0.70283361162E+01  0.81550426842E+01  0.32146610045E+02  0.00000000000E+00 0. -1.
          1    1    1    2  502    0 -0.45451754466E+02  0.11634222789E+02 -0.53918327938E+03  0.54122068131E+03  0.00000000000E+00 0.  1.
         22    1    1    2    0    0 -0.30621963147E+02  0.35663147344E+02  0.39368934230E+02  0.61314579733E+02  0.00000000000E+00 0. -1.
         22    1    1    2    0    0  0.45783417060E+02 -0.54325706249E+02 -0.15061720993E+02  0.72624094324E+02  0.00000000000E+00 0. -1.
</event>
<event>
 6    1  0.2809573E-005  0.3047908E+03  0.7818608E-02  0.1112821E+00
          2   -1    0    0  502    0  0.00000000000E+00  0.00000000000E+00  0.11652051758E+04  0.11652051758E+04  0.00000000000E+00 0.  1.
          1   -1    0    0  501    0 -0.00000000000E+00 -0.00000000000E+00 -0.18802269390E+03  0.18802269390E+03  0.00000000000E+00 0.  1.
          2    1    1    2  501    0  0.22310658217E+03 -0.21808954704E+03  0.16212937327E+03  0.35160422524E+03  0.00000000000E+00 0.  1.
          1    1    1    2  502    0 -0.20723317595E+03  0.10470903071E+03  0.76548363008E+02  0.24447744724E+03  0.00000000000E+00 0.  1.
         22    1    1    2    0    0  0.13810546045E+02 -0.23090722162E+02  0.10099232007E+03  0.10451488576E+03  0.00000000000E+00 0. -1.
         22    1    1    2    0    0 -0.29683952263E+02  0.13647123849E+03  0.63751242558E+03  0.65263131148E+03  0.00000000000E+00 0.  1.
</event>
<event>
 6    1  0.2809573E-005  0.1005143E+03  0.7818608E-02  0.1323563E+00
          2   -1    0    0  502    0  0.00000000000E+00  0.00000000000E+00  0.49025652466E+03  0.49025652466E+03  0.00000000000E+00 0.  1.
          1   -1    0    0  501    0 -0.00000000000E+00 -0.00000000000E+00 -0.37373596496E+02  0.37373596496E+02  0.00000000000E+00 0. -1.
          2    1    1    2  501    0  0.22301189151E+02 -0.11947096139E+02  0.87489960150E+02  0.91074525915E+02  0.00000000000E+00 0.  1.
          1    1    1    2  502    0 -0.17021922509E+02  0.68400050381E+02  0.37786939294E+02  0.79976030905E+02  0.00000000000E+00 0. -1.
         22    1    1    2    0    0 -0.34933336440E+02 -0.89563051711E+02  0.23294829948E+03  0.25200553259E+03  0.00000000000E+00 0.  1.
         22    1    1    2    0    0  0.29654069798E+02  0.33110097469E+02  0.94657729238E+02  0.10457403174E+03  0.00000000000E+00 0. -1.
</event>
<event>
 6    1  0.2809573E-005  0.2177055E+03  0.7818608E-02  0.1227035E+00
          2   -1    0    0  502    0  0.00000000000E+00  0.00000000000E+00  0.49935074728E+03  0.49935074728E+03  0.00000000000E+00 0.  1.
          1   -1    0    0  501    0 -0.00000000000E+00 -0.00000000000E+00 -0.39708247071E+03  0.39708247071E+03  0.00000000000E+00 0.  1.
          2    1    1    2  501    0  0.97557829509E+01  0.30157716053E+02 -0.84827187970E+01  0.32811882858E+02  0.00000000000E+00 0.  1.
          1    1    1    2  502    0 -0.23185398436E+02  0.81444216561E+02 -0.35679020289E+03  0.36670147530E+03  0.00000000000E+00 0.  1.
         22    1    1    2    0    0 -0.98655368873E+01  0.26121781159E+02  0.96473972620E+02  0.10043357836E+03  0.00000000000E+00 0.  1.
         22    1    1    2    0    0  0.23295152373E+02 -0.13772371377E+03  0.37106722563E+03  0.39648628148E+03  0.00000000000E+00 0.  1.
</event>
<event>
 6    1  0.2809573E-005  0.1154278E+03  0.7818608E-02  0.1313213E+00
          2   -1    0    0  502    0  0.00000000000E+00  0.00000000000E+00  0.24654006839E+03  0.24654006839E+03  0.00000000000E+00 0.  1.
          1   -1    0    0  501    0 -0.00000000000E+00 -0.00000000000E+00 -0.74575629988E+02  0.74575629988E+02  0.00000000000E+00 0.  1.
          2    1    1    2  501    0 -0.38596605664E+01  0.39024953211E+02  0.15986889237E+02  0.42348843907E+02  0.00000000000E+00 0.  1.
          1    1    1    2  502    0  0.43071797647E+02 -0.20514787370E+00 -0.25553817098E+02  0.50082126617E+02  0.00000000000E+00 0.  1.
         22    1    1    2    0    0 -0.70842045648E+02 -0.54555934920E+02  0.75842632870E+02  0.11724781630E+03  0.00000000000E+00 0.  1.
         22    1    1    2    0    0  0.31629908567E+02  0.15736129583E+02  0.10568873339E+03  0.11143691155E+03  0.00000000000E+00 0. -1.
</event>
<event>
 6    1  0.2809573E-005  0.3549312E+03  0.7818608E-02  0.1128532E+00
          2   -1    0    0  502    0  0.00000000000E+00  0.00000000000E+00  0.35557760870E+03  0.35557760870E+03  0.00000000000E+00 0. -1.
          1   -1    0    0  501    0 -0.00000000000E+00 -0.00000000000E+00 -0.62060688567E+03  0.62060688567E+03  0.00000000000E+00 0. -1.
          2    1    1    2  501    0  0.48158155015E+02  0.29934924053E+02 -0.37172498256E+01  0.56825395016E+02  0.00000000000E+00 0. -1.
          1    1    1    2  502    0 -0.23202385629E+03 -0.28085573661E+03 -0.41320888280E+03  0.55086894584E+03  0.00000000000E+00 0. -1.
         22    1    1    2    0    0  0.10554776655E+02  0.58792356868E+02  0.80187971628E+02  0.99990276178E+02  0.00000000000E+00 0.  1.
         22    1    1    2    0    0  0.17331092462E+03  0.19212845569E+03  0.71708884026E+02  0.26849987733E+03  0.00000000000E+00 0. -1.
</event>
<event>
 6    1  0.2809573E-005  0.1158699E+03  0.7818608E-02  0.1282795E+00
          2   -1    0    0  502    0  0.00000000000E+00  0.00000000000E+00  0.10671145835E+03  0.10671145835E+03  0.00000000000E+00 0. -1.
          1   -1    0    0  501    0 -0.00000000000E+00 -0.00000000000E+00 -0.10876485659E+04  0.10876485659E+04  0.00000000000E+00 0.  1.
          2    1    1    2  501    0  0.25824458268E+02 -0.10143586502E+02 -0.73358499933E+02  0.78429997478E+02  0.00000000000E+00 0. -1.
          1    1    1    2  502    0 -0.21622966213E+02  0.77746476941E+02 -0.96096183610E+03  0.96434419051E+03  0.00000000000E+00 0.  1.
         22    1    1    2    0    0 -0.46084058411E+02 -0.22836721482E+02 -0.20687600938E+02  0.55436748825E+02  0.00000000000E+00 0.  1.
         22    1    1    2    0    0  0.41882566356E+02 -0.44766168957E+02  0.74070829409E+02  0.96149087447E+02  0.00000000000E+00 0. -1.
</event>
<event>
 6    1  0.2809573E-005  0.2622015E+03  0.7818608E-02  0.1182765E+00
          2   -1    0    0  502    0  0.00000000000E+00  0.00000000000E+00  0.69045100139E+03  0.69045100139E+03  0.00000000000E+00 0. -1.
          1   -1    0    0  501    0 -0.00000000000E+00 -0.00000000000E+00 -0.10079750897E+04  0.10079750897E+04  0.00000000000E+00 0. -1.
          2    1    1    2  501    0 -0.58112003492E+02  0.29172173741E+02  0.53960561406E+02  0.84497117453E+02  0.00000000000E+00 0. -1.
          1    1    1    2  502    0  0.34603335380E+00 -0.20429130439E+03 -0.96145970236E+03  0.98292411510E+03  0.00000000000E+00 0. -1.
         22    1    1    2    0    0  0.16735086315E+02  0.18125655426E+03  0.49283105163E+03  0.52537267442E+03  0.00000000000E+00 0. -1.
         22    1    1    2    0    0  0.41030883824E+02 -0.61374236113E+01  0.97144000986E+02  0.10563218413E+03  0.00000000000E+00 0. -1.
</event>
<event>
 6    1  0.2809573E-005  0.1068322E+03  0.7818608E-02  0.1308217E+00
          2   -1    0    0  502    0  0.00000000000E+00  0.00000000000E+00  0.37099137583E+03  0.37099137583E+03  0.00000000000E+00 0.  1.
          1   -1    0    0  501    0 -0.00000000000E+00 -0.00000000000E+00 -0.33915823013E+03  0.33915823013E+03  0.00000000000E+00 0. -1.
          2    1    1    2  501    0 -0.75307677935E+01  0.34864268768E+02  0.78767308519E+02  0.86466864125E+02  0.00000000000E+00 0.  1.
          1    1    1    2  502    0 -0.17817776027E+02 -0.16892271470E+02 -0.32035751148E+03  0.32129699211E+03  0.00000000000E+00 0. -1.
         22    1    1    2    0    0 -0.70568603371E+01 -0.60426865875E+02  0.73299941885E+02  0.95258001646E+02  0.00000000000E+00 0.  1.
         22    1    1    2    0    0  0.32405404158E+02  0.42454868576E+02  0.20012340677E+03  0.20712774807E+03  0.00000000000E+00 0.  1.
</event>
<event>
 6    1  0.2809573E-005  0.1781807E+03  0.7818608E-02  0.1170716E+00
          2   -1    0    0  502    0  0.00000000000E+00  0.00000000000E+00  0.94952607980E+02  0.94952607980E+02  0.00000000000E+00 0. -1.
          1   -1    0    0  501    0 -0.00000000000E+00 -0.00000000000E+00 -0.73691361033E+03  0.73691361033E+03  0.00000000000E+00 0. -1.
          2    1    1    2  501    0 -0.14033263901E+03 -0.49982076765E+01 -0.11235240883E+03  0.17983685779E+03  0.00000000000E+00 0. -1.
          1    1    1    2  502    0 -0.25647712380E+02 -0.37348450227E+02 -0.39720760820E+03  0.39978318611E+03  0.00000000000E+00 0. -1.
         22    1    1    2    0    0  0.18521106556E+03  0.47549086993E+02 -0.13193933361E+03  0.23231883745E+03  0.00000000000E+00 0. -1.
         22    1    1    2    0    0 -0.19230714170E+02 -0.52024290894E+01 -0.46165170795E+00  0.19927336957E+02  0.00000000000E+00 0. -1.
</event>
<event>
 6    1  0.2809573E-005  0.1609642E+03  0.7818608E-02  0.1270548E+00
          2   -1    0    0  502    0  0.00000000000E+00  0.00000000000E+00  0.50557461318E+03  0.50557461318E+03  0.00000000000E+00 0. -1.
          1   -1    0    0  501    0 -0.00000000000E+00 -0.00000000000E+00 -0.23232905171E+03  0.23232905171E+03  0.00000000000E+00 0. -1.
          2    1    1    2  501    0  0.45082346083E+02  0.51296504920E+02  0.10319990643E+03  0.12374962640E+03  0.00000000000E+00 0. -1.
          1    1    1    2  502    0 -0.95906657760E+01 -0.12223433602E+03 -0.18990438915E+03  0.22604621384E+03  0.00000000000E+00 0. -1.
         22    1    1    2    0    0  0.19703361716E+02 -0.21149309121E+02  0.14481401325E+03  0.14767062732E+03  0.00000000000E+00 0. -1.
         22    1    1    2    0    0 -0.55195042023E+02  0.92087140222E+02  0.21513603093E+03  0.24043719734E+03  0.00000000000E+00 0. -1.
</event>
<event>
 6    1  0.2809573E-005  0.1725472E+03  0.7818608E-02  0.1273797E+00
          2   -1    0    0  502    0  0.00000000000E+00  0.00000000000E+00  0.25254768328E+03  0.25254768328E+03  0.00000000000E+00 0. -1.
          1   -1    0    0  501    0 -0.00000000000E+00 -0.00000000000E+00 -0.10714242870E+03  0.10714242870E+03  0.00000000000E+00 0.  1.
          2    1    1    2  501    0  0.17797368492E+02 -0.69959311431E+02 -0.60674690309E+01  0.72442154590E+02  0.00000000000E+00 0. -1.
          1    1    1    2  502    0 -0.41776387534E+02 -0.55581040380E+01 -0.31847597630E+02  0.52824507103E+02  0.00000000000E+00 0.  1.
         22    1    1    2    0    0  0.63805559045E+01  0.88789161065E+02  0.55908119212E+02  0.10511871579E+03  0.00000000000E+00 0.  1.
         22    1    1    2    0    0  0.17598463138E+02 -0.13271745596E+02  0.12741220203E+03  0.12930473449E+03  0.00000000000E+00 0. -1.
</event>
<event>
 6    1  0.2809573E-005  0.9571704E+02  0.7818608E-02  0.1291244E+00
          2   -1    0    0  502    0  0.00000000000E+00  0.00000000000E+00  0.51991290446E+03  0.51991290446E+03  0.00000000000E+00 0. -1.
          1   -1    0    0  501    0 -0.00000000000E+00 -0.00000000000E+00 -0.34957806273E+03  0.34957806273E+03  0.00000000000E+00 0.  1.
          2    1    1    2  501    0 -0.40075225865E+02  0.51339665310E+02  0.77687830892E+02  0.10137644712E+03  0.00000000000E+00 0. -1.
          1    1    1    2  502    0 -0.30202028661E+02 -0.16395667690E+02 -0.32445239128E+03  0.32626727489E+03  0.00000000000E+00 0.  1.
         22    1    1    2    0    0  0.76732396005E+02 -0.57368260054E+02  0.40375471333E+03  0.41496607861E+03  0.00000000000E+00 0. -1.
         22    1    1    2    0    0 -0.64551414791E+01  0.22424262434E+02  0.13344688790E+02  0.26881166569E+02  0.00000000000E+00 0. -1.
</event>
<event>
 6    1  0.2809573E-005  0.9982838E+02  0.7818608E-02  0.1285049E+00
          2   -1    0    0  502    0  0.00000000000E+00  0.00000000000E+00  0.52824485180E+03  0.52824485180E+03  0.00000000000E+00 0. -1.
          1   -1    0    0  501    0 -0.00000000000E+00 -0.00000000000E+00 -0.18133068623E+04  0.18133068623E+04  0.00000000000E+00 0.  1.
          2    1    1    2  501    0 -0.33144869000E+02 -0.48179089013E+02  0.23536484905E+03  0.24252096637E+03  0.00000000000E+00 0. -1.
          1    1    1    2  502    0  0.52826538749E+01  0.25045213872E+02 -0.17948718299E+04  0.17950543321E+04  0.00000000000E+00 0.  1.
         22    1    1    2    0    0 -0.44588384373E+02 -0.14835553876E+02  0.12615310932E+03  0.13462104096E+03  0.00000000000E+00 0.  1.
         22    1    1    2    0    0  0.72450599498E+02  0.37969429016E+02  0.14829186102E+03  0.16935537474E+03  0.00000000000E+00 0. -1.
</event>
<event>
 6    1  0.2809573E-005  0.9358119E+02  0.7818608E-02  0.1355806E+00
          2   -1    0    0  502    0  0.00000000000E+00  0.00000000000E+00  0.18469227764E+03  0.18469227764E+03  0.00000000000E+00 0. -1.
          1   -1    0    0  501    0 -0.00000000000E+00 -0.00000000000E+00 -0.27295151220E+03  0.27295151220E+03  0.00000000000E+00 0. -1.
          2    1    1    2  501    0 -0.72693475142E+02 -0.53964471461E+01  0.96092172899E+01  0.73524145877E+02  0.00000000000E+00 0. -1.
          1    1    1    2  502    0  0.66534314362E+02 -0.31831530915E+02 -0.20549426603E+03  0.21832992173E+03  0.00000000000E+00 0. -1.
         22    1    1    2    0    0  0.18585012671E+02  0.25424396696E+02  0.13216100032E+03  0.13586144652E+03  0.00000000000E+00 0.  1.
         22    1    1    2    0    0 -0.12425851891E+02  0.11803581365E+02 -0.24535186144E+02  0.29928275716E+02  0.00000000000E+00 0.  1.
</event>
<event>
 6    1  0.2809573E-005  0.1891699E+03  0.7818608E-02  0.1223105E+00
          2   -1    0    0  502    0  0.00000000000E+00  0.00000000000E+00  0.91764053316E+01  0.91764053316E+01  0.00000000000E+00 0. -1.
          1   -1    0    0  501    0 -0.00000000000E+00 -0.00000000000E+00 -0.27765482923E+04  0.27765482923E+04  0.00000000000E+00 0. -1.
          2    1    1    2  501    0  0.58510726854E+02 -0.89159738761E+01 -0.11283904128E+04  0.11299415575E+04  0.00000000000E+00 0. -1.
          1    1    1    2  502    0 -0.29240344817E+02  0.24873209442E+02 -0.11514917560E+04  0.11521314762E+04  0.00000000000E+00 0. -1.
         22    1    1    2    0    0 -0.55467083383E+02 -0.52888641721E+02 -0.23643344025E+03  0.24854492035E+03  0.00000000000E+00 0. -1.
         22    1    1    2    0    0  0.26196701346E+02  0.36931406155E+02 -0.25105627790E+03  0.25510674353E+03  0.00000000000E+00 0.  1.
</event>
<event>
 6    1  0.2809573E-005  0.8791443E+02  0.7818608E-02  0.1317120E+00
          2   -1    0    0  502    0  0.00000000000E+00  0.00000000000E+00  0.13325198612E+03  0.13325198612E+03  0.00000000000E+00 0.  1.
          1   -1    0    0  501    0 -0.00000000000E+00 -0.00000000000E+00 -0.20643469503E+03  0.20643469503E+03  0.00000000000E+00 0.  1.
          2    1    1    2  501    0  0.39254130211E+02  0.12632540459E+01  0.75828374868E+01  0.39999774671E+02  0.00000000000E+00 0.  1.
          1    1    1    2  502    0 -0.28258076237E+02 -0.44219040399E+02 -0.14470305239E+03  0.15392470814E+03  0.00000000000E+00 0.  1.
         22    1    1    2    0    0 -0.26746433336E+02  0.82069083542E+02  0.55900603611E+02  0.10283765679E+03  0.00000000000E+00 0.  1.
         22    1    1    2    0    0  0.15750379362E+02 -0.39113297188E+02  0.80369023778E+01  0.42924541545E+02  0.00000000000E+00 0.  1.
</event>
<event>
 6    1  0.2809573E-005  0.6338226E+02  0.7818608E-02  0.1387945E+00
          2   -1    0    0  502    0  0.00000000000E+00  0.00000000000E+00  0.26322617826E+03  0.26322617826E+03  0.00000000000E+00 0. -1.
          1   -1    0    0  501    0 -0.00000000000E+00 -0.00000000000E+00 -0.64241528519E+02  0.64241528519E+02  0.00000000000E+00 0.  1.
          2    1    1    2  501    0 -0.10521008111E+02 -0.21446996444E+02  0.59270488196E+01  0.24612906693E+02  0.00000000000E+00 0. -1.
          1    1    1    2  502    0 -0.41971719143E+02  0.21935097538E+02 -0.17713241429E+02  0.50562166031E+02  0.00000000000E+00 0.  1.
         22    1    1    2    0    0 -0.12443713618E+02 -0.92240676855E+01 -0.12311974588E+02  0.19786716542E+02  0.00000000000E+00 0. -1.
         22    1    1    2    0    0  0.64936440872E+02  0.87359665915E+01  0.22308281694E+03  0.23250591751E+03  0.00000000000E+00 0. -1.
</event>
<event>
 6    1  0.2809573E-005  0.1163900E+03  0.7818608E-02  0.1267718E+00
          2   -1    0    0  502    0  0.00000000000E+00  0.00000000000E+00  0.34804665704E+03  0.34804665704E+03  0.00000000000E+00 0. -1.
          1   -1    0    0  501    0 -0.00000000000E+00 -0.00000000000E+00 -0.14716541906E+04  0.14716541906E+04  0.00000000000E+00 0. -1.
          2    1    1    2  501    0 -0.95195511116E+02 -0.11059842666E+03  0.16835107873E+03  0.22279201742E+03  0.00000000000E+00 0. -1.
          1    1    1    2  502    0  0.55529994139E+02  0.96510089173E+02 -0.14122221148E+04  0.14166047717E+04  0.00000000000E+00 0. -1.
         22    1    1    2    0    0 -0.25451118890E+02 -0.33689429462E+02  0.79079142287E+02  0.89645121759E+02  0.00000000000E+00 0. -1.
         22    1    1    2    0    0  0.65116635867E+02  0.47777766953E+02  0.41184360282E+02  0.90658936755E+02  0.00000000000E+00 0. -1.
</event>
<event>
 6    1  0.2809573E-005  0.2109687E+03  0.7818608E-02  0.1220429E+00
          2   -1    0    0  502    0  0.00000000000E+00  0.00000000000E+00  0.31148182718E+03  0.31148182718E+03  0.00000000000E+00 0.  1.
          1   -1    0    0  501    0 -0.00000000000E+00 -0.00000000000E+00 -0.46017737771E+03  0.46017737771E+03  0.00000000000E+00 0.  1.
          2    1    1    2  501    0 -0.13505935798E+02  0.13047225718E+03  0.97809102235E+02  0.16362163877E+03  0.00000000000E+00 0.  1.
          1    1    1    2  502    0  0.43995276975E+02 -0.18848223765E+03 -0.37140145212E+03  0.41880804308E+03  0.00000000000E+00 0.  1.
         22    1    1    2    0    0  0.32636307401E+02 -0.13237034737E+02  0.41324682571E+01  0.35460188145E+02  0.00000000000E+00 0.  1.
         22    1    1    2    0    0 -0.63125648577E+02  0.71247015212E+02  0.12076433110E+03  0.15376933489E+03  0.00000000000E+00 0.  1.
</event>
<event>
 6    1  0.2809573E-005  0.8547157E+02  0.7818608E-02  0.1407031E+00
          2   -1    0    0  502    0  0.00000000000E+00  0.00000000000E+00  0.55960040265E+02  0.55960040265E+02  0.00000000000E+00 0. -1.
          1   -1    0    0  501    0 -0.00000000000E+00 -0.00000000000E+00 -0.15065999804E+04  0.15065999804E+04  0.00000000000E+00 0.  1.
          2    1    1    2  501    0  0.11263627497E+02  0.24617999136E+02  0.55007261287E+01  0.27625589112E+02  0.00000000000E+00 0. -1.
          1    1    1    2  502    0 -0.68405267920E+01 -0.20997272835E+02 -0.13983131188E+04  0.13984874888E+04  0.00000000000E+00 0.  1.
         22    1    1    2    0    0 -0.14342283526E+02  0.10795970275E+02  0.36411876235E+02  0.40596536821E+02  0.00000000000E+00 0.  1.
         22    1    1    2    0    0  0.99191828212E+01 -0.14416696577E+02 -0.94239423719E+02  0.95850405899E+02  0.00000000000E+00 0.  1.
</event>
<event>
 6    1  0.2809573E-005  0.6557751E+02  0.7818608E-02  0.1426154E+00
          2   -1    0    0  502    0  0.00000000000E+00  0.00000000000E+00  0.71839170730E+02  0.71839170730E+02  0.00000000000E+00 0.  1.
          1   -1    0    0  501    0 -0.00000000000E+00 -0.00000000000E+00 -0.23003704695E+04  0.23003704695E+04  0.00000000000E+00 0.  1.
          2    1    1    2  501    0  0.18517075189E+02 -0.23115704120E+02 -0.32175076505E+02  0.43731606404E+02  0.00000000000E+00 0.  1.
          1    1    1    2  502    0 -0.18637003634E+02  0.42433712876E+02 -0.22037980415E+04  0.22042853185E+04  0.00000000000E+00 0.  1.
         22    1    1    2    0    0 -0.28662507237E+02 -0.26116785224E+02 -0.47789097643E+02  0.61542047781E+02  0.00000000000E+00 0.  1.
         22    1    1    2    0    0  0.28782435682E+02  0.67987764679E+01  0.55230916845E+02  0.62650667520E+02  0.00000000000E+00 0.  1.
</event>
<event>
 6    1  0.2809573E-005  0.2589824E+03  0.7818608E-02  0.1112044E+00
          2   -1    0    0  502    0  0.00000000000E+00  0.00000000000E+00  0.40393904536E+03  0.40393904536E+03  0.00000000000E+00 0.  1.
          1   -1    0    0  501    0 -0.00000000000E+00 -0.00000000000E+00 -0.39841575985E+03  0.39841575985E+03  0.00000000000E+00 0. -1.
          2    1    1    2  501    0  0.74248720939E+02 -0.27498789329E+03 -0.25318763506E+02  0.28595848266E+03  0.00000000000E+00 0.  1.
          1    1    1    2  502    0 -0.40530748259E+01  0.82707699603E+02 -0.17829439824E+03  0.19658556263E+03  0.00000000000E+00 0. -1.
         22    1    1    2    0    0  0.25651709450E+02 -0.18309115809E+00  0.12898815264E+02  0.28712769899E+02  0.00000000000E+00 0. -1.
         22    1    1    2    0    0 -0.95847355563E+02  0.19246328485E+03  0.19623763200E+03  0.29109799003E+03  0.00000000000E+00 0.  1.
</event>
<event>
 6    1  0.2809573E-005  0.1540214E+03  0.7818608E-02  0.1213584E+00
          2   -1    0    0  502    0  0.00000000000E+00  0.00000000000E+00  0.38594584687E+03  0.38594584687E+03  0.00000000000E+00 0.  1.
          1   -1    0    0  501    0 -0.00000000000E+00 -0.00000000000E+00 -0.29833835453E+04  0.29833835453E+04  0.00000000000E+00 0.  1.
          2    1    1    2  501    0  0.74813843606E+02 -0.19876720137E+03  0.14838034741E+02  0.21289828278E+03  0.00000000000E+00 0.  1.
          1    1    1    2  502    0  0.19850830415E+01  0.15039100416E+03 -0.28603896618E+04  0.28643411829E+04  0.00000000000E+00 0.  1.
         22    1    1    2    0    0  0.72471888470E+01 -0.13845736601E+02 -0.64330609239E+01  0.16900013049E+02  0.00000000000E+00 0.  1.
         22    1    1    2    0    0 -0.84046115495E+02  0.62221933812E+02  0.25454698955E+03  0.27518991345E+03  0.00000000000E+00 0.  1.
</event>
<event>
 6    1  0.2809573E-005  0.3937036E+03  0.7818608E-02  0.1115944E+00
          2   -1    0    0  502    0  0.00000000000E+00  0.00000000000E+00  0.42351569632E+03  0.42351569632E+03  0.00000000000E+00 0.  1.
          1   -1    0    0  501    0 -0.00000000000E+00 -0.00000000000E+00 -0.13482683403E+04  0.13482683403E+04  0.00000000000E+00 0.  1.
          2    1    1    2  501    0  0.20098496885E+02 -0.59099091717E+02 -0.42865359431E+03  0.43317497173E+03  0.00000000000E+00 0.  1.
          1    1    1    2  502    0 -0.49993011548E+02  0.12359679520E+02 -0.90580112237E+03  0.90726387351E+03  0.00000000000E+00 0.  1.
         22    1    1    2    0    0 -0.23467246473E+02  0.54886855160E+02  0.32822506143E+03  0.33360900689E+03  0.00000000000E+00 0.  1.
         22    1    1    2    0    0  0.53361761136E+02 -0.81474429631E+01  0.81477011320E+02  0.97736184456E+02  0.00000000000E+00 0.  1.
</event>
<event>
 6    1  0.8399799E-005  0.4310715E+02  0.7818608E-02  0.1497178E+00
          2   -1    0    0  502    0  0.00000000000E+00  0.00000000000E+00  0.15471599752E+03  0.15471599752E+03  0.00000000000E+00 0. -1.
          1   -1    0    0  501    0 -0.00000000000E+00 -0.00000000000E+00 -0.99256298127E+03  0.99256298127E+03  0.00000000000E+00 0. -1.
          2    1    1    2  501    0 -0.35643185655E+02 -0.40176125051E+01 -0.86933425111E+01  0.36907344769E+02  0.00000000000E+00 0. -1.
          1    1    1    2  502    0  0.35031869695E+02 -0.16104042057E+02 -0.94131202425E+03  0.94210132102E+03  0.00000000000E+00 0. -1.
         22    1    1    2    0    0  0.21258009331E+02  0.30492016356E+02  0.13242107222E+03  0.13753910858E+03  0.00000000000E+00 0. -1.
         22    1    1    2    0    0 -0.20646693371E+02 -0.10370361794E+02 -0.20262689208E+02  0.30731204416E+02  0.00000000000E+00 0. -1.
</event>
<event>
 6    1  0.2809573E-005  0.3279046E+03  0.7818608E-02  0.1157838E+00
          2   -1    0    0  502    0  0.00000000000E+00  0.00000000000E+00  0.41635222916E+03  0.41635222916E+03  0.00000000000E+00 0.  1.
          1   -1    0    0  501    0 -0.00000000000E+00 -0.00000000000E+00 -0.30780960294E+03  0.30780960294E+03  0.00000000000E+00 0. -1.
          2    1    1    2  501    0  0.12964000589E+03  0.16806490483E+03  0.10233906197E+03  0.23563876372E+03  0.00000000000E+00 0.  1.
          1    1    1    2  502    0 -0.18781428365E+03 -0.11389717217E+03 -0.15620549192E+03  0.26953093825E+03  0.00000000000E+00 0. -1.
         22    1    1    2    0    0  0.14926662193E+02  0.34407333791E+02  0.87466324586E+02  0.95168418077E+02  0.00000000000E+00 0.  1.
         22    1    1    2    0    0  0.43247615564E+02 -0.88575066453E+02  0.74942731580E+02  0.12382371205E+03  0.00000000000E+00 0.  1.
</event>
<event>
 6    1  0.2809573E-005  0.1994649E+03  0.7818608E-02  0.1214055E+00
          2   -1    0    0  502    0  0.00000000000E+00  0.00000000000E+00  0.12734992885E+03  0.12734992885E+03  0.00000000000E+00 0.  1.
          1   -1    0    0  501    0 -0.00000000000E+00 -0.00000000000E+00 -0.47143168108E+03  0.47143168108E+03  0.00000000000E+00 0.  1.
          2    1    1    2  501    0  0.48157520331E+02 -0.36593962917E+02 -0.95304814270E+02  0.11287724531E+03  0.00000000000E+00 0.  1.
          1    1    1    2  502    0 -0.10523404062E+02  0.93340878971E+02 -0.31414097629E+03  0.32788384331E+03  0.00000000000E+00 0.  1.
         22    1    1    2    0    0 -0.33103701313E+02  0.34297284217E+02  0.33811999886E+01  0.47786936067E+02  0.00000000000E+00 0.  1.
         22    1    1    2    0    0 -0.45304149559E+01 -0.91044200272E+02  0.61982838345E+02  0.11023358523E+03  0.00000000000E+00 0.  1.
</event>
<event>
 6    1  0.2809573E-005  0.8238034E+02  0.7818608E-02  0.1324261E+00
          2   -1    0    0  502    0  0.00000000000E+00  0.00000000000E+00  0.34929352616E+03  0.34929352616E+03  0.00000000000E+00 0. -1.
          1   -1    0    0  501    0 -0.00000000000E+00 -0.00000000000E+00 -0.27719839749E+03  0.27719839749E+03  0.00000000000E+00 0. -1.
          2    1    1    2  501    0  0.42646645721E+02 -0.10538763604E+02  0.88452961120E+02  0.98760965267E+02  0.00000000000E+00 0. -1.
          1    1    1    2  502    0 -0.15568863752E+02  0.32185560392E+02 -0.25546738963E+03  0.25795714175E+03  0.00000000000E+00 0. -1.
         22    1    1    2    0    0 -0.69924210275E+02 -0.83579332340E+01  0.91281465259E+02  0.11528901132E+03  0.00000000000E+00 0. -1.
         22    1    1    2    0    0  0.42846428306E+02 -0.13288863554E+02  0.14782809192E+03  0.15448480531E+03  0.00000000000E+00 0. -1.
</event>
<event>
 6    1  0.2809573E-005  0.2643597E+03  0.7818608E-02  0.1143959E+00
          2   -1    0    0  502    0  0.00000000000E+00  0.00000000000E+00  0.42548084412E+03  0.42548084412E+03  0.00000000000E+00 0. -1.
          1   -1    0    0  501    0 -0.00000000000E+00 -0.00000000000E+00 -0.16670266299E+04  0.16670266299E+04  0.00000000000E+00 0. -1.
          2    1    1    2  501    0  0.21571459105E+03 -0.13631435992E+03  0.41497992768E+02  0.25852750901E+03  0.00000000000E+00 0. -1.
          1    1    1    2  502    0 -0.19351842626E+03  0.82597601492E+02 -0.15327729131E+04  0.15471472290E+04  0.00000000000E+00 0. -1.
         22    1    1    2    0    0  0.10267230231E+02 -0.40223284050E+02  0.80551870063E+02  0.90619712905E+02  0.00000000000E+00 0. -1.
         22    1    1    2    0    0 -0.32463395020E+02  0.93940042478E+02  0.16917726451E+03  0.19621302308E+03  0.00000000000E+00 0. -1.
</event>
<event>
 6    1  0.2809573E-005  0.2030180E+03  0.7818608E-02  0.1258612E+00
          2   -1    0    0  502    0  0.00000000000E+00  0.00000000000E+00  0.15480162275E+03  0.15480162275E+03  0.00000000000E+00 0. -1.
          1   -1    0    0  501    0 -0.00000000000E+00 -0.00000000000E+00 -0.44615504723E+03  0.44615504723E+03  0.00000000000E+00 0. -1.
          2    1    1    2  501    0 -0.27865248994E+02  0.14585617538E+03 -0.17782786006E+03  0.23167486659E+03  0.00000000000E+00 0. -1.
          1    1    1    2  502    0  0.58764198860E+02 -0.19508447246E+03 -0.30622652789E+02  0.20603137947E+03  0.00000000000E+00 0. -1.
         22    1    1    2    0    0 -0.24365714173E+02  0.32258571706E+02 -0.11744849093E+03  0.12421131791E+03  0.00000000000E+00 0.  1.
         22    1    1    2    0    0 -0.65332356937E+01  0.16969725379E+02  0.34545579300E+02  0.39039105999E+02  0.00000000000E+00 0.  1.
</event>
<event>
 6    1  0.2809573E-005  0.7680722E+02  0.7818608E-02  0.1351762E+00
          2   -1    0    0  502    0  0.00000000000E+00  0.00000000000E+00  0.13683254750E+03  0.13683254750E+03  0.00000000000E+00 0. -1.
          1   -1    0    0  501    0 -0.00000000000E+00 -0.00000000000E+00 -0.79257220743E+03  0.79257220743E+03  0.00000000000E+00 0.  1.
          2    1    1    2  501    0  0.21285152489E+02  0.35671893696E+02  0.25996268914E+02  0.49003547971E+02  0.00000000000E+00 0. -1.
          1    1    1    2  502    0 -0.25682036139E+02 -0.14641218808E+02 -0.73828705342E+03  0.73887868119E+03  0.00000000000E+00 0.  1.
         22    1    1    2    0    0 -0.12502072109E+02 -0.41085423892E+02 -0.29146362886E+02  0.51902064822E+02  0.00000000000E+00 0.  1.
         22    1    1    2    0    0  0.16898955759E+02  0.20054749004E+02  0.85697487465E+02  0.89620460952E+02  0.00000000000E+00 0.  1.
</event>
<event>
 6    1  0.2809573E-005  0.7219011E+02  0.7818608E-02  0.1361501E+00
          2   -1    0    0  502    0  0.00000000000E+00  0.00000000000E+00  0.26314768782E+02  0.26314768782E+02  0.00000000000E+00 0.  1.
          1   -1    0    0  501    0 -0.00000000000E+00 -0.00000000000E+00 -0.72585417431E+03  0.72585417431E+03  0.00000000000E+00 0.  1.
          2    1    1    2  501    0 -0.10298539533E+02 -0.18745206401E+02 -0.20997072608E+02  0.29971982544E+02  0.00000000000E+00 0.  1.
          1    1    1    2  502    0  0.59022158941E+02  0.26520650777E+02 -0.46459052948E+03  0.46907496229E+03  0.00000000000E+00 0.  1.
         22    1    1    2    0    0 -0.45289742015E+02  0.42823579539E+02 -0.45415862291E+02  0.77120815892E+02  0.00000000000E+00 0. -1.
         22    1    1    2    0    0 -0.34338773934E+01 -0.50599023915E+02 -0.16853594115E+03  0.17600118236E+03  0.00000000000E+00 0.  1.
</event>
<event>
 6    1  0.2809573E-005  0.1566473E+03  0.7818608E-02  0.1231128E+00
          2   -1    0    0  502    0  0.00000000000E+00  0.00000000000E+00  0.41015922804E+03  0.41015922804E+03  0.00000000000E+00 0. -1.
          1   -1    0    0  501    0 -0.00000000000E+00 -0.00000000000E+00 -0.12319993601E+03  0.12319993601E+03  0.00000000000E+00 0. -1.
          2    1    1    2  501    0  0.41799209137E+01 -0.10776614798E+03  0.20204348856E+03  0.22902529480E+03  0.00000000000E+00 0. -1.
          1    1    1    2  502    0 -0.37560430485E+02  0.12955768069E+03 -0.21181476312E+02  0.13654535328E+03  0.00000000000E+00 0. -1.
         22    1    1    2    0    0  0.61035362802E+02  0.31902843290E+02  0.65274792273E+02  0.94888910989E+02  0.00000000000E+00 0.  1.
         22    1    1    2    0    0 -0.27654853231E+02 -0.53694375997E+02  0.40822487506E+02  0.72899604986E+02  0.00000000000E+00 0. -1.
</event>
<event>
 6    1  0.2809573E-005  0.7807618E+02  0.7818608E-02  0.1344476E+00
          2   -1    0    0  502    0  0.00000000000E+00  0.00000000000E+00  0.25293278220E+03  0.25293278220E+03  0.00000000000E+00 0. -1.
          1   -1    0    0  501    0 -0.00000000000E+00 -0.00000000000E+00 -0.29346481331E+03  0.29346481331E+03  0.00000000000E+00 0. -1.
          2    1    1    2  501    0  0.20581388313E+02  0.14744714241E+02  0.20063125574E+02  0.32303701811E+02  0.00000000000E+00 0. -1.
          1    1    1    2  502    0  0.78755148580E+01 -0.27695505148E+02 -0.26711648662E+03  0.26866388325E+03  0.00000000000E+00 0. -1.
         22    1    1    2    0    0 -0.51111228277E+01  0.68036151863E+02  0.77765563220E+02  0.10345300556E+03  0.00000000000E+00 0. -1.
         22    1    1    2    0    0 -0.23345780343E+02 -0.55085360957E+02  0.12875576672E+03  0.14197700488E+03  0.00000000000E+00 0. -1.
</event>
<event>
 6    1  0.2809573E-005  0.7752310E+02  0.7818608E-02  0.1380218E+00
          2   -1    0    0  502    0  0.00000000000E+00  0.00000000000E+00  0.21430657457E+02  0.21430657457E+02  0.00000000000E+00 0. -1.
          1   -1    0    0  501    0 -0.00000000000E+00 -0.00000000000E+00 -0.46108089823E+03  0.46108089823E+03  0.00000000000E+00 0. -1.
          2    1    1    2  501    0  0.20170142868E+02 -0.36757137043E+02 -0.12530360349E+03  0.13213218697E+03  0.00000000000E+00 0. -1.
          1    1    1    2  502    0 -0.17250637513E+02  0.16083300569E+02 -0.74062227773E+02  0.77726897755E+02  0.00000000000E+00 0. -1.
         22    1    1    2    0    0 -0.35766011419E+02 -0.43365609360E+01 -0.82323318126E+01  0.36956523385E+02  0.00000000000E+00 0. -1.
         22    1    1    2    0    0  0.32846506065E+02  0.25010397411E+02 -0.23205207769E+03  0.23569594757E+03  0.00000000000E+00 0. -1.
</event>
<event>
 6    1  0.5386117E-005  0.2018353E+03  0.7818608E-02  0.1255503E+00
          2   -1    0    0  502    0  0.00000000000E+00  0.00000000000E+00  0.14830882811E+03  0.14830882811E+03  0.00000000000E+00 0.  1.
          1   -1    0    0  501    0 -0.00000000000E+00 -0.00000000000E+00 -0.10383384637E+04  0.10383384637E+04  0.00000000000E+00 0.  1.
          2    1    1    2  501    0 -0.21719637778E+02  0.52041321664E+02 -0.58251081712E+02  0.81075460815E+02  0.00000000000E+00 0.  1.
          1    1    1    2  502    0  0.21412457214E+02 -0.11831355723E+02 -0.93690187354E+03  0.93722120918E+03  0.00000000000E+00 0.  1.
         22    1    1    2    0    0  0.19004657248E+02 -0.51015609166E+01 -0.25268562409E+02  0.32026600930E+02  0.00000000000E+00 0. -1.
         22    1    1    2    0    0 -0.18697476684E+02 -0.35108405025E+02  0.13039188212E+03  0.13632402085E+03  0.00000000000E+00 0.  1.
</event>
<event>
 6    1  0.2809573E-005  0.6849983E+02  0.7818608E-02  0.1412429E+00
          2   -1    0    0  502    0  0.00000000000E+00  0.00000000000E+00  0.88713007781E+02  0.88713007781E+02  0.00000000000E+00 0. -1.
          1   -1    0    0  501    0 -0.00000000000E+00 -0.00000000000E+00 -0.97167712603E+02  0.97167712603E+02  0.00000000000E+00 0. -1.
          2    1    1    2  501    0 -0.28637523426E+02 -0.12582554893E+02  0.13211321390E+01  0.31307727891E+02  0.00000000000E+00 0. -1.
          1    1    1    2  502    0  0.28489887315E+01  0.26250089015E+02 -0.68823552037E+01  0.27286456774E+02  0.00000000000E+00 0. -1.
         22    1    1    2    0    0  0.20962464111E+02  0.22736865076E+02  0.52437761610E+02  0.60877818438E+02  0.00000000000E+00 0. -1.
         22    1    1    2    0    0  0.48260705830E+01 -0.36404399198E+02 -0.55331243368E+02  0.66408717281E+02  0.00000000000E+00 0. -1.
</event>
<event>
 6    1  0.2809573E-005  0.7464222E+02  0.7818608E-02  0.1361371E+00
          2   -1    0    0  502    0  0.00000000000E+00  0.00000000000E+00  0.51200592550E+03  0.51200592550E+03  0.00000000000E+00 0. -1.
          1   -1    0    0  501    0 -0.00000000000E+00 -0.00000000000E+00 -0.11251809745E+03  0.11251809745E+03  0.00000000000E+00 0. -1.
          2    1    1    2  501    0  0.21712399195E+02  0.65986724106E+01  0.46136425142E+02  0.51415372033E+02  0.00000000000E+00 0. -1.
          1    1    1    2  502    0 -0.18981332961E+02 -0.21238711923E+02 -0.99610378812E+02  0.10360309577E+03  0.00000000000E+00 0. -1.
         22    1    1    2    0    0 -0.28639254663E+01  0.66247009244E+02  0.18270622675E+03  0.19436675024E+03  0.00000000000E+00 0. -1.
         22    1    1    2    0    0  0.13285923194E+00 -0.51606969731E+02  0.27025555497E+03  0.27513880491E+03  0.00000000000E+00 0. -1.
</event>
<event>
 6    1  0.2809573E-005  0.7975355E+02  0.7818608E-02  0.1332339E+00
          2   -1    0    0  502    0  0.00000000000E+00  0.00000000000E+00  0.39432253897E+03  0.39432253897E+03  0.00000000000E+00 0. -1.
          1   -1    0    0  501    0 -0.00000000000E+00 -0.00000000000E+00 -0.30486822015E+03  0.30486822015E+03  0.00000000000E+00 0. -1.
          2    1    1    2  501    0 -0.20487194009E+02 -0.93437867360E+01  0.31170171829E+02  0.38452712268E+02  0.00000000000E+00 0. -1.
          1    1    1    2  502    0 -0.66737477300E+02  0.43666206399E+02 -0.27915048841E+03  0.29031986435E+03  0.00000000000E+00 0. -1.
         22    1    1    2    0    0  0.11444676981E+03 -0.42231420488E+02  0.29661149411E+03  0.32071784240E+03  0.00000000000E+00 0. -1.
         22    1    1    2    0    0 -0.27222098502E+02  0.79090008254E+01  0.40823141290E+02  0.49700340096E+02  0.00000000000E+00 0. -1.
</event>
<event>
 6    1  0.2809573E-005  0.8807788E+02  0.7818608E-02  0.1423982E+00
          2   -1    0    0  502    0  0.00000000000E+00  0.00000000000E+00  0.59458840000E+02  0.59458840000E+02  0.00000000000E+00 0.  1.
          1   -1    0    0  501    0 -0.00000000000E+00 -0.00000000000E+00 -0.13433937474E+04  0.13433937474E+04  0.00000000000E+00 0. -1.
          2    1    1    2  501    0 -0.28446525118E+01  0.20027939693E+02 -0.12928101196E+03  0.13085408083E+03  0.00000000000E+00 0.  1.
          1    1    1    2  502    0 -0.25294741594E+02  0.28562300543E+02 -0.11330725507E+04  0.11337147058E+04  0.00000000000E+00 0. -1.
         22    1    1    2    0    0  0.12561528377E+02 -0.11922934853E+01  0.49699884713E+02  0.51276623323E+02  0.00000000000E+00 0.  1.
         22    1    1    2    0    0  0.15577865729E+02 -0.47397946750E+02 -0.71281229421E+02  0.87007177432E+02  0.00000000000E+00 0.  1.
</event>
<event>
 6    1  0.2809573E-005  0.8973891E+02  0.7818608E-02  0.1315163E+00
          2   -1    0    0  502    0  0.00000000000E+00  0.00000000000E+00  0.23703067623E+03  0.23703067623E+03  0.00000000000E+00 0. -1.
          1   -1    0    0  501    0 -0.00000000000E+00 -0.00000000000E+00 -0.15059379800E+03  0.15059379800E+03  0.00000000000E+00 0. -1.
          2    1    1    2  501    0 -0.37489584165E+02  0.25796860954E+02  0.16908225283E+02  0.48547245423E+02  0.00000000000E+00 0. -1.
          1    1    1    2  502    0 -0.20049428497E+02 -0.49040158912E+02 -0.10539272179E+03  0.11795991936E+03  0.00000000000E+00 0. -1.
         22    1    1    2    0    0  0.69005600802E+02  0.45031278137E+02  0.17815234328E+03  0.19628511499E+03  0.00000000000E+00 0. -1.
         22    1    1    2    0    0 -0.11466588141E+02 -0.21787980179E+02 -0.32309685475E+01  0.24832194458E+02  0.00000000000E+00 0. -1.
</event>
<event>
 6    1  0.2809573E-005  0.9006200E+02  0.7818608E-02  0.1314098E+00
          2   -1    0    0  502    0  0.00000000000E+00  0.00000000000E+00  0.18965983578E+03  0.18965983578E+03  0.00000000000E+00 0. -1.
          1   -1    0    0  501    0 -0.00000000000E+00 -0.00000000000E+00 -0.13288761637E+03  0.13288761637E+03  0.00000000000E+00 0.  1.
          2    1    1    2  501    0  0.28208358333E+02 -0.30622516730E+02  0.19899147695E+02  0.46145704997E+02  0.00000000000E+00 0. -1.
          1    1    1    2  502    0 -0.22559910061E+02  0.10857444128E+02 -0.93811714293E+02  0.97095166581E+02  0.00000000000E+00 0.  1.
         22    1    1    2    0    0 -0.37760479250E+02  0.47693946622E+02  0.25727148237E+02  0.66048864441E+02  0.00000000000E+00 0. -1.
         22    1    1    2    0    0  0.32112030978E+02 -0.27928874020E+02  0.10495763777E+03  0.11325771613E+03  0.00000000000E+00 0. -1.
</event>
<event>
 6    1  0.2809573E-005  0.7048083E+02  0.7818608E-02  0.1479396E+00
          2   -1    0    0  502    0  0.00000000000E+00  0.00000000000E+00  0.22703639764E+02  0.22703639764E+02  0.00000000000E+00 0.  1.
          1   -1    0    0  501    0 -0.00000000000E+00 -0.00000000000E+00 -0.16464944847E+04  0.16464944847E+04  0.00000000000E+00 0. -1.
          2    1    1    2  501    0 -0.51396874205E+01 -0.23583578590E+02 -0.91693971630E+02  0.94817646032E+02  0.00000000000E+00 0.  1.
          1    1    1    2  502    0  0.42170166531E+02  0.40328717372E+01 -0.13411026856E+04  0.13417715902E+04  0.00000000000E+00 0. -1.
         22    1    1    2    0    0 -0.47503246626E+02  0.22578298035E+02 -0.20681366627E+03  0.21339688503E+03  0.00000000000E+00 0. -1.
         22    1    1    2    0    0  0.10472767516E+02 -0.30275911822E+01  0.15819478515E+02  0.19212003235E+02  0.00000000000E+00 0.  1.
</event>
<event>
 6    1  0.2809573E-005  0.2049279E+03  0.7818608E-02  0.1218885E+00
          2   -1    0    0  502    0  0.00000000000E+00  0.00000000000E+00  0.29804235675E+03  0.29804235675E+03  0.00000000000E+00 0. -1.
          1   -1    0    0  501    0 -0.00000000000E+00 -0.00000000000E+00 -0.24308639178E+03  0.24308639178E+03  0.00000000000E+00 0. -1.
          2    1    1    2  501    0  0.29671781331E+02 -0.18367013180E+02 -0.90755960453E+01  0.36057290859E+02  0.00000000000E+00 0. -1.
          1    1    1    2  502    0 -0.14834954988E+03  0.10422129071E+03 -0.13708308058E+03  0.22729152507E+03  0.00000000000E+00 0. -1.
         22    1    1    2    0    0  0.14137889100E+03 -0.53293669322E+02  0.16925699031E+03  0.22688352690E+03  0.00000000000E+00 0. -1.
         22    1    1    2    0    0 -0.22701122451E+02 -0.32560608213E+02  0.31857651284E+02  0.50896405699E+02  0.00000000000E+00 0. -1.
</event>
<event>
 6    1  0.2809573E-005  0.1651624E+03  0.7818608E-02  0.1239921E+00
          2   -1    0    0  502    0  0.00000000000E+00  0.00000000000E+00  0.42162970064E+03  0.42162970064E+03  0.00000000000E+00 0.  1.
          1   -1    0    0  501    0 -0.00000000000E+00 -0.00000000000E+00 -0.25028113230E+03  0.25028113230E+03  0.00000000000E+00 0. -1.
          2    1    1    2  501    0  0.17752042472E+02 -0.89142745303E+02  0.13966250749E+03  0.16663487045E+03  0.00000000000E+00 0.  1.
          1    1    1    2  502    0 -0.57873460124E+02  0.13695806748E+03 -0.19008560629E+03  0.24132838075E+03  0.00000000000E+00 0. -1.
         22    1    1    2    0    0  0.48609937542E+02 -0.68028618708E+01  0.12669590125E+02  0.50692439983E+02  0.00000000000E+00 0. -1.
         22    1    1    2    0    0 -0.84885198896E+01 -0.41012460306E+02  0.20910207703E+03  0.21325514176E+03  0.00000000000E+00 0.  1.
</event>
<event>
 6    1  0.2809573E-005  0.1012797E+03  0.7818608E-02  0.1361846E+00
          2   -1    0    0  502    0  0.00000000000E+00  0.00000000000E+00  0.18267589758E+03  0.18267589758E+03  0.00000000000E+00 0. -1.
          1   -1    0    0  501    0 -0.00000000000E+00 -0.00000000000E+00 -0.37065831416E+03  0.37065831416E+03  0.00000000000E+00 0. -1.
          2    1    1    2  501    0 -0.81079283171E+02  0.24179673892E+02 -0.29861718005E+03  0.31037191724E+03  0.00000000000E+00 0. -1.
          1    1    1    2  502    0  0.79047063505E+02 -0.29713888693E+02  0.68118793596E+02  0.10849665189E+03  0.00000000000E+00 0. -1.
         22    1    1    2    0    0  0.10491018350E+02  0.19838061856E+02  0.85492175238E+02  0.88388473181E+02  0.00000000000E+00 0. -1.
         22    1    1    2    0    0 -0.84587986848E+01 -0.14303847054E+02 -0.42976205357E+02  0.46077169429E+02  0.00000000000E+00 0. -1.
</event>
<event>
 6    1  0.2809573E-005  0.1083466E+03  0.7818608E-02  0.1384268E+00
          2   -1    0    0  502    0  0.00000000000E+00  0.00000000000E+00  0.40763948315E+02  0.40763948315E+02  0.00000000000E+00 0. -1.
          1   -1    0    0  501    0 -0.00000000000E+00 -0.00000000000E+00 -0.32210182498E+03  0.32210182498E+03  0.00000000000E+00 0. -1.
          2    1    1    2  501    0  0.52029369507E+02  0.25991053319E+02 -0.11881590636E+03  0.13228684646E+03  0.00000000000E+00 0. -1.
          1    1    1    2  502    0 -0.37407857710E+02  0.66762250731E+01 -0.39683314780E+02  0.54942563388E+02  0.00000000000E+00 0. -1.
         22    1    1    2    0    0 -0.24786592983E+02 -0.40225705694E+02 -0.14367882469E+03  0.15124842893E+03  0.00000000000E+00 0. -1.
         22    1    1    2    0    0  0.10165081187E+02  0.75584273021E+01  0.20840169164E+02  0.24387934509E+02  0.00000000000E+00 0.  1.
</event>
<event>
 6    1  0.2809573E-005  0.1332032E+03  0.7818608E-02  0.1227085E+00
          2   -1    0    0  502    0  0.00000000000E+00  0.00000000000E+00  0.28401776877E+03  0.28401776877E+03  0.00000000000E+00 0. -1.
          1   -1    0    0  501    0 -0.00000000000E+00 -0.00000000000E+00 -0.16626097492E+03  0.16626097492E+03  0.00000000000E+00 0. -1.
          2    1    1    2  501    0 -0.17267191169E+01 -0.67826928065E+02 -0.75121640638E+02  0.10122615582E+03  0.00000000000E+00 0. -1.
          1    1    1    2  502    0  0.11290587998E+03  0.20795874461E+02  0.66316873099E+02  0.13258255460E+03  0.00000000000E+00 0. -1.
         22    1    1    2    0    0 -0.11743853763E+03  0.76682125864E+02  0.12186489683E+03  0.18580369110E+03  0.00000000000E+00 0. -1.
         22    1    1    2    0    0  0.62593767715E+01 -0.29651072259E+02  0.46966645596E+01  0.30666342163E+02  0.00000000000E+00 0.  1.
</event>
<event>
 6    1  0.2809573E-005  0.1446988E+03  0.7818608E-02  0.1303335E+00
          2   -1    0    0  502    0  0.00000000000E+00  0.00000000000E+00  0.25126278446E+03  0.25126278446E+03  0.00000000000E+00 0.  1.
          1   -1    0    0  501    0 -0.00000000000E+00 -0.00000000000E+00 -0.83280443688E+02  0.83280443688E+02  0.00000000000E+00 0.  1.
          2    1    1    2  501    0  0.16749174189E+02  0.46042057443E+02  0.14869917434E+02  0.51200784507E+02  0.00000000000E+00 0.  1.
          1    1    1    2  502    0 -0.31516153140E+02  0.40649821808E+02 -0.15201304230E+02  0.53635394769E+02  0.00000000000E+00 0.  1.
         22    1    1    2    0    0  0.34020409795E+02 -0.96181051332E+02  0.58062678590E+02  0.11738593426E+03  0.00000000000E+00 0.  1.
         22    1    1    2    0    0 -0.19253430844E+02  0.94891720811E+01  0.11025104898E+03  0.11232111461E+03  0.00000000000E+00 0.  1.
</event>
<event>
 6    1  0.2809573E-005  0.3254087E+03  0.7818608E-02  0.1141391E+00
          2   -1    0    0  502    0  0.00000000000E+00  0.00000000000E+00  0.63288048391E+03  0.63288048391E+03  0.00000000000E+00 0.  1.
          1   -1    0    0  501    0 -0.00000000000E+00 -0.00000000000E+00 -0.76257523251E+03  0.76257523251E+03  0.00000000000E+00 0. -1.
          2    1    1    2  501    0 -0.77100967383E+02  0.25052796334E+02 -0.28443309772E+02  0.85914048015E+02  0.00000000000E+00 0.  1.
          1    1    1    2  502    0 -0.60625580874E+01  0.20031529701E+02 -0.69535190198E+03  0.69566679120E+03  0.00000000000E+00 0. -1.
         22    1    1    2    0    0 -0.13031044968E+02 -0.56205564161E+02  0.21676923799E+03  0.22431624130E+03  0.00000000000E+00 0.  1.
         22    1    1    2    0    0  0.96194570439E+02  0.11121238126E+02  0.37733122516E+03  0.38955863590E+03  0.00000000000E+00 0.  1.
</event>
<event>
 6    1  0.2809573E-005  0.8997768E+02  0.7818608E-02  0.1312798E+00
          2   -1    0    0  502    0  0.00000000000E+00  0.00000000000E+00  0.61901528153E+03  0.61901528153E+03  0.00000000000E+00 0. -1.
          1   -1    0    0  501    0 -0.00000000000E+00 -0.00000000000E+00 -0.48156287841E+02  0.48156287841E+02  0.00000000000E+00 0. -1.
          2    1    1    2  501    0 -0.35589629800E+02 -0.30249948987E+02  0.56151881838E+02  0.73039133326E+02  0.00000000000E+00 0. -1.
          1    1    1    2  502    0  0.13016560832E+02  0.44275113768E+02 -0.15737420391E+02  0.48758414204E+02  0.00000000000E+00 0. -1.
         22    1    1    2    0    0  0.72291417692E+02 -0.83733037652E+01  0.37753927854E+03  0.38448936023E+03  0.00000000000E+00 0. -1.
         22    1    1    2    0    0 -0.49718348725E+02 -0.56518610162E+01  0.15290525370E+03  0.16088466161E+03  0.00000000000E+00 0. -1.
</event>
<event>
 6    1  0.2809573E-005  0.9955230E+02  0.7818608E-02  0.1350692E+00
          2   -1    0    0  502    0  0.00000000000E+00  0.00000000000E+00  0.44424841725E+02  0.44424841725E+02  0.00000000000E+00 0. -1.
          1   -1    0    0  501    0 -0.00000000000E+00 -0.00000000000E+00 -0.14944993895E+04  0.14944993895E+04  0.00000000000E+00 0.  1.
          2    1    1    2  501    0  0.65972874340E+01  0.24673777011E+02 -0.48290156816E+02  0.54628369176E+02  0.00000000000E+00 0. -1.
          1    1    1    2  502    0  0.32859376708E+02 -0.95344464858E+02 -0.13025367625E+04  0.13064349671E+04  0.00000000000E+00 0.  1.
         22    1    1    2    0    0 -0.13638200414E+02  0.58525786496E+02 -0.12546394876E+03  0.13911315766E+03  0.00000000000E+00 0. -1.
         22    1    1    2    0    0 -0.25818463728E+02  0.12144901351E+02  0.26216320273E+02  0.38747737311E+02  0.00000000000E+00 0. -1.
</event>
<event>
 6    1  0.2809573E-005  0.1180134E+03  0.7818608E-02  0.1324918E+00
          2   -1    0    0  502    0  0.00000000000E+00  0.00000000000E+00  0.33619599551E+02  0.33619599551E+02  0.00000000000E+00 0. -1.
          1   -1    0    0  501    0 -0.00000000000E+00 -0.00000000000E+00 -0.67093832305E+03  0.67093832305E+03  0.00000000000E+00 0. -1.
          2    1    1    2  501    0 -0.17082800236E+02 -0.89210949748E+02 -0.27117137687E+03  0.28597959936E+03  0.00000000000E+00 0. -1.
          1    1    1    2  502    0 -0.11493359989E+02  0.44473728485E+02 -0.20320216487E+03  0.20832937781E+03  0.00000000000E+00 0. -1.
         22    1    1    2    0    0 -0.13318619341E+00  0.26809665903E+02  0.13896347872E+02  0.30197423873E+02  0.00000000000E+00 0. -1.
         22    1    1    2    0    0  0.28709346419E+02  0.17927555361E+02 -0.17684152964E+03  0.18005152156E+03  0.00000000000E+00 0.  1.
</event>
<event>
 6    1  0.2809573E-005  0.1635375E+03  0.7818608E-02  0.1246535E+00
          2   -1    0    0  502    0  0.00000000000E+00  0.00000000000E+00  0.36533604934E+03  0.36533604934E+03  0.00000000000E+00 0. -1.
          1   -1    0    0  501    0 -0.00000000000E+00 -0.00000000000E+00 -0.19675041041E+03  0.19675041041E+03  0.00000000000E+00 0. -1.
          2    1    1    2  501    0 -0.10329644719E+03 -0.57144052314E+02 -0.93305578491E+02  0.15047102609E+03  0.00000000000E+00 0. -1.
          1    1    1    2  502    0  0.16743445343E+03  0.13481525059E+02  0.11191283309E+03  0.20184283471E+03  0.00000000000E+00 0. -1.
         22    1    1    2    0    0 -0.39576211847E+02  0.68703018994E+01 -0.11951844212E+02  0.41908521477E+02  0.00000000000E+00 0. -1.
         22    1    1    2    0    0 -0.24561794393E+02  0.36792225356E+02  0.16193022855E+03  0.16786407748E+03  0.00000000000E+00 0. -1.
</event>
<event>
 6    1  0.3078592E-005  0.9418079E+02  0.7818608E-02  0.1294180E+00
          2   -1    0    0  502    0  0.00000000000E+00  0.00000000000E+00  0.44688460177E+03  0.44688460177E+03  0.00000000000E+00 0. -1.
          1   -1    0    0  501    0 -0.00000000000E+00 -0.00000000000E+00 -0.71352024797E+03  0.71352024797E+03  0.00000000000E+00 0. -1.
          2    1    1    2  501    0 -0.91257542321E+01  0.70188968255E+02 -0.24379193315E+02  0.74860642007E+02  0.00000000000E+00 0. -1.
          1    1    1    2  502    0  0.27594353279E+02  0.20480577720E+01 -0.65035821418E+03  0.65094657970E+03  0.00000000000E+00 0. -1.
         22    1    1    2    0    0 -0.20579401368E+01  0.19036316466E+02  0.34503733433E+01  0.19455629992E+02  0.00000000000E+00 0.  1.
         22    1    1    2    0    0 -0.16410658910E+02 -0.91273342493E+02  0.40465138794E+03  0.41514199804E+03  0.00000000000E+00 0. -1.
</event>
<event>
 6    1  0.2809573E-005  0.6056496E+02  0.7818608E-02  0.1396816E+00
          2   -1    0    0  502    0  0.00000000000E+00  0.00000000000E+00  0.82570168441E+02  0.82570168441E+02  0.00000000000E+00 0. -1.
          1   -1    0    0  501    0 -0.00000000000E+00 -0.00000000000E+00 -0.17774314322E+03  0.17774314322E+03  0.00000000000E+00 0. -1.
          2    1    1    2  501    0 -0.17682119376E+02 -0.23510584692E+02  0.18328372689E+02  0.34660268084E+02  0.00000000000E+00 0. -1.
          1    1    1    2  502    0  0.16532883420E+02 -0.18297173718E+02 -0.82967219876E+02  0.86554505222E+02  0.00000000000E+00 0. -1.
         22    1    1    2    0    0 -0.16481193552E+02 -0.23895358748E+02  0.34430387828E+02  0.45034092825E+02  0.00000000000E+00 0. -1.
         22    1    1    2    0    0  0.17630429509E+02  0.65703117158E+02 -0.64964515420E+02  0.94064445530E+02  0.00000000000E+00 0. -1.
</event>
<event>
 6    1  0.2809573E-005  0.9370275E+02  0.7818608E-02  0.1425114E+00
          2   -1    0    0  502    0  0.00000000000E+00  0.00000000000E+00  0.67209554040E+02  0.67209554040E+02  0.00000000000E+00 0.  1.
          1   -1    0    0  501    0 -0.00000000000E+00 -0.00000000000E+00 -0.44892983234E+03  0.44892983234E+03  0.00000000000E+00 0.  1.
          2    1    1    2  501    0 -0.47889789310E+02 -0.16267034111E+01 -0.67885602415E+02  0.83093520201E+02  0.00000000000E+00 0.  1.
          1    1    1    2  502    0  0.19837150642E+02  0.24426329865E+02 -0.29946490178E+03  0.30111357580E+03  0.00000000000E+00 0.  1.
         22    1    1    2    0    0  0.38284711444E+02 -0.21622767017E+02 -0.65988914506E+02  0.79295649449E+02  0.00000000000E+00 0. -1.
         22    1    1    2    0    0 -0.10232072776E+02 -0.11768594368E+01  0.51619140405E+02  0.52636640922E+02  0.00000000000E+00 0.  1.
</event>
<event>
 6    1  0.3852318E-005  0.5783949E+02  0.7818608E-02  0.1458724E+00
          2   -1    0    0  502    0  0.00000000000E+00  0.00000000000E+00  0.15113078776E+03  0.15113078776E+03  0.00000000000E+00 0.  1.
          1   -1    0    0  501    0 -0.00000000000E+00 -0.00000000000E+00 -0.23127674744E+04  0.23127674744E+04  0.00000000000E+00 0.  1.
          2    1    1    2  501    0  0.50764538085E+02 -0.16448155007E+01 -0.87139188099E+02  0.10086120090E+03  0.00000000000E+00 0.  1.
          1    1    1    2  502    0 -0.51871830164E+02  0.90834332110E+01 -0.21909224680E+04  0.21915552597E+04  0.00000000000E+00 0.  1.
         22    1    1    2    0    0 -0.21249057676E+02 -0.15892538394E+02  0.13724344875E+03  0.13978504731E+03  0.00000000000E+00 0.  1.
         22    1    1    2    0    0  0.22356349754E+02  0.84539206840E+01 -0.20818479266E+02  0.31696754222E+02  0.00000000000E+00 0.  1.
</event>
<event>
 6    1  0.2809573E-005  0.8311195E+02  0.7818608E-02  0.1338173E+00
          2   -1    0    0  502    0  0.00000000000E+00  0.00000000000E+00  0.72137947768E+02  0.72137947768E+02  0.00000000000E+00 0.  1.
          1   -1    0    0  501    0 -0.00000000000E+00 -0.00000000000E+00 -0.30804237875E+03  0.30804237875E+03  0.00000000000E+00 0.  1.
          2    1    1    2  501    0  0.34463665950E+02 -0.37584641754E+02 -0.13767252738E+03  0.14681305923E+03  0.00000000000E+00 0.  1.
          1    1    1    2  502    0 -0.48914378675E+02  0.67965309573E+02 -0.48286455651E+02  0.96661686028E+02  0.00000000000E+00 0.  1.
         22    1    1    2    0    0 -0.85383307363E+01  0.25928941707E+02 -0.67988392609E+02  0.73264142930E+02  0.00000000000E+00 0.  1.
         22    1    1    2    0    0  0.22989043461E+02 -0.56309609526E+02  0.18042944662E+02  0.63441438321E+02  0.00000000000E+00 0.  1.
</event>
<event>
 6    1  0.2809573E-005  0.1583648E+03  0.7818608E-02  0.1190983E+00
          2   -1    0    0  502    0  0.00000000000E+00  0.00000000000E+00  0.28253428048E+03  0.28253428048E+03  0.00000000000E+00 0. -1.
          1   -1    0    0  501    0 -0.00000000000E+00 -0.00000000000E+00 -0.31513174948E+03  0.31513174948E+03  0.00000000000E+00 0.  1.
          2    1    1    2  501    0 -0.77127467045E+02 -0.10385417319E+03  0.85757848668E+02  0.15520548982E+03  0.00000000000E+00 0. -1.
          1    1    1    2  502    0  0.65628363785E+01 -0.21064970341E+02 -0.22436874884E+03  0.22545096862E+03  0.00000000000E+00 0.  1.
         22    1    1    2    0    0 -0.17441791931E+02 -0.14277660539E+02  0.24378937040E+02  0.33202413578E+02  0.00000000000E+00 0.  1.
         22    1    1    2    0    0  0.88006422597E+02  0.13919680407E+03  0.81634494125E+02  0.18380715795E+03  0.00000000000E+00 0. -1.
</event>
<event>
 6    1  0.2809573E-005  0.5949477E+03  0.7818608E-02  0.1100990E+00
          2   -1    0    0  502    0  0.00000000000E+00  0.00000000000E+00  0.29928042446E+03  0.29928042446E+03  0.00000000000E+00 0. -1.
          1   -1    0    0  501    0 -0.00000000000E+00 -0.00000000000E+00 -0.75300147991E+03  0.75300147991E+03  0.00000000000E+00 0. -1.
          2    1    1    2  501    0  0.23719023928E+02 -0.12532391390E+02 -0.36262960338E+03  0.36362051946E+03  0.00000000000E+00 0. -1.
          1    1    1    2  502    0  0.14067088178E+03  0.37847999183E+02 -0.33674100363E+03  0.36689953876E+03  0.00000000000E+00 0. -1.
         22    1    1    2    0    0  0.13313122126E+02 -0.21661999185E+02  0.57834563769E+02  0.63176880232E+02  0.00000000000E+00 0.  1.
         22    1    1    2    0    0 -0.17770302783E+03 -0.36536086070E+01  0.18781498779E+03  0.25858496591E+03  0.00000000000E+00 0. -1.
</event>
<event>
 6    1  0.2809573E-005  0.1356889E+03  0.7818608E-02  0.1221128E+00
          2   -1    0    0  502    0  0.00000000000E+00  0.00000000000E+00  0.13752105597E+03  0.13752105597E+03  0.00000000000E+00 0.  1.
          1   -1    0    0  501    0 -0.00000000000E+00 -0.00000000000E+00 -0.18562135968E+04  0.18562135968E+04  0.00000000000E+00 0. -1.
          2    1    1    2  501    0  0.73491621193E+02  0.76114080635E+02  0.56869077377E+02  0.12011853986E+03  0.00000000000E+00 0.  1.
          1    1    1    2  502    0 -0.52668662770E+02  0.32565453110E+02 -0.16825474507E+04  0.16836865565E+04  0.00000000000E+00 0. -1.
         22    1    1    2    0    0 -0.48152494618E+02 -0.12135770258E+03 -0.92120859000E+02  0.15978925926E+03  0.00000000000E+00 0.  1.
         22    1    1    2    0    0  0.27329536195E+02  0.12678168834E+02 -0.89330856925E+00  0.30140297175E+02  0.00000000000E+00 0.  1.
</event>
<event>
 6    1  0.2809573E-005  0.1876593E+03  0.7818608E-02  0.1195165E+00
          2   -1    0    0  502    0  0.00000000000E+00  0.00000000000E+00  0.71078341809E+02  0.71078341809E+02  0.00000000000E+00 0.  1.
          1   -1    0    0  501    0 -0.00000000000E+00 -0.00000000000E+00 -0.77191540779E+03  0.77191540779E+03  0.00000000000E+00 0.  1.
          2    1    1    2  501    0 -0.80411466114E+02  0.63446383137E+01 -0.90798673966E+02  0.12145228492E+03  0.00000000000E+00 0.  1.
          1    1    1    2  502    0  0.19121678818E+03  0.53118091065E+02 -0.25444846690E+03  0.32269089542E+03  0.00000000000E+00 0.  1.
         22    1    1    2    0    0 -0.85822346910E+02  0.22831529086E+02 -0.23079152070E+03  0.24728825280E+03  0.00000000000E+00 0.  1.
         22    1    1    2    0    0 -0.24982975157E+02 -0.82294258464E+02 -0.12479840442E+03  0.15156231646E+03  0.00000000000E+00 0.  1.
</event>
<event>
 6    1  0.2809573E-005  0.1972758E+03  0.7818608E-02  0.1231692E+00
          2   -1    0    0  502    0  0.00000000000E+00  0.00000000000E+00  0.34415168137E+03  0.34415168137E+03  0.00000000000E+00 0.  1.
          1   -1    0    0  501    0 -0.00000000000E+00 -0.00000000000E+00 -0.84122015691E+02  0.84122015691E+02  0.00000000000E+00 0.  1.
          2    1    1    2  501    0  0.11934161188E+02  0.58852727502E+02  0.97429819187E+01  0.60835790735E+02  0.00000000000E+00 0.  1.
          1    1    1    2  502    0  0.88238099934E+02 -0.56336031179E+01  0.42354866230E+02  0.98038943576E+02  0.00000000000E+00 0.  1.
         22    1    1    2    0    0 -0.65085407733E+01  0.33455655444E+02  0.87608760236E+02  0.94004983136E+02  0.00000000000E+00 0.  1.
         22    1    1    2    0    0 -0.93663720349E+02 -0.86674779828E+02  0.12032305729E+03  0.17539397961E+03  0.00000000000E+00 0.  1.
</event>
<event>
 6    1  0.2809573E-005  0.1673920E+03  0.7818608E-02  0.1231938E+00
          2   -1    0    0  502    0  0.00000000000E+00  0.00000000000E+00  0.39967316520E+03  0.39967316520E+03  0.00000000000E+00 0.  1.
          1   -1    0    0  501    0 -0.00000000000E+00 -0.00000000000E+00 -0.25734036360E+03  0.25734036360E+03  0.00000000000E+00 0.  1.
          2    1    1    2  501    0 -0.83948577918E+01 -0.46810857585E+02  0.62860549546E+01  0.47971288413E+02  0.00000000000E+00 0.  1.
          1    1    1    2  502    0 -0.24078169789E+02  0.21394706903E+02 -0.22437094869E+03  0.22667115908E+03  0.00000000000E+00 0.  1.
         22    1    1    2    0    0 -0.25902444356E+02  0.48918226569E+02  0.24223275052E+03  0.24847662856E+03  0.00000000000E+00 0.  1.
         22    1    1    2    0    0  0.58375471937E+02 -0.23502075888E+02  0.11818494481E+03  0.13389445274E+03  0.00000000000E+00 0.  1.
</event>
<event>
 6    1  0.2809573E-005  0.2953116E+03  0.7818608E-02  0.1154989E+00
          2   -1    0    0  502    0  0.00000000000E+00  0.00000000000E+00  0.24609832556E+03  0.24609832556E+03  0.00000000000E+00 0.  1.
          1   -1    0    0  501    0 -0.00000000000E+00 -0.00000000000E+00 -0.90834314751E+03  0.90834314751E+03  0.00000000000E+00 0. -1.
          2    1    1    2  501    0 -0.61268492346E+02  0.14072049705E+02  0.47868260020E+01  0.63045732928E+02  0.00000000000E+00 0.  1.
          1    1    1    2  502    0  0.24556468925E+03  0.14260585458E+03 -0.75339412572E+03  0.80513424659E+03  0.00000000000E+00 0. -1.
         22    1    1    2    0    0 -0.18805273299E+03 -0.10191864002E+03  0.88142595831E+02  0.23134467093E+03  0.00000000000E+00 0.  1.
         22    1    1    2    0    0  0.37565360784E+01 -0.54759264265E+02 -0.17801180624E+01  0.54916822618E+02  0.00000000000E+00 0.  1.
</event>
<event>
 6    1  0.2809573E-005  0.2056213E+03  0.7818608E-02  0.1185849E+00
          2   -1    0    0  502    0  0.00000000000E+00  0.00000000000E+00  0.13165279973E+04  0.13165279973E+04  0.00000000000E+00 0.  1.
          1   -1    0    0  501    0 -0.00000000000E+00 -0.00000000000E+00 -0.25840339369E+03  0.25840339369E+03  0.00000000000E+00 0.  1.
          2    1    1    2  501    0 -0.40518301231E+02 -0.86654079842E+02  0.54075985246E+03  0.54915560666E+03  0.00000000000E+00 0.  1.
          1    1    1    2  502    0 -0.48971393465E+02 -0.25702304083E+02 -0.23908786831E+03  0.24540133371E+03  0.00000000000E+00 0.  1.
         22    1    1    2    0    0  0.10297359354E+03  0.29485164449E+02  0.39148337402E+03  0.40587210796E+03  0.00000000000E+00 0.  1.
         22    1    1    2    0    0 -0.13483898846E+02  0.82871219476E+02  0.36496924546E+03  0.37450234269E+03  0.00000000000E+00 0.  1.
</event>
<event>
 6    1  0.2809573E-005  0.2298558E+03  0.7818608E-02  0.1221260E+00
          2   -1    0    0  502    0  0.00000000000E+00  0.00000000000E+00  0.68018878355E+02  0.68018878355E+02  0.00000000000E+00 0. -1.
          1   -1    0    0  501    0 -0.00000000000E+00 -0.00000000000E+00 -0.11052874368E+04  0.11052874368E+04  0.00000000000E+00 0. -1.
          2    1    1    2  501    0  0.80273697977E+02  0.35952512480E+02 -0.20144910104E+03  0.21981398966E+03  0.00000000000E+00 0. -1.
          1    1    1    2  502    0 -0.11913868302E+02  0.74041097979E+02 -0.74797577646E+03  0.75172587199E+03  0.00000000000E+00 0. -1.
         22    1    1    2    0    0 -0.44773994117E+02 -0.12263566028E+03 -0.10704683283E+03  0.16882902636E+03  0.00000000000E+00 0. -1.
         22    1    1    2    0    0 -0.23585835559E+02  0.12642049821E+02  0.19203151906E+02  0.32937427128E+02  0.00000000000E+00 0. -1.
</event>
<event>
 6    1  0.2809573E-005  0.9711901E+02  0.7818608E-02  0.1296361E+00
          2   -1    0    0  502    0  0.00000000000E+00  0.00000000000E+00  0.28867593423E+03  0.28867593423E+03  0.00000000000E+00 0.  1.
          1   -1    0    0  501    0 -0.00000000000E+00 -0.00000000000E+00 -0.54554227031E+03  0.54554227031E+03  0.00000000000E+00 0.  1.
          2    1    1    2  501    0 -0.40828860135E+02 -0.54389875382E+02  0.10290974171E+03  0.12335181110E+03  0.00000000000E+00 0.  1.
          1    1    1    2  502    0 -0.12407582366E+02  0.36161226523E+02 -0.50910695237E+03  0.51054037192E+03  0.00000000000E+00 0.  1.
         22    1    1    2    0    0  0.73280881354E+02  0.23355963085E+02  0.35642141372E+02  0.84769987762E+02  0.00000000000E+00 0.  1.
         22    1    1    2    0    0 -0.20044438853E+02 -0.51273142269E+01  0.11368873321E+03  0.11555603376E+03  0.00000000000E+00 0.  1.
</event>
<event>
 6    1  0.2809573E-005  0.1035992E+03  0.7818608E-02  0.1370097E+00
          2   -1    0    0  502    0  0.00000000000E+00  0.00000000000E+00  0.22147467361E+02  0.22147467361E+02  0.00000000000E+00 0. -1.
          1   -1    0    0  501    0 -0.00000000000E+00 -0.00000000000E+00 -0.76355179826E+03  0.76355179826E+03  0.00000000000E+00 0. -1.
          2    1    1    2  501    0 -0.24015765988E+02 -0.25511308585E+02 -0.52386538499E+02  0.63023275840E+02  0.00000000000E+00 0. -1.
          1    1    1    2  502    0 -0.19085149684E+02  0.19250093615E+02 -0.43865648226E+03  0.43949325191E+03  0.00000000000E+00 0. -1.
         22    1    1    2    0    0  0.58218162207E+02  0.16530249385E+02 -0.25677820923E+03  0.26381366964E+03  0.00000000000E+00 0. -1.
         22    1    1    2    0    0 -0.15117246535E+02 -0.10269034415E+02  0.64168990814E+01  0.19369068239E+02  0.00000000000E+00 0. -1.
</event>
<event>
 6    1  0.2809573E-005  0.1119181E+03  0.7818608E-02  0.1271281E+00
          2   -1    0    0  502    0  0.00000000000E+00  0.00000000000E+00  0.16689083976E+03  0.16689083976E+03  0.00000000000E+00 0.  1.
          1   -1    0    0  501    0 -0.00000000000E+00 -0.00000000000E+00 -0.31727607918E+03  0.31727607918E+03  0.00000000000E+00 0. -1.
          2    1    1    2  501    0 -0.19644032274E+02  0.44326399096E+01 -0.62021447719E+01  0.21071376327E+02  0.00000000000E+00 0.  1.
          1    1    1    2  502    0  0.94085909132E+02  0.54505802384E+02 -0.25054741386E+03  0.27312460048E+03  0.00000000000E+00 0. -1.
         22    1    1    2    0    0 -0.66623553121E+02  0.25483783923E+02  0.60756655882E+02  0.93698945071E+02  0.00000000000E+00 0.  1.
         22    1    1    2    0    0 -0.78183237377E+01 -0.84422226217E+02  0.45607663333E+02  0.96271997072E+02  0.00000000000E+00 0.  1.
</event>
<event>
 6    1  0.2809573E-005  0.7096487E+02  0.7818608E-02  0.1373477E+00
          2   -1    0    0  502    0  0.00000000000E+00  0.00000000000E+00  0.18387592983E+03  0.18387592983E+03  0.00000000000E+00 0. -1.
          1   -1    0    0  501    0 -0.00000000000E+00 -0.00000000000E+00 -0.15062016177E+03  0.15062016177E+03  0.00000000000E+00 0. -1.
          2    1    1    2  501    0  0.71524829891E+01 -0.30253367561E+02 -0.85011741824E+02  0.90517514933E+02  0.00000000000E+00 0. -1.
          1    1    1    2  502    0 -0.25670416990E+01  0.76781131966E+02  0.13946769669E+02  0.78079730489E+02  0.00000000000E+00 0. -1.
         22    1    1    2    0    0 -0.27285994374E+02  0.22182925674E+01 -0.17669448086E+02  0.32583058582E+02  0.00000000000E+00 0. -1.
         22    1    1    2    0    0  0.22700553084E+02 -0.48746056972E+02  0.12199018830E+03  0.13331578759E+03  0.00000000000E+00 0. -1.
</event>
<event>
 6    1  0.2809573E-005  0.8434539E+02  0.7818608E-02  0.1343192E+00
          2   -1    0    0  502    0  0.00000000000E+00  0.00000000000E+00  0.33596541030E+02  0.33596541030E+02  0.00000000000E+00 0.  1.
          1   -1    0    0  501    0 -0.00000000000E+00 -0.00000000000E+00 -0.97736206978E+03  0.97736206978E+03  0.00000000000E+00 0.  1.
          2    1    1    2  501    0  0.11074776626E+02  0.33719704994E+02 -0.17625869680E+03  0.17979654441E+03  0.00000000000E+00 0.  1.
          1    1    1    2  502    0 -0.11549462553E+02 -0.31169836363E+02 -0.68032003601E+03  0.68113163205E+03  0.00000000000E+00 0.  1.
         22    1    1    2    0    0  0.51229234883E+02  0.71645857703E+01 -0.83498597526E+02  0.98223121436E+02  0.00000000000E+00 0.  1.
         22    1    1    2    0    0 -0.50754548956E+02 -0.97144544015E+01 -0.36881984115E+01  0.51807312916E+02  0.00000000000E+00 0.  1.
</event>
<event>
 6    1  0.2809573E-005  0.1058764E+03  0.7818608E-02  0.1298075E+00
          2   -1    0    0  502    0  0.00000000000E+00  0.00000000000E+00  0.46916130620E+03  0.46916130620E+03  0.00000000000E+00 0. -1.
          1   -1    0    0  501    0 -0.00000000000E+00 -0.00000000000E+00 -0.94305988335E+02  0.94305988335E+02  0.00000000000E+00 0. -1.
          2    1    1    2  501    0  0.16249792316E+02  0.40065982240E+02 -0.48205759515E+01  0.43503754271E+02  0.00000000000E+00 0. -1.
          1    1    1    2  502    0 -0.10156013233E+03 -0.65015326542E+02  0.12844740961E+02  0.12127011394E+03  0.00000000000E+00 0. -1.
         22    1    1    2    0    0  0.38261389804E+02 -0.12870785030E+02  0.17183744390E+02  0.43873364679E+02  0.00000000000E+00 0. -1.
         22    1    1    2    0    0  0.47048950212E+02  0.37820129332E+02  0.34964740846E+03  0.35482006164E+03  0.00000000000E+00 0. -1.
</event>
<event>
 6    1  0.2809574E-005  0.1221152E+03  0.7818608E-02  0.1315597E+00
          2   -1    0    0  502    0  0.00000000000E+00  0.00000000000E+00  0.80811045328E+02  0.80811045328E+02  0.00000000000E+00 0. -1.
          1   -1    0    0  501    0 -0.00000000000E+00 -0.00000000000E+00 -0.14398516412E+04  0.14398516412E+04  0.00000000000E+00 0. -1.
          2    1    1    2  501    0 -0.51174168851E+02  0.55680552657E+02 -0.84305967269E+03  0.84644475969E+03  0.00000000000E+00 0. -1.
          1    1    1    2  502    0  0.48648276869E+02 -0.10041675789E+03 -0.52562211095E+03  0.53733488964E+03  0.00000000000E+00 0. -1.
         22    1    1    2    0    0 -0.95161597781E+01  0.26950660639E+02  0.68502170267E+02  0.74225620490E+02  0.00000000000E+00 0. -1.
         22    1    1    2    0    0  0.12042051759E+02  0.17785544590E+02 -0.58860982541E+02  0.62657416741E+02  0.00000000000E+00 0. -1.
</event>
<event>
 6    1  0.2809573E-005  0.5500957E+03  0.7818608E-02  0.1129395E+00
          2   -1    0    0  502    0  0.00000000000E+00  0.00000000000E+00  0.94271299475E+03  0.94271299475E+03  0.00000000000E+00 0. -1.
          1   -1    0    0  501    0 -0.00000000000E+00 -0.00000000000E+00 -0.32894319122E+03  0.32894319122E+03  0.00000000000E+00 0. -1.
          2    1    1    2  501    0  0.20951505731E+03  0.35058309870E+03  0.20782430492E+03  0.45825321609E+03  0.00000000000E+00 0. -1.
          1    1    1    2  502    0 -0.28479252652E+03 -0.42041740059E+03  0.40839844249E+03  0.65164933953E+03  0.00000000000E+00 0. -1.
         22    1    1    2    0    0 -0.62186004366E+01  0.14423849290E+02  0.48380532034E+02  0.50866435885E+02  0.00000000000E+00 0. -1.
         22    1    1    2    0    0  0.81496069645E+02  0.55410452597E+02 -0.50833475905E+02  0.11088719447E+03  0.00000000000E+00 0.  1.
</event>
<event>
 6    1  0.2809573E-005  0.7632255E+02  0.7818608E-02  0.1340685E+00
          2   -1    0    0  502    0  0.00000000000E+00  0.00000000000E+00  0.16498681086E+03  0.16498681086E+03  0.00000000000E+00 0. -1.
          1   -1    0    0  501    0 -0.00000000000E+00 -0.00000000000E+00 -0.20023930908E+03  0.20023930908E+03  0.00000000000E+00 0. -1.
          2    1    1    2  501    0  0.34059779356E+02  0.25128683864E+02 -0.35381120161E+02  0.55166502394E+02  0.00000000000E+00 0. -1.
          1    1    1    2  502    0 -0.33778721874E+02  0.42143916598E+02 -0.11481943701E+03  0.12688819832E+03  0.00000000000E+00 0. -1.
         22    1    1    2    0    0  0.80385051469E+01  0.12628235576E+02 -0.20685059341E+02  0.25533538311E+02  0.00000000000E+00 0.  1.
         22    1    1    2    0    0 -0.83195626291E+01 -0.79900836037E+02  0.13563311829E+03  0.15763788092E+03  0.00000000000E+00 0. -1.
</event>
<event>
 6    1  0.2809573E-005  0.2374741E+03  0.7818608E-02  0.1238288E+00
          2   -1    0    0  502    0  0.00000000000E+00  0.00000000000E+00  0.52947828820E+03  0.52947828820E+03  0.00000000000E+00 0. -1.
          1   -1    0    0  501    0 -0.00000000000E+00 -0.00000000000E+00 -0.53765197274E+03  0.53765197274E+03  0.00000000000E+00 0.  1.
          2    1    1    2  501    0  0.14213606084E+02  0.62134272729E+02  0.29118689444E+02  0.70075620014E+02  0.00000000000E+00 0. -1.
          1    1    1    2  502    0 -0.19285571358E+01 -0.18501300498E+03 -0.48335152029E+03  0.51755407786E+03  0.00000000000E+00 0.  1.
         22    1    1    2    0    0 -0.62183312586E+01  0.13883462945E+03  0.43993690044E+03  0.46136557993E+03  0.00000000000E+00 0. -1.
         22    1    1    2    0    0 -0.60667176894E+01 -0.15955897200E+02  0.61222458613E+01  0.18134983137E+02  0.00000000000E+00 0. -1.
</event>
<event>
 6    1  0.2809573E-005  0.2136298E+03  0.7818608E-02  0.1257343E+00
          2   -1    0    0  502    0  0.00000000000E+00  0.00000000000E+00  0.84936562749E+02  0.84936562749E+02  0.00000000000E+00 0. -1.
          1   -1    0    0  501    0 -0.00000000000E+00 -0.00000000000E+00 -0.30989164762E+03  0.30989164762E+03  0.00000000000E+00 0. -1.
          2    1    1    2  501    0 -0.54877614744E+02 -0.98099164643E+02 -0.10416148155E+03  0.15324690190E+03  0.00000000000E+00 0. -1.
          1    1    1    2  502    0  0.32932557426E+02 -0.15082242986E+02 -0.33946837743E+02  0.49642876476E+02  0.00000000000E+00 0. -1.
         22    1    1    2    0    0 -0.85411704186E+00  0.15979286077E+02  0.32566933255E+02  0.36285978574E+02  0.00000000000E+00 0. -1.
         22    1    1    2    0    0  0.22799174359E+02  0.97202121552E+02 -0.11941369883E+03  0.15565245342E+03  0.00000000000E+00 0. -1.
</event>
<event>
 6    1  0.2809573E-005  0.1307126E+03  0.7818608E-02  0.1256935E+00
          2   -1    0    0  502    0  0.00000000000E+00  0.00000000000E+00  0.48075157277E+03  0.48075157277E+03  0.00000000000E+00 0. -1.
          1   -1    0    0  501    0 -0.00000000000E+00 -0.00000000000E+00 -0.86084635081E+03  0.86084635081E+03  0.00000000000E+00 0. -1.
          2    1    1    2  501    0 -0.40078975580E+02 -0.12391623620E+03  0.14738684401E+03  0.19668360294E+03  0.00000000000E+00 0. -1.
          1    1    1    2  502    0  0.31562282255E+02  0.10778446343E+03 -0.81972968924E+03  0.82738771543E+03  0.00000000000E+00 0. -1.
         22    1    1    2    0    0 -0.89415625336E+01 -0.52091629697E+02  0.14425955718E+03  0.15363693977E+03  0.00000000000E+00 0. -1.
         22    1    1    2    0    0  0.17458255858E+02  0.68223402467E+02  0.14798851001E+03  0.16388966544E+03  0.00000000000E+00 0. -1.
</event>
<event>
 6    1  0.2809573E-005  0.3149835E+03  0.7818608E-02  0.1199364E+00
          2   -1    0    0  502    0  0.00000000000E+00  0.00000000000E+00  0.19147924099E+03  0.19147924099E+03  0.00000000000E+00 0. -1.
          1   -1    0    0  501    0 -0.00000000000E+00 -0.00000000000E+00 -0.80271245544E+03  0.80271245544E+03  0.00000000000E+00 0. -1.
          2    1    1    2  501    0 -0.91940365189E+02 -0.38569378121E+02 -0.12690766828E+03  0.16138830177E+03  0.00000000000E+00 0. -1.
          1    1    1    2  502    0 -0.27986423362E+02  0.10343360402E+03 -0.60208899472E+03  0.61154959562E+03  0.00000000000E+00 0. -1.
         22    1    1    2    0    0  0.13098996064E+03 -0.77232958600E+02  0.63991452584E+02  0.16497940988E+03  0.00000000000E+00 0. -1.
         22    1    1    2    0    0 -0.11063172086E+02  0.12368732697E+02  0.53771995972E+02  0.56274389165E+02  0.00000000000E+00 0. -1.
</event>
<event>
 6    1  0.2809573E-005  0.1125342E+03  0.7818608E-02  0.1288317E+00
          2   -1    0    0  502    0  0.00000000000E+00  0.00000000000E+00  0.19468026535E+03  0.19468026535E+03  0.00000000000E+00 0. -1.
          1   -1    0    0  501    0 -0.00000000000E+00 -0.00000000000E+00 -0.21734732449E+03  0.21734732449E+03  0.00000000000E+00 0. -1.
          2    1    1    2  501    0  0.29409797900E+02  0.18613399400E+02 -0.40716439705E+01  0.35042447608E+02  0.00000000000E+00 0. -1.
          1    1    1    2  502    0  0.30914703850E+02 -0.53062539404E+01 -0.17012211851E+03  0.17298962527E+03  0.00000000000E+00 0. -1.
         22    1    1    2    0    0 -0.59627942223E+02 -0.39554937764E+02  0.26599561702E+02  0.76338858244E+02  0.00000000000E+00 0. -1.
         22    1    1    2    0    0 -0.69655952722E+00  0.26247792305E+02  0.12492714164E+03  0.12765665872E+03  0.00000000000E+00 0. -1.
</event>
<event>
 6    1  0.2809573E-005  0.7812000E+02  0.7818608E-02  0.1348388E+00
          2   -1    0    0  502    0  0.00000000000E+00  0.00000000000E+00  0.75878269030E+02  0.75878269030E+02  0.00000000000E+00 0.  1.
          1   -1    0    0  501    0 -0.00000000000E+00 -0.00000000000E+00 -0.29886735893E+03  0.29886735893E+03  0.00000000000E+00 0.  1.
          2    1    1    2  501    0 -0.30401445342E+02  0.32530741288E+02 -0.78527903982E+02  0.90272524676E+02  0.00000000000E+00 0.  1.
          1    1    1    2  502    0  0.61449960663E+02 -0.18216219969E+02 -0.13902205164E+03  0.15308513703E+03  0.00000000000E+00 0.  1.
         22    1    1    2    0    0 -0.48940515260E+02 -0.43087438743E+02  0.38637925114E+02  0.75793077972E+02  0.00000000000E+00 0.  1.
         22    1    1    2    0    0  0.17891999939E+02  0.28772917424E+02 -0.44077059384E+02  0.55594888280E+02  0.00000000000E+00 0.  1.
</event>
<event>
 6    1  0.2809573E-005  0.1814842E+03  0.7818608E-02  0.1215714E+00
          2   -1    0    0  502    0  0.00000000000E+00  0.00000000000E+00  0.45445597771E+03  0.45445597771E+03  0.00000000000E+00 0.  1.
          1   -1    0    0  501    0 -0.00000000000E+00 -0.00000000000E+00 -0.32645333084E+03  0.32645333084E+03  0.00000000000E+00 0.  1.
          2    1    1    2  501    0  0.18741404425E+02 -0.84288674122E+02  0.16514118557E+02  0.87912097784E+02  0.00000000000E+00 0.  1.
          1    1    1    2  502    0 -0.23659016190E+02  0.96618774116E+02 -0.27191393752E+03  0.28953777988E+03  0.00000000000E+00 0.  1.
         22    1    1    2    0    0 -0.52375646360E+02 -0.31464329827E+02  0.24398356241E+03  0.25151777493E+03  0.00000000000E+00 0.  1.
         22    1    1    2    0    0  0.57293258126E+02  0.19134229834E+02  0.13941890343E+03  0.15194165595E+03  0.00000000000E+00 0.  1.
</event>
<event>
 6    1  0.2809573E-005  0.1019166E+03  0.7818608E-02  0.1278587E+00
          2   -1    0    0  502    0  0.00000000000E+00  0.00000000000E+00  0.17474715620E+03  0.17474715620E+03  0.00000000000E+00 0.  1.
          1   -1    0    0  501    0 -0.00000000000E+00 -0.00000000000E+00 -0.67461654550E+03  0.67461654550E+03  0.00000000000E+00 0.  1.
          2    1    1    2  501    0 -0.64702743395E+02 -0.73403840484E+02 -0.16616344649E+03  0.19283376195E+03  0.00000000000E+00 0.  1.
          1    1    1    2  502    0  0.17775392501E+01  0.25079949753E+02 -0.46231049947E+03  0.46299369483E+03  0.00000000000E+00 0.  1.
         22    1    1    2    0    0 -0.86464362582E+01 -0.16128071437E+02 -0.12881557581E+02  0.22378786249E+02  0.00000000000E+00 0. -1.
         22    1    1    2    0    0  0.71571640403E+02  0.64451962169E+02  0.14148611424E+03  0.17115745868E+03  0.00000000000E+00 0.  1.
</event>
<event>
 6    1  0.2809573E-005  0.1140510E+03  0.7818608E-02  0.1295318E+00
          2   -1    0    0  502    0  0.00000000000E+00  0.00000000000E+00  0.23059705731E+03  0.23059705731E+03  0.00000000000E+00 0. -1.
          1   -1    0    0  501    0 -0.00000000000E+00 -0.00000000000E+00 -0.33905441470E+03  0.33905441470E+03  0.00000000000E+00 0. -1.
          2    1    1    2  501    0 -0.11153251318E+02 -0.35632359663E+02 -0.86732203745E+01  0.38331251242E+02  0.00000000000E+00 0. -1.
          1    1    1    2  502    0  0.21921301339E+02  0.12002595778E+03 -0.27352423742E+03  0.29950339305E+03  0.00000000000E+00 0. -1.
         22    1    1    2    0    0  0.22221303003E+02 -0.45710410072E+02  0.17369353680E+03  0.18097699473E+03  0.00000000000E+00 0.  1.
         22    1    1    2    0    0 -0.32989353024E+02 -0.38683188046E+02  0.46563607577E-01  0.50839832991E+02  0.00000000000E+00 0. -1.
</event>
<event>
 6    1  0.2809573E-005  0.1481700E+03  0.7818608E-02  0.1294716E+00
          2   -1    0    0  502    0  0.00000000000E+00  0.00000000000E+00  0.81938814844E+02  0.81938814844E+02  0.00000000000E+00 0.  1.
          1   -1    0    0  501    0 -0.00000000000E+00 -0.00000000000E+00 -0.22303408518E+04  0.22303408518E+04  0.00000000000E+00 0. -1.
          2    1    1    2  501    0 -0.33976997760E+02  0.57264211879E+02  0.26896146574E+01  0.66639780657E+02  0.00000000000E+00 0.  1.
          1    1    1    2  502    0  0.39329330681E+02 -0.12741401024E+02 -0.21107190065E+04  0.21111238391E+04  0.00000000000E+00 0. -1.
         22    1    1    2    0    0  0.60907097945E+01  0.22634742602E+02  0.28998489453E+02  0.37287272748E+02  0.00000000000E+00 0. -1.
         22    1    1    2    0    0 -0.11443042716E+02 -0.67157553458E+02 -0.69371134578E+02  0.97228774165E+02  0.00000000000E+00 0.  1.
</event>
<event>
 6    1  0.2809573E-005  0.1142485E+03  0.7818608E-02  0.1255475E+00
          2   -1    0    0  502    0  0.00000000000E+00  0.00000000000E+00  0.32298641956E+03  0.32298641956E+03  0.00000000000E+00 0.  1.
          1   -1    0    0  501    0 -0.00000000000E+00 -0.00000000000E+00 -0.10433880520E+04  0.10433880520E+04  0.00000000000E+00 0.  1.
          2    1    1    2  501    0  0.13261078042E+01 -0.96289059859E+02  0.18801517554E+03  0.21124168112E+03  0.00000000000E+00 0.  1.
          1    1    1    2  502    0 -0.24226290538E+02  0.17092237229E+01 -0.98234634516E+03  0.98264651653E+03  0.00000000000E+00 0.  1.
         22    1    1    2    0    0 -0.94152251610E+01 -0.11825312633E+02  0.58253597922E+02  0.60182772905E+02  0.00000000000E+00 0. -1.
         22    1    1    2    0    0  0.32315407895E+02  0.10640514877E+03  0.15675939236E+02  0.11230350103E+03  0.00000000000E+00 0.  1.
</event>
<event>
 6    1  0.2809573E-005  0.5249941E+02  0.7818608E-02  0.1442257E+00
          2   -1    0    0  502    0  0.00000000000E+00  0.00000000000E+00  0.18737752962E+03  0.18737752962E+03  0.00000000000E+00 0. -1.
          1   -1    0    0  501    0 -0.00000000000E+00 -0.00000000000E+00 -0.10727902880E+03  0.10727902880E+03  0.00000000000E+00 0. -1.
          2    1    1    2  501    0  0.62662501143E+01  0.50824241270E+02  0.24283872795E+01  0.51266621266E+02  0.00000000000E+00 0. -1.
          1    1    1    2  502    0  0.23318650291E+01 -0.30739918000E+02 -0.53945928888E+02  0.62133271254E+02  0.00000000000E+00 0. -1.
         22    1    1    2    0    0 -0.20134490673E+01 -0.43229483223E+02  0.14663701054E+03  0.15288968264E+03  0.00000000000E+00 0. -1.
         22    1    1    2    0    0 -0.65846660761E+01  0.23145159952E+02 -0.15020968112E+02  0.28366983265E+02  0.00000000000E+00 0. -1.
</event>
<event>
 6    1  0.2809573E-005  0.2747675E+03  0.7818608E-02  0.1204178E+00
          2   -1    0    0  502    0  0.00000000000E+00  0.00000000000E+00  0.36099137762E+03  0.36099137762E+03  0.00000000000E+00 0.  1.
          1   -1    0    0  501    0 -0.00000000000E+00 -0.00000000000E+00 -0.76665120493E+03  0.76665120493E+03  0.00000000000E+00 0.  1.
          2    1    1    2  501    0  0.87130600165E+01  0.36300197160E+02 -0.16964416264E+02  0.41005038080E+02  0.00000000000E+00 0.  1.
          1    1    1    2  502    0  0.10945088893E+03  0.11263723350E+03 -0.69088683464E+03  0.70851341676E+03  0.00000000000E+00 0.  1.
         22    1    1    2    0    0 -0.58811721133E+01  0.21743158736E+02  0.37696880288E+02  0.43913641624E+02  0.00000000000E+00 0. -1.
         22    1    1    2    0    0 -0.11228277684E+03 -0.17068058940E+03  0.26449454330E+03  0.33421048608E+03  0.00000000000E+00 0.  1.
</event>
<event>
 6    1  0.2809573E-005  0.3986614E+02  0.7818608E-02  0.1591224E+00
          2   -1    0    0  502    0  0.00000000000E+00  0.00000000000E+00  0.88359274912E+02  0.88359274912E+02  0.00000000000E+00 0. -1.
          1   -1    0    0  501    0 -0.00000000000E+00 -0.00000000000E+00 -0.16759842218E+03  0.16759842218E+03  0.00000000000E+00 0. -1.
          2    1    1    2  501    0 -0.95879390060E+01 -0.18855288287E+02 -0.67038218128E+02  0.70296323948E+02  0.00000000000E+00 0. -1.
          1    1    1    2  502    0  0.44423826552E+01  0.20387371175E+02 -0.53925175435E+02  0.57821312790E+02  0.00000000000E+00 0. -1.
         22    1    1    2    0    0  0.19038472201E+02 -0.15467254313E+01 -0.40326445329E+02  0.44621496794E+02  0.00000000000E+00 0. -1.
         22    1    1    2    0    0 -0.13892915850E+02  0.14642542845E-01  0.82050691623E+02  0.83218563560E+02  0.00000000000E+00 0. -1.
</event>
<event>
 6    1  0.2809573E-005  0.9955572E+02  0.7818608E-02  0.1380027E+00
          2   -1    0    0  502    0  0.00000000000E+00  0.00000000000E+00  0.24164038618E+03  0.24164038618E+03  0.00000000000E+00 0. -1.
          1   -1    0    0  501    0 -0.00000000000E+00 -0.00000000000E+00 -0.15227602618E+03  0.15227602618E+03  0.00000000000E+00 0. -1.
          2    1    1    2  501    0 -0.25110326790E+02 -0.21354696971E+02 -0.10835502826E+03  0.11325795223E+03  0.00000000000E+00 0. -1.
          1    1    1    2  502    0  0.22349982252E+02 -0.11975532761E+02  0.14071746805E+03  0.14298370853E+03  0.00000000000E+00 0. -1.
         22    1    1    2    0    0  0.16524297003E+02  0.44127068444E+02 -0.25335892616E+02  0.53499140325E+02  0.00000000000E+00 0.  1.
         22    1    1    2    0    0 -0.13763952465E+02 -0.10796838712E+02  0.82337812819E+02  0.84175611275E+02  0.00000000000E+00 0. -1.
</event>
<event>
 6    1  0.2809573E-005  0.9734981E+02  0.7818608E-02  0.1321070E+00
          2   -1    0    0  502    0  0.00000000000E+00  0.00000000000E+00  0.13873962476E+04  0.13873962476E+04  0.00000000000E+00 0. -1.
          1   -1    0    0  501    0 -0.00000000000E+00 -0.00000000000E+00 -0.12591425688E+02  0.12591425688E+02  0.00000000000E+00 0. -1.
          2    1    1    2  501    0 -0.84152996867E+02  0.26447964024E+02  0.68243902609E+03  0.68811644800E+03  0.00000000000E+00 0. -1.
          1    1    1    2  502    0  0.28904521473E+02 -0.67736080579E+01  0.99768069065E+02  0.10409140566E+03  0.00000000000E+00 0. -1.
         22    1    1    2    0    0 -0.24376446784E+02 -0.44962484563E+02  0.20543874336E+03  0.21170950250E+03  0.00000000000E+00 0.  1.
         22    1    1    2    0    0  0.79624922179E+02  0.25288128597E+02  0.38715898340E+03  0.39607031712E+03  0.00000000000E+00 0.  1.
</event>
<event>
 6    1  0.2809573E-005  0.1128919E+03  0.7818608E-02  0.1274300E+00
          2   -1    0    0  502    0  0.00000000000E+00  0.00000000000E+00  0.80634076125E+02  0.80634076125E+02  0.00000000000E+00 0. -1.
          1   -1    0    0  501    0 -0.00000000000E+00 -0.00000000000E+00 -0.43471099743E+03  0.43471099743E+03  0.00000000000E+00 0. -1.
          2    1    1    2  501    0  0.61058348592E+02  0.54036947890E+02 -0.14526060847E+03  0.16657958471E+03  0.00000000000E+00 0. -1.
          1    1    1    2  502    0 -0.21073401002E+02 -0.24618318444E+02 -0.20719367189E+03  0.20971258308E+03  0.00000000000E+00 0. -1.
         22    1    1    2    0    0 -0.75347352966E+02 -0.45328077674E+01  0.34229406728E+02  0.82881977717E+02  0.00000000000E+00 0. -1.
         22    1    1    2    0    0  0.35362405376E+02 -0.24885821679E+02 -0.35852047672E+02  0.56170928040E+02  0.00000000000E+00 0.  1.
</event>
<event>
 6    1  0.2809573E-005  0.1121515E+03  0.7818608E-02  0.1269918E+00
          2   -1    0    0  502    0  0.00000000000E+00  0.00000000000E+00  0.51961417107E+03  0.51961417107E+03  0.00000000000E+00 0.  1.
          1   -1    0    0  501    0 -0.00000000000E+00 -0.00000000000E+00 -0.61065066041E+02  0.61065066041E+02  0.00000000000E+00 0.  1.
          2    1    1    2  501    0 -0.61600806624E+02 -0.43557947979E+02  0.97183847731E+02  0.12303111179E+03  0.00000000000E+00 0.  1.
          1    1    1    2  502    0  0.36563927264E+02  0.39850323217E+02 -0.18183035158E+02  0.57057793552E+02  0.00000000000E+00 0.  1.
         22    1    1    2    0    0  0.44103892045E+02  0.55935138266E+02  0.18451827903E+03  0.19779001057E+03  0.00000000000E+00 0.  1.
         22    1    1    2    0    0 -0.19067012686E+02 -0.52227513504E+02  0.19503001343E+03  0.20280032120E+03  0.00000000000E+00 0.  1.
</event>
<event>
 6    1  0.2809573E-005  0.1304779E+03  0.7818608E-02  0.1315520E+00
          2   -1    0    0  502    0  0.00000000000E+00  0.00000000000E+00  0.27312963316E+03  0.27312963316E+03  0.00000000000E+00 0. -1.
          1   -1    0    0  501    0 -0.00000000000E+00 -0.00000000000E+00 -0.92441710462E+02  0.92441710462E+02  0.00000000000E+00 0. -1.
          2    1    1    2  501    0  0.61516928756E+02 -0.56928571171E+02  0.33189462606E+02  0.90148406349E+02  0.00000000000E+00 0. -1.
          1    1    1    2  502    0 -0.95569927295E+02  0.47705519546E+02  0.68143210796E+02  0.12670013724E+03  0.00000000000E+00 0. -1.
         22    1    1    2    0    0  0.23457648087E+02  0.48998503744E+00  0.11140857733E+03  0.11385241517E+03  0.00000000000E+00 0. -1.
         22    1    1    2    0    0  0.10595350451E+02  0.87330665868E+01 -0.32053328026E+02  0.34870384867E+02  0.00000000000E+00 0. -1.
</event>
<event>
 6    1  0.2809573E-005  0.3738617E+03  0.7818608E-02  0.1116086E+00
          2   -1    0    0  502    0  0.00000000000E+00  0.00000000000E+00  0.10710398652E+04  0.10710398652E+04  0.00000000000E+00 0. -1.
          1   -1    0    0  501    0 -0.00000000000E+00 -0.00000000000E+00 -0.54033323711E+03  0.54033323711E+03  0.00000000000E+00 0.  1.
          2    1    1    2  501    0 -0.13981095532E+03  0.69964767099E+02  0.31167545756E+03  0.34868863289E+03  0.00000000000E+00 0. -1.
          1    1    1    2  502    0 -0.49060331655E+02  0.11273757393E+03 -0.48489539275E+03  0.50024016095E+03  0.00000000000E+00 0.  1.
         22    1    1    2    0    0  0.64167953784E+02 -0.27171127879E+02  0.73642823255E+02  0.10138570856E+03  0.00000000000E+00 0. -1.
         22    1    1    2    0    0  0.12470333319E+03 -0.15553121316E+03  0.63028374001E+03  0.66105859989E+03  0.00000000000E+00 0. -1.
</event>
<event>
 6    1  0.2809573E-005  0.2564853E+03  0.7818608E-02  0.1242942E+00
          2   -1    0    0  502    0  0.00000000000E+00  0.00000000000E+00  0.23246427512E+03  0.23246427512E+03  0.00000000000E+00 0.  1.
          1   -1    0    0  501    0 -0.00000000000E+00 -0.00000000000E+00 -0.19016052301E+03  0.19016052301E+03  0.00000000000E+00 0.  1.
          2    1    1    2  501    0 -0.48221000768E+02  0.74047397771E+02  0.28191837897E+02  0.92752691366E+02  0.00000000000E+00 0.  1.
          1    1    1    2  502    0  0.19979522477E+02  0.83937589733E+02 -0.71072207347E+02  0.11178532527E+03  0.00000000000E+00 0.  1.
         22    1    1    2    0    0  0.23598815936E+01  0.12100161146E+02  0.37621986643E+02  0.39590362714E+02  0.00000000000E+00 0. -1.
         22    1    1    2    0    0  0.25881596697E+02 -0.17008514865E+03  0.47562134918E+02  0.17849641878E+03  0.00000000000E+00 0.  1.
</event>
<event>
 6    1  0.2809573E-005  0.1017184E+03  0.7818608E-02  0.1300961E+00
          2   -1    0    0  502    0  0.00000000000E+00  0.00000000000E+00  0.45548908728E+02  0.45548908728E+02  0.00000000000E+00 0. -1.
          1   -1    0    0  501    0 -0.00000000000E+00 -0.00000000000E+00 -0.56609777992E+03  0.56609777992E+03  0.00000000000E+00 0. -1.
          2    1    1    2  501    0 -0.62153259576E+02  0.78348190332E+02 -0.11446893220E+03  0.15200198368E+03  0.00000000000E+00 0. -1.
          1    1    1    2  502    0  0.64776639828E+02 -0.49626774899E+02 -0.13254559727E+03  0.15565077966E+03  0.00000000000E+00 0. -1.
         22    1    1    2    0    0  0.97109128712E+01 -0.63810123560E+02 -0.25382116669E+03  0.26189925231E+03  0.00000000000E+00 0. -1.
         22    1    1    2    0    0 -0.12334293122E+02  0.35088708127E+02 -0.19713175030E+02  0.42094672996E+02  0.00000000000E+00 0. -1.
</event>
<event>
 6    1  0.2809573E-005  0.5066948E+02  0.7818608E-02  0.1475641E+00
          2   -1    0    0  502    0  0.00000000000E+00  0.00000000000E+00  0.31863755444E+02  0.31863755444E+02  0.00000000000E+00 0. -1.
          1   -1    0    0  501    0 -0.00000000000E+00 -0.00000000000E+00 -0.86218670582E+03  0.86218670582E+03  0.00000000000E+00 0.  1.
          2    1    1    2  501    0 -0.22863465769E+02 -0.10359723892E+02 -0.80945166079E+02  0.84747754293E+02  0.00000000000E+00 0. -1.
          1    1    1    2  502    0  0.43088471956E+02 -0.18190755153E+02 -0.62761792424E+03  0.62935822773E+03  0.00000000000E+00 0.  1.
         22    1    1    2    0    0  0.17694309913E+02  0.25386360881E+02  0.17520336952E+02  0.35560063680E+02  0.00000000000E+00 0. -1.
         22    1    1    2    0    0 -0.37919316100E+02  0.31641181642E+01 -0.13928019701E+03  0.14438441556E+03  0.00000000000E+00 0. -1.
</event>
<event>
 6    1  0.2809573E-005  0.3625881E+03  0.7818608E-02  0.1104717E+00
          2   -1    0    0  502    0  0.00000000000E+00  0.00000000000E+00  0.24206881755E+04  0.24206881755E+04  0.00000000000E+00 0.  1.
          1   -1    0    0  501    0 -0.00000000000E+00 -0.00000000000E+00 -0.17694825891E+03  0.17694825891E+03  0.00000000000E+00 0.  1.
          2    1    1    2  501    0  0.21245207055E+03  0.26667894129E+03  0.16460047588E+04  0.16809477107E+04  0.00000000000E+00 0.  1.
          1    1    1    2  502    0 -0.13146333604E+03 -0.28473741129E+03  0.13208007701E+02  0.31389879512E+03  0.00000000000E+00 0.  1.
         22    1    1    2    0    0  0.16064473073E+02 -0.13391427748E+02  0.19395875459E+02  0.28523632606E+02  0.00000000000E+00 0.  1.
         22    1    1    2    0    0 -0.97053207581E+02  0.31449897743E+02  0.56513127463E+03  0.57426629601E+03  0.00000000000E+00 0.  1.
</event>
<event>
 6    1  0.2809573E-005  0.5886609E+02  0.7818608E-02  0.1409252E+00
          2   -1    0    0  502    0  0.00000000000E+00  0.00000000000E+00  0.38004832492E+03  0.38004832492E+03  0.00000000000E+00 0.  1.
          1   -1    0    0  501    0 -0.00000000000E+00 -0.00000000000E+00 -0.39401433214E+02  0.39401433214E+02  0.00000000000E+00 0. -1.
          2    1    1    2  501    0  0.30420340758E+02 -0.14828550564E+01  0.32994819851E+02  0.44902718492E+02  0.00000000000E+00 0.  1.
          1    1    1    2  502    0 -0.28417242412E+02 -0.13685962030E+02 -0.93337932414E+01  0.32893235159E+02  0.00000000000E+00 0. -1.
         22    1    1    2    0    0  0.44801198694E+02  0.29900726294E+02  0.62618849560E+02  0.82597343526E+02  0.00000000000E+00 0.  1.
         22    1    1    2    0    0 -0.46804297040E+02 -0.14731909208E+02  0.25436701553E+03  0.25905646095E+03  0.00000000000E+00 0.  1.
</event>
<event>
 6    1  0.2809573E-005  0.2973235E+03  0.7818608E-02  0.1184868E+00
          2   -1    0    0  502    0  0.00000000000E+00  0.00000000000E+00  0.11749600976E+04  0.11749600976E+04  0.00000000000E+00 0. -1.
          1   -1    0    0  501    0 -0.00000000000E+00 -0.00000000000E+00 -0.46455021272E+03  0.46455021272E+03  0.00000000000E+00 0.  1.
          2    1    1    2  501    0  0.13705649987E+03 -0.89559849454E+02  0.50017457883E+03  0.52628895115E+03  0.00000000000E+00 0. -1.
          1    1    1    2  502    0 -0.10292054007E+03  0.22297189747E+03 -0.40364635491E+03  0.47248225835E+03  0.00000000000E+00 0.  1.
         22    1    1    2    0    0 -0.17673841690E+02  0.20606521746E+02  0.12465538365E+03  0.12757726323E+03  0.00000000000E+00 0. -1.
         22    1    1    2    0    0 -0.16462118115E+02 -0.15401856976E+03  0.48922627734E+03  0.51316183764E+03  0.00000000000E+00 0.  1.
</event>
<event>
 6    1  0.2809573E-005  0.1021707E+03  0.7818608E-02  0.1285419E+00
          2   -1    0    0  502    0  0.00000000000E+00  0.00000000000E+00  0.18112322276E+03  0.18112322276E+03  0.00000000000E+00 0. -1.
          1   -1    0    0  501    0 -0.00000000000E+00 -0.00000000000E+00 -0.18900351162E+03  0.18900351162E+03  0.00000000000E+00 0. -1.
          2    1    1    2  501    0 -0.61084130534E+02 -0.16446822333E+02  0.87151553704E+02  0.10769012156E+03  0.00000000000E+00 0. -1.
          1    1    1    2  502    0  0.13338028261E+02  0.26031038669E+02 -0.12358820689E+03  0.12700221594E+03  0.00000000000E+00 0. -1.
         22    1    1    2    0    0 -0.97468001910E+01 -0.44147674993E+02  0.47652317753E+02  0.65686838168E+02  0.00000000000E+00 0. -1.
         22    1    1    2    0    0  0.57492902465E+02  0.34563458658E+02 -0.19095953429E+02  0.69747558707E+02  0.00000000000E+00 0. -1.
</event>
<event>
 6    1  0.2809573E-005  0.9299576E+03  0.7818608E-02  0.1051511E+00
          2   -1    0    0  502    0  0.00000000000E+00  0.00000000000E+00  0.59340197053E+03  0.59340197053E+03  0.00000000000E+00 0. -1.
          1   -1    0    0  501    0 -0.00000000000E+00 -0.00000000000E+00 -0.13715342477E+04  0.13715342477E+04  0.00000000000E+00 0. -1.
          2    1    1    2  501    0  0.13494431580E+03 -0.20578798401E+03 -0.32612624296E+03  0.40855475652E+03  0.00000000000E+00 0. -1.
          1    1    1    2  502    0  0.87647472457E+01  0.11796615763E+03 -0.98028839214E+03  0.98739969966E+03  0.00000000000E+00 0. -1.
         22    1    1    2    0    0 -0.11760488800E+02 -0.22630887282E+02  0.20149942056E+02  0.32503635502E+02  0.00000000000E+00 0. -1.
         22    1    1    2    0    0 -0.13194857424E+03  0.11045271367E+03  0.50813241587E+03  0.53647812655E+03  0.00000000000E+00 0. -1.
</event>
<event>
 6    1  0.2809573E-005  0.6833089E+02  0.7818608E-02  0.1394531E+00
          2   -1    0    0  502    0  0.00000000000E+00  0.00000000000E+00  0.17881024252E+03  0.17881024252E+03  0.00000000000E+00 0. -1.
          1   -1    0    0  501    0 -0.00000000000E+00 -0.00000000000E+00 -0.77559815158E+02  0.77559815158E+02  0.00000000000E+00 0. -1.
          2    1    1    2  501    0  0.21071842216E+02 -0.17394259617E+02  0.10886215957E+02  0.29412454843E+02  0.00000000000E+00 0. -1.
          1    1    1    2  502    0 -0.28295969591E+02  0.10612096429E+02 -0.37019359171E+02  0.47788193511E+02  0.00000000000E+00 0. -1.
         22    1    1    2    0    0 -0.26564730788E+02 -0.32185620152E+02  0.12002130520E+03  0.12706971617E+03  0.00000000000E+00 0. -1.
         22    1    1    2    0    0  0.33788858163E+02  0.38967783341E+02  0.73622653701E+01  0.52099693145E+02  0.00000000000E+00 0. -1.
</event>
<event>
 6    1  0.2809573E-005  0.5617720E+02  0.7818608E-02  0.1486790E+00
          2   -1    0    0  502    0  0.00000000000E+00  0.00000000000E+00  0.86233864943E+02  0.86233864943E+02  0.00000000000E+00 0.  1.
          1   -1    0    0  501    0 -0.00000000000E+00 -0.00000000000E+00 -0.39637325464E+03  0.39637325464E+03  0.00000000000E+00 0.  1.
          2    1    1    2  501    0  0.29621708688E+01 -0.25340210708E+02 -0.46830865137E+02  0.53329454005E+02  0.00000000000E+00 0.  1.
          1    1    1    2  502    0 -0.18013791897E+02  0.25934811416E+02 -0.29760925762E+03  0.29927977106E+03  0.00000000000E+00 0.  1.
         22    1    1    2    0    0  0.22849054795E+02  0.17171871886E+02 -0.42259273074E+02  0.51017630774E+02  0.00000000000E+00 0. -1.
         22    1    1    2    0    0 -0.77974337664E+01 -0.17766472594E+02  0.76560006137E+02  0.78980263746E+02  0.00000000000E+00 0.  1.
</event>
<event>
 6    1  0.2809573E-005  0.1285451E+03  0.7818608E-02  0.1351648E+00
          2   -1    0    0  502    0  0.00000000000E+00  0.00000000000E+00  0.34582303891E+02  0.34582303891E+02  0.00000000000E+00 0. -1.
          1   -1    0    0  501    0 -0.00000000000E+00 -0.00000000000E+00 -0.18702827517E+04  0.18702827517E+04  0.00000000000E+00 0. -1.
          2    1    1    2  501    0 -0.84313953638E+02  0.91082586384E+01 -0.53580149007E+03  0.54247123418E+03  0.00000000000E+00 0. -1.
          1    1    1    2  502    0  0.12024877983E+03  0.23721035232E+02 -0.11774012843E+04  0.11837635916E+04  0.00000000000E+00 0. -1.
         22    1    1    2    0    0 -0.29831232837E+02 -0.21306817483E+02 -0.14666101626E+03  0.15117320072E+03  0.00000000000E+00 0. -1.
         22    1    1    2    0    0 -0.61035933595E+01 -0.11522476387E+02  0.24163342778E+02  0.27457029122E+02  0.00000000000E+00 0. -1.
</event>
<event>
 6    1  0.2809573E-005  0.1201461E+03  0.7818608E-02  0.1247682E+00
          2   -1    0    0  502    0  0.00000000000E+00  0.00000000000E+00  0.18050961784E+02  0.18050961784E+02  0.00000000000E+00 0.  1.
          1   -1    0    0  501    0 -0.00000000000E+00 -0.00000000000E+00 -0.17090993944E+04  0.17090993944E+04  0.00000000000E+00 0. -1.
          2    1    1    2  501    0 -0.54639783041E+02 -0.65832453378E+02 -0.38345195558E+03  0.39288015990E+03  0.00000000000E+00 0.  1.
          1    1    1    2  502    0  0.54990612133E+02 -0.10553902162E+02 -0.89498517648E+03  0.89673508819E+03  0.00000000000E+00 0. -1.
         22    1    1    2    0    0  0.20824087106E+02  0.10388410522E+03 -0.35299342225E+03  0.36855109018E+03  0.00000000000E+00 0. -1.
         22    1    1    2    0    0 -0.21174916199E+02 -0.27497749679E+02 -0.59617878324E+02  0.68984017926E+02  0.00000000000E+00 0. -1.
</event>
<event>
 6    1  0.2809573E-005  0.8054242E+02  0.7818608E-02  0.1346780E+00
          2   -1    0    0  502    0  0.00000000000E+00  0.00000000000E+00  0.19818029790E+03  0.19818029790E+03  0.00000000000E+00 0. -1.
          1   -1    0    0  501    0 -0.00000000000E+00 -0.00000000000E+00 -0.71853149059E+03  0.71853149059E+03  0.00000000000E+00 0. -1.
          2    1    1    2  501    0  0.23760474376E+02 -0.18283845105E+02 -0.27854988398E+02  0.40923825738E+02  0.00000000000E+00 0. -1.
          1    1    1    2  502    0 -0.83658297258E+02 -0.16284868301E+02 -0.65589085320E+03  0.66140510956E+03  0.00000000000E+00 0. -1.
         22    1    1    2    0    0  0.25684694158E+02 -0.11776091699E+02 -0.11303166916E+02  0.30432571893E+02  0.00000000000E+00 0. -1.
         22    1    1    2    0    0  0.34213128724E+02  0.46344805105E+02  0.17469781582E+03  0.18395028130E+03  0.00000000000E+00 0. -1.
</event>
<event>
 6    1  0.2809573E-005  0.5520741E+03  0.7818608E-02  0.1142272E+00
          2   -1    0    0  502    0  0.00000000000E+00  0.00000000000E+00  0.43916524358E+03  0.43916524358E+03  0.00000000000E+00 0.  1.
          1   -1    0    0  501    0 -0.00000000000E+00 -0.00000000000E+00 -0.57848203333E+03  0.57848203333E+03  0.00000000000E+00 0.  1.
          2    1    1    2  501    0 -0.14853613645E+03 -0.11812617996E+03  0.89365576039E+02  0.20976888331E+03  0.00000000000E+00 0.  1.
          1    1    1    2  502    0 -0.18123333806E+03 -0.21950061847E+02 -0.36309879461E+03  0.40640873844E+03  0.00000000000E+00 0.  1.
         22    1    1    2    0    0  0.20610740211E+01 -0.11174984179E+02  0.19711060631E+02  0.22752015487E+02  0.00000000000E+00 0. -1.
         22    1    1    2    0    0  0.32770840049E+03  0.15125122598E+03  0.11470536818E+03  0.37871763968E+03  0.00000000000E+00 0.  1.
</event>
<event>
 6    1  0.2809573E-005  0.1119733E+03  0.7818608E-02  0.1270331E+00
          2   -1    0    0  502    0  0.00000000000E+00  0.00000000000E+00  0.59727622224E+03  0.59727622224E+03  0.00000000000E+00 0. -1.
          1   -1    0    0  501    0 -0.00000000000E+00 -0.00000000000E+00 -0.24887666720E+03  0.24887666720E+03  0.00000000000E+00 0.  1.
          2    1    1    2  501    0  0.14938218974E+02  0.44950480982E+02  0.94417310289E+02  0.10563297122E+03  0.00000000000E+00 0. -1.
          1    1    1    2  502    0  0.14160692756E+02 -0.97789964421E+02 -0.22241958869E+03  0.24338010558E+03  0.00000000000E+00 0.  1.
         22    1    1    2    0    0 -0.79686389199E+02  0.32937818096E+02  0.25592318845E+03  0.27005832494E+03  0.00000000000E+00 0. -1.
         22    1    1    2    0    0  0.50587477469E+02  0.19901665343E+02  0.22047864499E+03  0.22708148770E+03  0.00000000000E+00 0. -1.
</event>
<event>
 6    1  0.2809573E-005  0.1323514E+03  0.7818608E-02  0.1339606E+00
          2   -1    0    0  502    0  0.00000000000E+00  0.00000000000E+00  0.17018751276E+03  0.17018751276E+03  0.00000000000E+00 0. -1.
          1   -1    0    0  501    0 -0.00000000000E+00 -0.00000000000E+00 -0.13661563439E+03  0.13661563439E+03  0.00000000000E+00 0. -1.
          2    1    1    2  501    0 -0.30238948476E+02  0.13567949666E+02 -0.34384179874E+02  0.47757251687E+02  0.00000000000E+00 0. -1.
          1    1    1    2  502    0  0.62982919845E+02  0.70799312924E+02  0.31130709155E+02  0.99742227543E+02  0.00000000000E+00 0. -1.
         22    1    1    2    0    0  0.14690343430E+02 -0.18649588550E+00  0.58467009497E+02  0.60284593142E+02  0.00000000000E+00 0. -1.
         22    1    1    2    0    0 -0.47434314799E+02 -0.84180766705E+02 -0.21641660410E+02  0.99019074772E+02  0.00000000000E+00 0. -1.
</event>
<event>
 6    1  0.2809573E-005  0.5123900E+03  0.7818608E-02  0.1145083E+00
          2   -1    0    0  502    0  0.00000000000E+00  0.00000000000E+00  0.19284600923E+03  0.19284600923E+03  0.00000000000E+00 0.  1.
          1   -1    0    0  501    0 -0.00000000000E+00 -0.00000000000E+00 -0.61299558555E+03  0.61299558555E+03  0.00000000000E+00 0.  1.
          2    1    1    2  501    0  0.16167062488E+03 -0.95675105570E+02 -0.37267060835E+03  0.41734218467E+03  0.00000000000E+00 0.  1.
          1    1    1    2  502    0 -0.30034133789E+02  0.55898176261E+01 -0.15533440203E+03  0.15831004929E+03  0.00000000000E+00 0.  1.
         22    1    1    2    0    0  0.58868438311E+01 -0.11912415640E+02  0.46415269908E+02  0.48279787254E+02  0.00000000000E+00 0.  1.
         22    1    1    2    0    0 -0.13752333492E+03  0.10199770358E+03  0.61440164146E+02  0.18190957356E+03  0.00000000000E+00 0.  1.
</event>
<event>
 6    1  0.2809573E-005  0.3737391E+03  0.7818608E-02  0.1168427E+00
          2   -1    0    0  502    0  0.00000000000E+00  0.00000000000E+00  0.13596581588E+03  0.13596581588E+03  0.00000000000E+00 0.  1.
          1   -1    0    0  501    0 -0.00000000000E+00 -0.00000000000E+00 -0.98948702481E+03  0.98948702481E+03  0.00000000000E+00 0.  1.
          2    1    1    2  501    0 -0.74429457548E+02  0.17110145102E+03 -0.25370307461E+03  0.31492967590E+03  0.00000000000E+00 0.  1.
          1    1    1    2  502    0  0.24530413114E+03 -0.19069395482E+03 -0.46272033031E+03  0.55735841722E+03  0.00000000000E+00 0.  1.
         22    1    1    2    0    0  0.81637413722E+01  0.18063687411E+02  0.92914946517E+01  0.21892358231E+02  0.00000000000E+00 0. -1.
         22    1    1    2    0    0 -0.17903841497E+03  0.15288163913E+01 -0.14638929866E+03  0.23127238935E+03  0.00000000000E+00 0. -1.
</event>
<event>
 6    1  0.2809573E-005  0.5040428E+02  0.7818608E-02  0.1446405E+00
          2   -1    0    0  502    0  0.00000000000E+00  0.00000000000E+00  0.23987387833E+02  0.23987387833E+02  0.00000000000E+00 0. -1.
          1   -1    0    0  501    0 -0.00000000000E+00 -0.00000000000E+00 -0.93173094573E+03  0.93173094573E+03  0.00000000000E+00 0.  1.
          2    1    1    2  501    0 -0.17453654168E+02  0.15749557364E+02 -0.72170591789E+02  0.75903049479E+02  0.00000000000E+00 0. -1.
          1    1    1    2  502    0 -0.78597970083E+01 -0.19066970165E+02 -0.66958623597E+03  0.66990376410E+03  0.00000000000E+00 0.  1.
         22    1    1    2    0    0 -0.17014891681E+02  0.25508615315E+02 -0.15861752993E+03  0.16155406771E+03  0.00000000000E+00 0. -1.
         22    1    1    2    0    0  0.42328342858E+02 -0.22191202514E+02 -0.73692002114E+01  0.48357452268E+02  0.00000000000E+00 0. -1.
</event>
<event>
 6    1  0.2809573E-005  0.1069964E+03  0.7818608E-02  0.1298817E+00
          2   -1    0    0  502    0  0.00000000000E+00  0.00000000000E+00  0.53935468497E+02  0.53935468497E+02  0.00000000000E+00 0.  1.
          1   -1    0    0  501    0 -0.00000000000E+00 -0.00000000000E+00 -0.12910874759E+04  0.12910874759E+04  0.00000000000E+00 0. -1.
          2    1    1    2  501    0  0.59096054162E+01 -0.89420701557E+02 -0.31435940228E+03  0.32688349469E+03  0.00000000000E+00 0.  1.
          1    1    1    2  502    0  0.36492569896E+02  0.98118562178E+02 -0.87564189461E+03  0.88187736534E+03  0.00000000000E+00 0. -1.
         22    1    1    2    0    0  0.14009024530E+02 -0.20791755000E+02 -0.69889103192E+02  0.74249825517E+02  0.00000000000E+00 0.  1.
         22    1    1    2    0    0 -0.56411199841E+02  0.12093894379E+02  0.22738392659E+02  0.62012258865E+02  0.00000000000E+00 0.  1.
</event>
<event>
 6    1  0.2809573E-005  0.1415043E+03  0.7818608E-02  0.1212530E+00
          2   -1    0    0  502    0  0.00000000000E+00  0.00000000000E+00  0.89974767821E+03  0.89974767821E+03  0.00000000000E+00 0. -1.
          1   -1    0    0  501    0 -0.00000000000E+00 -0.00000000000E+00 -0.32120174949E+02  0.32120174949E+02  0.00000000000E+00 0. -1.
          2    1    1    2  501    0 -0.10615533667E+03  0.17317775091E+02  0.25804842899E+03  0.27956725942E+03  0.00000000000E+00 0. -1.
          1    1    1    2  502    0  0.14030382308E+01  0.25047804786E+02  0.67704623264E+01  0.25984614698E+02  0.00000000000E+00 0. -1.
         22    1    1    2    0    0  0.13430276539E+03 -0.39582491219E+02  0.48291870254E+03  0.50280660265E+03  0.00000000000E+00 0. -1.
         22    1    1    2    0    0 -0.29550466953E+02 -0.27830886572E+01  0.11988990940E+03  0.12350937639E+03  0.00000000000E+00 0. -1.
</event>
<event>
 6    1  0.2809573E-005  0.2728857E+03  0.7818608E-02  0.1228808E+00
          2   -1    0    0  502    0  0.00000000000E+00  0.00000000000E+00  0.20672753312E+03  0.20672753312E+03  0.00000000000E+00 0. -1.
          1   -1    0    0  501    0 -0.00000000000E+00 -0.00000000000E+00 -0.24528039328E+03  0.24528039328E+03  0.00000000000E+00 0. -1.
          2    1    1    2  501    0 -0.50265337704E+02 -0.13565629295E+03 -0.13267592426E+02  0.14527650533E+03  0.00000000000E+00 0. -1.
          1    1    1    2  502    0 -0.60774332161E+02  0.85343951823E+02 -0.73687304249E+02  0.12808953263E+03  0.00000000000E+00 0. -1.
         22    1    1    2    0    0  0.40924140632E+01 -0.13039553380E+02  0.52521891359E+02  0.54270865823E+02  0.00000000000E+00 0.  1.
         22    1    1    2    0    0  0.10694725580E+03  0.63351894512E+02 -0.41198548530E+01  0.12437102261E+03  0.00000000000E+00 0. -1.
</event>
<event>
 6    1  0.2809573E-005  0.2063479E+03  0.7818608E-02  0.1219064E+00
          2   -1    0    0  502    0  0.00000000000E+00  0.00000000000E+00  0.27944818283E+03  0.27944818283E+03  0.00000000000E+00 0.  1.
          1   -1    0    0  501    0 -0.00000000000E+00 -0.00000000000E+00 -0.15219846773E+04  0.15219846773E+04  0.00000000000E+00 0.  1.
          2    1    1    2  501    0 -0.88430910141E+02 -0.41564987736E+02 -0.21339659625E+01  0.97735499613E+02  0.00000000000E+00 0.  1.
          1    1    1    2  502    0  0.24896388222E+02  0.38678235835E+02 -0.14507267247E+04  0.14514557747E+04  0.00000000000E+00 0.  1.
         22    1    1    2    0    0 -0.24021894002E+02  0.30383952112E+02  0.10828475251E+03  0.11500358066E+03  0.00000000000E+00 0. -1.
         22    1    1    2    0    0  0.87556415921E+02 -0.27497200210E+02  0.10203944371E+03  0.13723800516E+03  0.00000000000E+00 0.  1.
</event>
<event>
 6    1  0.2809573E-005  0.6675830E+02  0.7818608E-02  0.1381766E+00
          2   -1    0    0  502    0  0.00000000000E+00  0.00000000000E+00  0.46575611214E+02  0.46575611214E+02  0.00000000000E+00 0.  1.
          1   -1    0    0  501    0 -0.00000000000E+00 -0.00000000000E+00 -0.10103987414E+04  0.10103987414E+04  0.00000000000E+00 0. -1.
          2    1    1    2  501    0  0.42599806613E+00 -0.64554679395E+02 -0.19045850651E+03  0.20110179215E+03  0.00000000000E+00 0.  1.
          1    1    1    2  502    0  0.22951908424E+02  0.53772393861E+02 -0.71374596673E+03  0.71613655504E+03  0.00000000000E+00 0. -1.
         22    1    1    2    0    0  0.79956519562E+00 -0.40169064092E+02 -0.71580121586E+02  0.82084753887E+02  0.00000000000E+00 0. -1.
         22    1    1    2    0    0 -0.24177471686E+02  0.50951349626E+02  0.11961464646E+02  0.57651251524E+02  0.00000000000E+00 0.  1.
</event>
<event>
 6    1  0.2809573E-005  0.1092498E+03  0.7818608E-02  0.1353762E+00
          2   -1    0    0  502    0  0.00000000000E+00  0.00000000000E+00  0.98999326896E+02  0.98999326896E+02  0.00000000000E+00 0. -1.
          1   -1    0    0  501    0 -0.00000000000E+00 -0.00000000000E+00 -0.54502520806E+03  0.54502520806E+03  0.00000000000E+00 0.  1.
          2    1    1    2  501    0 -0.35017057264E+02  0.10263472757E+02 -0.12874903781E+02  0.38694913359E+02  0.00000000000E+00 0. -1.
          1    1    1    2  502    0  0.64331110857E+01  0.56183214303E+02 -0.45588540337E+03  0.45937940691E+03  0.00000000000E+00 0.  1.
         22    1    1    2    0    0  0.14394800815E+02  0.14582480735E+02  0.54147115495E+02  0.57894465636E+02  0.00000000000E+00 0. -1.
         22    1    1    2    0    0  0.14189145363E+02 -0.81029167794E+02 -0.31412689513E+02  0.88055749057E+02  0.00000000000E+00 0. -1.
</event>
<event>
 6    1  0.2809573E-005  0.8609685E+02  0.7818608E-02  0.1363135E+00
          2   -1    0    0  502    0  0.00000000000E+00  0.00000000000E+00  0.12809040282E+03  0.12809040282E+03  0.00000000000E+00 0.  1.
          1   -1    0    0  501    0 -0.00000000000E+00 -0.00000000000E+00 -0.66307751651E+02  0.66307751651E+02  0.00000000000E+00 0.  1.
          2    1    1    2  501    0  0.14580993360E+02 -0.27067132663E+02  0.81401779522E+01  0.31804049035E+02  0.00000000000E+00 0.  1.
          1    1    1    2  502    0 -0.20959153011E+02  0.16605130861E+02  0.14832823628E+02  0.30578245905E+02  0.00000000000E+00 0.  1.
         22    1    1    2    0    0 -0.69718761420E+01 -0.36023996492E+02  0.66742872503E+02  0.76163944292E+02  0.00000000000E+00 0.  1.
         22    1    1    2    0    0  0.13350035794E+02  0.46485998294E+02 -0.27933222917E+02  0.55851915237E+02  0.00000000000E+00 0.  1.
</event>
<event>
 6    1  0.2809573E-005  0.9229231E+02  0.7818608E-02  0.1297802E+00
          2   -1    0    0  502    0  0.00000000000E+00  0.00000000000E+00  0.11086069299E+03  0.11086069299E+03  0.00000000000E+00 0. -1.
          1   -1    0    0  501    0 -0.00000000000E+00 -0.00000000000E+00 -0.31944304744E+03  0.31944304744E+03  0.00000000000E+00 0. -1.
          2    1    1    2  501    0  0.35073611414E+02  0.68961079241E+02  0.29450972370E+02  0.82783745030E+02  0.00000000000E+00 0. -1.
          1    1    1    2  502    0  0.46758297949E+02 -0.84197863177E+02 -0.12268684120E+03  0.15597332975E+03  0.00000000000E+00 0. -1.
         22    1    1    2    0    0  0.97341259686E+01  0.17620989342E+02  0.19831350439E+02  0.28258360427E+02  0.00000000000E+00 0.  1.
         22    1    1    2    0    0 -0.91566035332E+02 -0.23842054062E+01 -0.13517783606E+03  0.16328830522E+03  0.00000000000E+00 0.  1.
</event>
<event>
 6    1  0.2809573E-005  0.1060299E+03  0.7818608E-02  0.1279405E+00
          2   -1    0    0  502    0  0.00000000000E+00  0.00000000000E+00  0.33649518870E+03  0.33649518870E+03  0.00000000000E+00 0.  1.
          1   -1    0    0  501    0 -0.00000000000E+00 -0.00000000000E+00 -0.83135069817E+03  0.83135069817E+03  0.00000000000E+00 0.  1.
          2    1    1    2  501    0 -0.10600578171E+03  0.59910529304E+02  0.43054462393E+02  0.12915178670E+03  0.00000000000E+00 0.  1.
          1    1    1    2  502    0  0.72282013115E+02  0.33304419277E+01 -0.76546057832E+03  0.76887299226E+03  0.00000000000E+00 0.  1.
         22    1    1    2    0    0  0.63557237860E+02 -0.47254995298E+02  0.22176576959E+03  0.23548378633E+03  0.00000000000E+00 0. -1.
         22    1    1    2    0    0 -0.29833469270E+02 -0.15985975934E+02  0.57848368691E+01  0.34337321573E+02  0.00000000000E+00 0. -1.
</event>
<event>
 6    1  0.2809573E-005  0.2400418E+03  0.7818608E-02  0.1248127E+00
          2   -1    0    0  502    0  0.00000000000E+00  0.00000000000E+00  0.14101834657E+03  0.14101834657E+03  0.00000000000E+00 0.  1.
          1   -1    0    0  501    0 -0.00000000000E+00 -0.00000000000E+00 -0.10950009330E+04  0.10950009330E+04  0.00000000000E+00 0.  1.
          2    1    1    2  501    0  0.14629759903E+03  0.40922603396E+02 -0.17852607599E+02  0.15295869556E+03  0.00000000000E+00 0.  1.
          1    1    1    2  502    0 -0.22322331761E+03 -0.33939079770E+02 -0.90879692095E+03  0.93642530625E+03  0.00000000000E+00 0.  1.
         22    1    1    2    0    0  0.89913698380E+02 -0.10842214683E+02 -0.61772784180E+02  0.10962619961E+03  0.00000000000E+00 0. -1.
         22    1    1    2    0    0 -0.12987979794E+02  0.38586910577E+01  0.34439726307E+02  0.37009078128E+02  0.00000000000E+00 0. -1.
</event>
<event>
 6    1  0.2809573E-005  0.8496467E+02  0.7818608E-02  0.1392017E+00
          2   -1    0    0  502    0  0.00000000000E+00  0.00000000000E+00  0.28723470693E+02  0.28723470693E+02  0.00000000000E+00 0. -1.
          1   -1    0    0  501    0 -0.00000000000E+00 -0.00000000000E+00 -0.69609988878E+03  0.69609988878E+03  0.00000000000E+00 0. -1.
          2    1    1    2  501    0  0.27248097128E+02 -0.16936716471E+02 -0.14833585300E+03  0.15176572883E+03  0.00000000000E+00 0. -1.
          1    1    1    2  502    0 -0.27761664042E+02 -0.15295394394E+02 -0.39475729917E+03  0.39602775701E+03  0.00000000000E+00 0. -1.
         22    1    1    2    0    0 -0.22800669869E+01  0.55246640813E+02 -0.13898342752E+03  0.14957868549E+03  0.00000000000E+00 0.  1.
         22    1    1    2    0    0  0.27936339003E+01 -0.23014529947E+02  0.14700161604E+02  0.27451188139E+02  0.00000000000E+00 0. -1.
</event>
<event>
 6    1  0.2809573E-005  0.1053509E+03  0.7818608E-02  0.1280396E+00
          2   -1    0    0  502    0  0.00000000000E+00  0.00000000000E+00  0.45315997503E+02  0.45315997503E+02  0.00000000000E+00 0. -1.
          1   -1    0    0  501    0 -0.00000000000E+00 -0.00000000000E+00 -0.57398373719E+03  0.57398373719E+03  0.00000000000E+00 0. -1.
          2    1    1    2  501    0  0.75876837093E+02 -0.13252934070E+02 -0.21680339519E+02  0.80018571534E+02  0.00000000000E+00 0. -1.
          1    1    1    2  502    0 -0.44763645672E+02  0.41647531641E+01 -0.21815801447E+03  0.22274211192E+03  0.00000000000E+00 0. -1.
         22    1    1    2    0    0 -0.36436527407E+02  0.43933924501E+02 -0.27117206224E+03  0.27711387116E+03  0.00000000000E+00 0. -1.
         22    1    1    2    0    0  0.53233359865E+01 -0.34845743595E+02 -0.17657323457E+02  0.39425180081E+02  0.00000000000E+00 0. -1.
</event>
<event>
 6    1  0.2809573E-005  0.8226605E+02  0.7818608E-02  0.1347002E+00
          2   -1    0    0  502    0  0.00000000000E+00  0.00000000000E+00  0.67766281923E+02  0.67766281923E+02  0.00000000000E+00 0.  1.
          1   -1    0    0  501    0 -0.00000000000E+00 -0.00000000000E+00 -0.32308506773E+03  0.32308506773E+03  0.00000000000E+00 0. -1.
          2    1    1    2  501    0 -0.38861836225E+02  0.17717360343E+02 -0.13169410980E+02  0.44694301179E+02  0.00000000000E+00 0.  1.
          1    1    1    2  502    0 -0.50900796199E+01 -0.33097543820E+02 -0.20962710912E+03  0.21228490572E+03  0.00000000000E+00 0. -1.
         22    1    1    2    0    0  0.39888033644E+02 -0.32338215121E+02  0.26564477412E+02  0.57814244312E+02  0.00000000000E+00 0.  1.
         22    1    1    2    0    0  0.40638822006E+01  0.47718398599E+02 -0.59086743117E+02  0.76057898443E+02  0.00000000000E+00 0.  1.
</event>
<event>
 6    1  0.2809573E-005  0.4849294E+02  0.7818608E-02  0.1457915E+00
          2   -1    0    0  502    0  0.00000000000E+00  0.00000000000E+00  0.61801773458E+02  0.61801773458E+02  0.00000000000E+00 0.  1.
          1   -1    0    0  501    0 -0.00000000000E+00 -0.00000000000E+00 -0.12828126026E+04  0.12828126026E+04  0.00000000000E+00 0.  1.
          2    1    1    2  501    0 -0.37528238346E+02 -0.33567589931E+02 -0.22220702385E+03  0.22784010450E+03  0.00000000000E+00 0.  1.
          1    1    1    2  502    0  0.12346759682E+02  0.17617392229E+02 -0.98715845583E+03  0.98739284578E+03  0.00000000000E+00 0.  1.
         22    1    1    2    0    0 -0.57520955778E+01 -0.16632548081E+02 -0.60500731969E+02  0.63008466320E+02  0.00000000000E+00 0.  1.
         22    1    1    2    0    0  0.30933574242E+02  0.32582745783E+02  0.48855382550E+02  0.66372959421E+02  0.00000000000E+00 0.  1.
</event>
<event>
 6    1  0.2809573E-005  0.2087509E+03  0.7818608E-02  0.1233972E+00
          2   -1    0    0  502    0  0.00000000000E+00  0.00000000000E+00  0.18432677014E+03  0.18432677014E+03  0.00000000000E+00 0.  1.
          1   -1    0    0  501    0 -0.00000000000E+00 -0.00000000000E+00 -0.15126137783E+04  0.15126137783E+04  0.00000000000E+00 0.  1.
          2    1    1    2  501    0 -0.18685934887E+02 -0.58726450759E+02 -0.99728536805E+02  0.11723370349E+03  0.00000000000E+00 0.  1.
          1    1    1    2  502    0  0.26665253945E+02  0.73843527390E+00 -0.13774144392E+04  0.13776727182E+04  0.00000000000E+00 0.  1.
         22    1    1    2    0    0 -0.20316101331E+01 -0.27408378381E+02  0.99490465362E+02  0.10321675902E+03  0.00000000000E+00 0.  1.
         22    1    1    2    0    0 -0.59477089246E+01  0.85396393866E+02  0.49365502512E+02  0.98817367729E+02  0.00000000000E+00 0.  1.
</event>
<event>
 6    1  0.2809573E-005  0.2870023E+03  0.7818608E-02  0.1125112E+00
          2   -1    0    0  502    0  0.00000000000E+00  0.00000000000E+00  0.72909347678E+03  0.72909347678E+03  0.00000000000E+00 0. -1.
          1   -1    0    0  501    0 -0.00000000000E+00 -0.00000000000E+00 -0.86431116846E+03  0.86431116846E+03  0.00000000000E+00 0.  1.
          2    1    1    2  501    0 -0.24116141800E+02  0.11375495887E+03  0.11120548336E+03  0.16089884553E+03  0.00000000000E+00 0. -1.
          1    1    1    2  502    0 -0.29253515556E+02 -0.27500338748E+03 -0.79685705335E+03  0.84348313248E+03  0.00000000000E+00 0.  1.
         22    1    1    2    0    0 -0.37306020839E+02  0.78238107807E+02  0.23563624231E+03  0.25107245845E+03  0.00000000000E+00 0. -1.
         22    1    1    2    0    0  0.90675678195E+02  0.83010320795E+02  0.31479763601E+03  0.33795020877E+03  0.00000000000E+00 0. -1.
</event>
<event>
 6    1  0.2809573E-005  0.6297706E+02  0.7818608E-02  0.1469226E+00
          2   -1    0    0  502    0  0.00000000000E+00  0.00000000000E+00  0.12259056824E+03  0.12259056824E+03  0.00000000000E+00 0. -1.
          1   -1    0    0  501    0 -0.00000000000E+00 -0.00000000000E+00 -0.32194658958E+03  0.32194658958E+03  0.00000000000E+00 0. -1.
          2    1    1    2  501    0  0.23262664706E+02 -0.25267623474E+02 -0.43786684196E+02  0.55649600880E+02  0.00000000000E+00 0. -1.
          1    1    1    2  502    0 -0.37754170480E+02  0.44341273240E+02 -0.23162498279E+03  0.23883395603E+03  0.00000000000E+00 0. -1.
         22    1    1    2    0    0 -0.17659829740E+02 -0.29801215252E+00  0.10273961184E+03  0.10424675649E+03  0.00000000000E+00 0. -1.
         22    1    1    2    0    0  0.32151335515E+02 -0.18775637613E+02 -0.26683966204E+02  0.45806844418E+02  0.00000000000E+00 0.  1.
</event>
<event>
 6    1  0.2809573E-005  0.2722379E+03  0.7818608E-02  0.1224601E+00
          2   -1    0    0  502    0  0.00000000000E+00  0.00000000000E+00  0.82168175666E+02  0.82168175666E+02  0.00000000000E+00 0. -1.
          1   -1    0    0  501    0 -0.00000000000E+00 -0.00000000000E+00 -0.11969134537E+04  0.11969134537E+04  0.00000000000E+00 0. -1.
          2    1    1    2  501    0 -0.56673036035E+02 -0.10384625942E+03 -0.20678218003E+03  0.23823255149E+03  0.00000000000E+00 0. -1.
          1    1    1    2  502    0  0.24370954565E+02 -0.81953180853E+01 -0.86774702247E+03  0.86812787173E+03  0.00000000000E+00 0. -1.
         22    1    1    2    0    0  0.41493317538E+02  0.12392236706E+03 -0.63278351089E+02  0.14519847856E+03  0.00000000000E+00 0. -1.
         22    1    1    2    0    0 -0.91912360683E+01 -0.11880789552E+02  0.23062275551E+02  0.27522727598E+02  0.00000000000E+00 0.  1.
</event>
<event>
 6    1  0.2809573E-005  0.7194643E+02  0.7818608E-02  0.1369733E+00
          2   -1    0    0  502    0  0.00000000000E+00  0.00000000000E+00  0.41489182264E+03  0.41489182264E+03  0.00000000000E+00 0.  1.
          1   -1    0    0  501    0 -0.00000000000E+00 -0.00000000000E+00 -0.43665710481E+03  0.43665710481E+03  0.00000000000E+00 0.  1.
          2    1    1    2  501    0  0.50242057657E+02 -0.29830846878E+02  0.76778545321E+02  0.96483619360E+02  0.00000000000E+00 0.  1.
          1    1    1    2  502    0 -0.16528891359E+02  0.27332687876E+02 -0.41385597767E+03  0.41508679854E+03  0.00000000000E+00 0.  1.
         22    1    1    2    0    0 -0.53217615495E+02 -0.14480606697E+01  0.31561805693E+03  0.32007650545E+03  0.00000000000E+00 0.  1.
         22    1    1    2    0    0  0.19504449197E+02  0.39462196715E+01 -0.30590676413E+00  0.19902004098E+02  0.00000000000E+00 0. -1.
</event>
<event>
 6    1  0.2809573E-005  0.7796382E+02  0.7818608E-02  0.1336735E+00
          2   -1    0    0  502    0  0.00000000000E+00  0.00000000000E+00  0.67359696703E+03  0.67359696703E+03  0.00000000000E+00 0.  1.
          1   -1    0    0  501    0 -0.00000000000E+00 -0.00000000000E+00 -0.40004047845E+03  0.40004047845E+03  0.00000000000E+00 0. -1.
          2    1    1    2  501    0  0.18103756222E+02  0.24021582450E+02  0.12177190511E+03  0.12543197075E+03  0.00000000000E+00 0.  1.
          1    1    1    2  502    0 -0.45357024456E+02 -0.16539957373E+02 -0.38891138049E+03  0.39189653192E+03  0.00000000000E+00 0. -1.
         22    1    1    2    0    0  0.53712488069E+02  0.41506715745E+02  0.38543452679E+03  0.39136634151E+03  0.00000000000E+00 0.  1.
         22    1    1    2    0    0 -0.26459219835E+02 -0.48988340821E+02  0.15526143717E+03  0.16494260129E+03  0.00000000000E+00 0.  1.
</event>
<event>
 6    1  0.2809573E-005  0.1349732E+03  0.7818608E-02  0.1297109E+00
          2   -1    0    0  502    0  0.00000000000E+00  0.00000000000E+00  0.97983042407E+02  0.97983042407E+02  0.00000000000E+00 0.  1.
          1   -1    0    0  501    0 -0.00000000000E+00 -0.00000000000E+00 -0.43871343804E+03  0.43871343804E+03  0.00000000000E+00 0.  1.
          2    1    1    2  501    0  0.24495702290E+02  0.13240290539E+02 -0.41769272102E+02  0.50199769085E+02  0.00000000000E+00 0.  1.
          1    1    1    2  502    0  0.37222380465E+01 -0.86207618284E+02 -0.32759579868E+03  0.33876926634E+03  0.00000000000E+00 0.  1.
         22    1    1    2    0    0 -0.40938982668E+02  0.99763323484E+02  0.19894169354E+01  0.10785489694E+03  0.00000000000E+00 0.  1.
         22    1    1    2    0    0  0.12721042331E+02 -0.26795995739E+02  0.26645258208E+02  0.39872548082E+02  0.00000000000E+00 0.  1.
</event>
<event>
 6    1  0.2809573E-005  0.9441659E+02  0.7818608E-02  0.1365096E+00
          2   -1    0    0  502    0  0.00000000000E+00  0.00000000000E+00  0.10893414353E+03  0.10893414353E+03  0.00000000000E+00 0. -1.
          1   -1    0    0  501    0 -0.00000000000E+00 -0.00000000000E+00 -0.18137358269E+03  0.18137358269E+03  0.00000000000E+00 0. -1.
          2    1    1    2  501    0  0.26424464385E+02 -0.20085808528E+02 -0.65999899406E+02  0.73876104011E+02  0.00000000000E+00 0. -1.
          1    1    1    2  502    0 -0.67200808662E+02  0.27489387106E+02  0.30845234571E+02  0.78886269934E+02  0.00000000000E+00 0. -1.
         22    1    1    2    0    0  0.62159775350E+02  0.77951747063E+01 -0.71090164671E+02  0.94754492944E+02  0.00000000000E+00 0.  1.
         22    1    1    2    0    0 -0.21383431072E+02 -0.15198753285E+02  0.33805390349E+02  0.42790859333E+02  0.00000000000E+00 0.  1.
</event>
<event>
 6    1  0.2809573E-005  0.6642407E+02  0.7818608E-02  0.1374001E+00
          2   -1    0    0  502    0  0.00000000000E+00  0.00000000000E+00  0.50920221008E+03  0.50920221008E+03  0.00000000000E+00 0. -1.
          1   -1    0    0  501    0 -0.00000000000E+00 -0.00000000000E+00 -0.19610149997E+03  0.19610149997E+03  0.00000000000E+00 0. -1.
          2    1    1    2  501    0 -0.68718560785E+01 -0.25833530399E+02  0.21124990450E+03  0.21293453419E+03  0.00000000000E+00 0. -1.
          1    1    1    2  502    0  0.22721125608E+02 -0.63740983135E+01 -0.17958809964E+03  0.18113189727E+03  0.00000000000E+00 0. -1.
         22    1    1    2    0    0 -0.11107325524E+02  0.69844833401E+02  0.82278131161E+02  0.10849591836E+03  0.00000000000E+00 0. -1.
         22    1    1    2    0    0 -0.47419440056E+01 -0.37637204688E+02  0.19916077409E+03  0.20274136022E+03  0.00000000000E+00 0. -1.
</event>
<event>
 6    1  0.2809573E-005  0.2027041E+03  0.7818608E-02  0.1147960E+00
          2   -1    0    0  502    0  0.00000000000E+00  0.00000000000E+00  0.29318167847E+03  0.29318167847E+03  0.00000000000E+00 0.  1.
          1   -1    0    0  501    0 -0.00000000000E+00 -0.00000000000E+00 -0.27000652813E+03  0.27000652813E+03  0.00000000000E+00 0.  1.
          2    1    1    2  501    0 -0.94825710503E+01 -0.12815331552E+03 -0.96802078787E+02  0.16088453589E+03  0.00000000000E+00 0.  1.
          1    1    1    2  502    0  0.35422563408E+02 -0.86427706128E+02 -0.45763819819E+02  0.10401362213E+03  0.00000000000E+00 0.  1.
         22    1    1    2    0    0 -0.93299082934E+01 -0.10548281617E+02 -0.53233407297E+01  0.15054945711E+02  0.00000000000E+00 0.  1.
         22    1    1    2    0    0 -0.16610084064E+02  0.22512930326E+03  0.17106438968E+03  0.28323510287E+03  0.00000000000E+00 0.  1.
</event>
<event>
 6    1  0.2809573E-005  0.2227723E+03  0.7818608E-02  0.1133973E+00
          2   -1    0    0  502    0  0.00000000000E+00  0.00000000000E+00  0.17171236624E+03  0.17171236624E+03  0.00000000000E+00 0. -1.
          1   -1    0    0  501    0 -0.00000000000E+00 -0.00000000000E+00 -0.16933284137E+04  0.16933284137E+04  0.00000000000E+00 0.  1.
          2    1    1    2  501    0  0.53574873410E+02  0.17997336762E+03  0.89568916851E+01  0.18799177116E+03  0.00000000000E+00 0. -1.
          1    1    1    2  502    0  0.37471092524E+02  0.18539765843E+02 -0.13849533943E+04  0.13855842486E+04  0.00000000000E+00 0.  1.
         22    1    1    2    0    0  0.18166980658E+02  0.70529356131E+01 -0.14584035725E+02  0.24340854238E+02  0.00000000000E+00 0. -1.
         22    1    1    2    0    0 -0.10921294659E+03 -0.20556606908E+03 -0.13103550911E+03  0.26712390591E+03  0.00000000000E+00 0.  1.
</event>
<event>
 6    1  0.2809573E-005  0.1956241E+03  0.7818608E-02  0.1288030E+00
          2   -1    0    0  502    0  0.00000000000E+00  0.00000000000E+00  0.15835109736E+03  0.15835109736E+03  0.00000000000E+00 0. -1.
          1   -1    0    0  501    0 -0.00000000000E+00 -0.00000000000E+00 -0.15848759022E+03  0.15848759022E+03  0.00000000000E+00 0. -1.
          2    1    1    2  501    0 -0.18599506679E+01 -0.77824223139E+02 -0.14426188937E+02  0.79171864011E+02  0.00000000000E+00 0. -1.
          1    1    1    2  502    0  0.23334040928E+02 -0.27135204612E+02 -0.48428153222E+02  0.60216964552E+02  0.00000000000E+00 0. -1.
         22    1    1    2    0    0 -0.24326986921E+02  0.11614209944E+03  0.51901518520E+01  0.11877595393E+03  0.00000000000E+00 0. -1.
         22    1    1    2    0    0  0.28528966611E+01 -0.11182671688E+02  0.57527697443E+02  0.58673905090E+02  0.00000000000E+00 0.  1.
</event>
<event>
 6    1  0.2809573E-005  0.8649983E+02  0.7818608E-02  0.1397080E+00
          2   -1    0    0  502    0  0.00000000000E+00  0.00000000000E+00  0.74670061353E+02  0.74670061353E+02  0.00000000000E+00 0. -1.
          1   -1    0    0  501    0 -0.00000000000E+00 -0.00000000000E+00 -0.55427641493E+03  0.55427641493E+03  0.00000000000E+00 0.  1.
          2    1    1    2  501    0 -0.50186352106E+01 -0.28671407425E+02 -0.10330917096E+03  0.10733136124E+03  0.00000000000E+00 0. -1.
          1    1    1    2  502    0  0.42908566429E+01  0.71217407017E+02 -0.38145967647E+03  0.38807449709E+03  0.00000000000E+00 0.  1.
         22    1    1    2    0    0 -0.18418405569E+02 -0.49187073181E+02 -0.51381005024E+02  0.73475257802E+02  0.00000000000E+00 0. -1.
         22    1    1    2    0    0  0.19146184137E+02  0.66410735893E+01  0.56543498873E+02  0.60065360153E+02  0.00000000000E+00 0. -1.
</event>
<event>
 6    1  0.2809573E-005  0.1180828E+03  0.7818608E-02  0.1319197E+00
          2   -1    0    0  502    0  0.00000000000E+00  0.00000000000E+00  0.17909286444E+03  0.17909286444E+03  0.00000000000E+00 0. -1.
          1   -1    0    0  501    0 -0.00000000000E+00 -0.00000000000E+00 -0.10659077214E+04  0.10659077214E+04  0.00000000000E+00 0. -1.
          2    1    1    2  501    0 -0.11932845807E+02  0.37731941323E+02 -0.35303151712E+02  0.53032110328E+02  0.00000000000E+00 0. -1.
          1    1    1    2  502    0  0.12873010631E+02  0.17540094811E+02 -0.99256361482E+03  0.99280204412E+03  0.00000000000E+00 0. -1.
         22    1    1    2    0    0 -0.29639802862E+02  0.37533841133E+01  0.12902736266E+03  0.13244117985E+03  0.00000000000E+00 0. -1.
         22    1    1    2    0    0  0.28699638038E+02 -0.59025420247E+02  0.12024546965E+02  0.66725251506E+02  0.00000000000E+00 0. -1.
</event>
<event>
 6    1  0.2809573E-005  0.1326011E+03  0.7818608E-02  0.1229549E+00
          2   -1    0    0  502    0  0.00000000000E+00  0.00000000000E+00  0.48897497673E+03  0.48897497673E+03  0.00000000000E+00 0.  1.
          1   -1    0    0  501    0 -0.00000000000E+00 -0.00000000000E+00 -0.32596846160E+03  0.32596846160E+03  0.00000000000E+00 0. -1.
          2    1    1    2  501    0  0.91145620968E+02  0.74421770859E+02  0.24125770579E+03  0.26842392740E+03  0.00000000000E+00 0.  1.
          1    1    1    2  502    0 -0.12036561311E+03  0.38526443934E+02 -0.26483917487E+03  0.29344838771E+03  0.00000000000E+00 0. -1.
         22    1    1    2    0    0  0.30844916233E+02  0.43445651310E+01  0.10668394840E+03  0.11113842248E+03  0.00000000000E+00 0. -1.
         22    1    1    2    0    0 -0.16249240922E+01 -0.11729277992E+03  0.79904035820E+02  0.14193270075E+03  0.00000000000E+00 0. -1.
</event>
<event>
 6    1  0.2809573E-005  0.8180304E+02  0.7818608E-02  0.1352066E+00
          2   -1    0    0  502    0  0.00000000000E+00  0.00000000000E+00  0.14044113347E+03  0.14044113347E+03  0.00000000000E+00 0. -1.
          1   -1    0    0  501    0 -0.00000000000E+00 -0.00000000000E+00 -0.27864250948E+03  0.27864250948E+03  0.00000000000E+00 0.  1.
          2    1    1    2  501    0  0.31605520102E+02 -0.31204527338E+02  0.46086053528E+02  0.64004341705E+02  0.00000000000E+00 0. -1.
          1    1    1    2  502    0 -0.24983599605E+02  0.19455325371E+02 -0.21938181014E+03  0.22165529219E+03  0.00000000000E+00 0.  1.
         22    1    1    2    0    0 -0.30020179106E+02 -0.23479754437E+02  0.69261855853E+02  0.79055137077E+02  0.00000000000E+00 0.  1.
         22    1    1    2    0    0  0.23398258609E+02  0.35228956404E+02 -0.34167475253E+02  0.54368871981E+02  0.00000000000E+00 0.  1.
</event>
<event>
 6    1  0.2809573E-005  0.6235155E+02  0.7818608E-02  0.1391827E+00
          2   -1    0    0  502    0  0.00000000000E+00  0.00000000000E+00  0.11268718782E+03  0.11268718782E+03  0.00000000000E+00 0. -1.
          1   -1    0    0  501    0 -0.00000000000E+00 -0.00000000000E+00 -0.10639937505E+04  0.10639937505E+04  0.00000000000E+00 0. -1.
          2    1    1    2  501    0  0.11824694525E+02  0.17009729855E+02 -0.27683189857E+02  0.34576195728E+02  0.00000000000E+00 0. -1.
          1    1    1    2  502    0  0.19697144628E+02 -0.38627413174E+02 -0.99443461973E+03  0.99537945904E+03  0.00000000000E+00 0. -1.
         22    1    1    2    0    0 -0.61535351816E+02  0.24462288559E+01  0.87817681378E+02  0.10725916614E+03  0.00000000000E+00 0. -1.
         22    1    1    2    0    0  0.30013512663E+02  0.19171454463E+02 -0.17006434443E+02  0.39466117380E+02  0.00000000000E+00 0. -1.
</event>
<event>
 6    1  0.2809573E-005  0.2429775E+03  0.7818608E-02  0.1205683E+00
          2   -1    0    0  502    0  0.00000000000E+00  0.00000000000E+00  0.43669495665E+03  0.43669495665E+03  0.00000000000E+00 0. -1.
          1   -1    0    0  501    0 -0.00000000000E+00 -0.00000000000E+00 -0.14768647768E+03  0.14768647768E+03  0.00000000000E+00 0. -1.
          2    1    1    2  501    0  0.54658018329E+02 -0.10909729369E+03 -0.29401002411E+02  0.12551548670E+03  0.00000000000E+00 0. -1.
          1    1    1    2  502    0 -0.76776543245E+01 -0.31348010370E+02  0.24964653040E+03  0.25172412334E+03  0.00000000000E+00 0. -1.
         22    1    1    2    0    0 -0.24692600454E+02  0.11813739801E+03 -0.11177233896E+02  0.12120684751E+03  0.00000000000E+00 0.  1.
         22    1    1    2    0    0 -0.22287763551E+02  0.22307906059E+02  0.79940184877E+02  0.85934976785E+02  0.00000000000E+00 0.  1.
</event>
<event>
 6    1  0.2809573E-005  0.2107784E+03  0.7818608E-02  0.1215450E+00
          2   -1    0    0  502    0  0.00000000000E+00  0.00000000000E+00  0.63803322441E+02  0.63803322441E+02  0.00000000000E+00 0.  1.
          1   -1    0    0  501    0 -0.00000000000E+00 -0.00000000000E+00 -0.19022588257E+04  0.19022588257E+04  0.00000000000E+00 0. -1.
          2    1    1    2  501    0  0.10475742780E+03  0.81329937765E+02 -0.36563199266E+03  0.38894142427E+03  0.00000000000E+00 0.  1.
          1    1    1    2  502    0 -0.13534348005E+03 -0.16965740293E+03 -0.13832727430E+04  0.14001946198E+04  0.00000000000E+00 0. -1.
         22    1    1    2    0    0  0.23959979269E+02  0.49671479522E+02 -0.11680298131E+03  0.12916761563E+03  0.00000000000E+00 0.  1.
         22    1    1    2    0    0  0.66260729767E+01  0.38655985648E+02  0.27252213650E+02  0.47758488443E+02  0.00000000000E+00 0.  1.
</event>
<event>
 6    1  0.2809573E-005  0.7449753E+02  0.7818608E-02  0.1348600E+00
          2   -1    0    0  502    0  0.00000000000E+00  0.00000000000E+00  0.28512113131E+03  0.28512113131E+03  0.00000000000E+00 0.  1.
          1   -1    0    0  501    0 -0.00000000000E+00 -0.00000000000E+00 -0.27540392329E+03  0.27540392329E+03  0.00000000000E+00 0. -1.
          2    1    1    2  501    0 -0.18388027718E+02 -0.19089893300E+02  0.37093511649E+02  0.45590264268E+02  0.00000000000E+00 0.  1.
          1    1    1    2  502    0  0.36678554132E+02  0.31373544296E+02 -0.25205715962E+03  0.25663676145E+03  0.00000000000E+00 0. -1.
         22    1    1    2    0    0  0.46575874158E+01  0.54710516889E+02  0.77652767012E+02  0.95104605585E+02  0.00000000000E+00 0. -1.
         22    1    1    2    0    0 -0.22948113830E+02 -0.66994167885E+02  0.14702808897E+03  0.16319342329E+03  0.00000000000E+00 0.  1.
</event>
<event>
 6    1  0.2809573E-005  0.6036112E+02  0.7818608E-02  0.1437048E+00
          2   -1    0    0  502    0  0.00000000000E+00  0.00000000000E+00  0.13475675653E+03  0.13475675653E+03  0.00000000000E+00 0.  1.
          1   -1    0    0  501    0 -0.00000000000E+00 -0.00000000000E+00 -0.39685742961E+03  0.39685742961E+03  0.00000000000E+00 0.  1.
          2    1    1    2  501    0 -0.34954297141E+02 -0.18939684062E+02 -0.59953230890E+02  0.71936808486E+02  0.00000000000E+00 0.  1.
          1    1    1    2  502    0  0.40100201303E+02  0.38650150306E+02 -0.29742825103E+03  0.30259779374E+03  0.00000000000E+00 0.  1.
         22    1    1    2    0    0 -0.14934713719E+02  0.10925864410E+02 -0.25828136517E+02  0.31772831521E+02  0.00000000000E+00 0. -1.
         22    1    1    2    0    0  0.97888095561E+01 -0.30636330654E+02  0.12110894536E+03  0.12530675239E+03  0.00000000000E+00 0.  1.
</event>
<event>
 6    1  0.2809573E-005  0.8717714E+02  0.7818608E-02  0.1312617E+00
          2   -1    0    0  502    0  0.00000000000E+00  0.00000000000E+00  0.15034080679E+04  0.15034080679E+04  0.00000000000E+00 0.  1.
          1   -1    0    0  501    0 -0.00000000000E+00 -0.00000000000E+00 -0.73053249168E+01  0.73053249168E+01  0.00000000000E+00 0.  1.
          2    1    1    2  501    0 -0.16586446615E+02  0.41009679284E+02  0.43324753131E+03  0.43550008885E+03  0.00000000000E+00 0.  1.
          1    1    1    2  502    0  0.16527924653E+02 -0.27890469734E+02  0.35971631041E+03  0.36117429943E+03  0.00000000000E+00 0.  1.
         22    1    1    2    0    0 -0.18620543558E+02  0.52685342415E+02  0.31904649216E+03  0.32390297020E+03  0.00000000000E+00 0.  1.
         22    1    1    2    0    0  0.18679065520E+02 -0.65804551965E+02  0.38409240908E+03  0.39013603430E+03  0.00000000000E+00 0.  1.
</event>
<event>
 6    1  0.2809573E-005  0.1649499E+03  0.7818608E-02  0.1267165E+00
          2   -1    0    0  502    0  0.00000000000E+00  0.00000000000E+00  0.31352363839E+03  0.31352363839E+03  0.00000000000E+00 0.  1.
          1   -1    0    0  501    0 -0.00000000000E+00 -0.00000000000E+00 -0.30821991323E+03  0.30821991323E+03  0.00000000000E+00 0. -1.
          2    1    1    2  501    0 -0.64839169854E+02 -0.33123146079E+02  0.28650001072E+02  0.78243742976E+02  0.00000000000E+00 0.  1.
          1    1    1    2  502    0  0.89431890371E+02  0.66238466958E+02 -0.25491623604E+03  0.27815083124E+03  0.00000000000E+00 0. -1.
         22    1    1    2    0    0  0.28280952659E+02  0.47651551973E+01  0.43558005149E+01  0.29008481268E+02  0.00000000000E+00 0. -1.
         22    1    1    2    0    0 -0.52873673176E+02 -0.37880476076E+02  0.22721415961E+03  0.23634049613E+03  0.00000000000E+00 0.  1.
</event>
<event>
 6    1  0.4520414E-005  0.1384134E+03  0.7818608E-02  0.1216063E+00
          2   -1    0    0  502    0  0.00000000000E+00  0.00000000000E+00  0.69979760950E+03  0.69979760950E+03  0.00000000000E+00 0.  1.
          1   -1    0    0  501    0 -0.00000000000E+00 -0.00000000000E+00 -0.25445320418E+03  0.25445320418E+03  0.00000000000E+00 0.  1.
          2    1    1    2  501    0  0.69350509082E+02 -0.10908199158E+03  0.28143462627E+02  0.13228918507E+03  0.00000000000E+00 0.  1.
          1    1    1    2  502    0  0.19122782037E+02  0.29778919782E+02 -0.18850952547E+03  0.19180277904E+03  0.00000000000E+00 0.  1.
         22    1    1    2    0    0  0.11604463047E+02 -0.12681355441E+02  0.11698047373E+02  0.20792418108E+02  0.00000000000E+00 0.  1.
         22    1    1    2    0    0 -0.10007775417E+03  0.91984427238E+02  0.59401242079E+03  0.60936643145E+03  0.00000000000E+00 0.  1.
</event>
<event>
 6    1  0.2809573E-005  0.2243681E+03  0.7818608E-02  0.1185978E+00
          2   -1    0    0  502    0  0.00000000000E+00  0.00000000000E+00  0.12341081787E+03  0.12341081787E+03  0.00000000000E+00 0. -1.
          1   -1    0    0  501    0 -0.00000000000E+00 -0.00000000000E+00 -0.86892291675E+03  0.86892291675E+03  0.00000000000E+00 0. -1.
          2    1    1    2  501    0  0.57744597298E+02  0.85816970683E+02 -0.12358429821E+03  0.16115852363E+03  0.00000000000E+00 0. -1.
          1    1    1    2  502    0 -0.16321026289E+03 -0.18081478453E+03 -0.59255771650E+03  0.64066857547E+03  0.00000000000E+00 0. -1.
         22    1    1    2    0    0  0.33289285837E+02  0.51867969584E+02  0.46538954211E+02  0.77229120669E+02  0.00000000000E+00 0. -1.
         22    1    1    2    0    0  0.72176379756E+02  0.43129844262E+02 -0.75909038380E+02  0.11327751484E+03  0.00000000000E+00 0. -1.
</event>
<event>
 6    1  0.2809573E-005  0.9133828E+02  0.7818608E-02  0.1304784E+00
          2   -1    0    0  502    0  0.00000000000E+00  0.00000000000E+00  0.88872744024E+03  0.88872744024E+03  0.00000000000E+00 0. -1.
          1   -1    0    0  501    0 -0.00000000000E+00 -0.00000000000E+00 -0.51506160892E+03  0.51506160892E+03  0.00000000000E+00 0.  1.
          2    1    1    2  501    0 -0.15664799041E+02  0.61490877784E+02  0.21238971743E+03  0.22166620413E+03  0.00000000000E+00 0. -1.
          1    1    1    2  502    0 -0.16743313079E+01 -0.49946621570E+02 -0.50364017906E+03  0.50611352318E+03  0.00000000000E+00 0.  1.
         22    1    1    2    0    0  0.14818206266E+02 -0.65688272689E+02  0.34023799372E+03  0.34683774416E+03  0.00000000000E+00 0. -1.
         22    1    1    2    0    0  0.25209240826E+01  0.54144016474E+02  0.32467829922E+03  0.32917157769E+03  0.00000000000E+00 0. -1.
</event>
<event>
 6    1  0.2809573E-005  0.8777823E+02  0.7818608E-02  0.1371344E+00
          2   -1    0    0  502    0  0.00000000000E+00  0.00000000000E+00  0.19423615531E+03  0.19423615531E+03  0.00000000000E+00 0.  1.
          1   -1    0    0  501    0 -0.00000000000E+00 -0.00000000000E+00 -0.93246302707E+03  0.93246302707E+03  0.00000000000E+00 0.  1.
          2    1    1    2  501    0  0.36857654875E+02  0.40652409461E+02  0.14918336929E+02  0.56865296048E+02  0.00000000000E+00 0.  1.
          1    1    1    2  502    0  0.15611989590E+02 -0.26638670507E+02 -0.88363203086E+03  0.88417131765E+03  0.00000000000E+00 0.  1.
         22    1    1    2    0    0 -0.36706745818E+02  0.10840952664E+02 -0.12044246215E+02  0.40124497630E+02  0.00000000000E+00 0.  1.
         22    1    1    2    0    0 -0.15762898648E+02 -0.24854691618E+02  0.14253106839E+03  0.14553807105E+03  0.00000000000E+00 0.  1.
</event>
<event>
 6    1  0.2809573E-005  0.7189200E+02  0.7818608E-02  0.1454200E+00
          2   -1    0    0  502    0  0.00000000000E+00  0.00000000000E+00  0.57913543834E+02  0.57913543834E+02  0.00000000000E+00 0. -1.
          1   -1    0    0  501    0 -0.00000000000E+00 -0.00000000000E+00 -0.41606004587E+03  0.41606004587E+03  0.00000000000E+00 0.  1.
          2    1    1    2  501    0 -0.39287280707E+02 -0.20726088852E+02 -0.17950625969E+03  0.18492041113E+03  0.00000000000E+00 0. -1.
          1    1    1    2  502    0  0.33067992442E+02  0.46651493667E+02 -0.14774662764E+03  0.15842638658E+03  0.00000000000E+00 0.  1.
         22    1    1    2    0    0 -0.10613238245E+02 -0.10259757726E+02  0.47076531306E+02  0.49336631973E+02  0.00000000000E+00 0. -1.
         22    1    1    2    0    0  0.16832526510E+02 -0.15665647090E+02 -0.77970146003E+02  0.81290160015E+02  0.00000000000E+00 0. -1.
</event>
<event>
 6    1  0.2809573E-005  0.1083114E+03  0.7818608E-02  0.1299046E+00
          2   -1    0    0  502    0  0.00000000000E+00  0.00000000000E+00  0.33756004037E+03  0.33756004037E+03  0.00000000000E+00 0. -1.
          1   -1    0    0  501    0 -0.00000000000E+00 -0.00000000000E+00 -0.30856502209E+03  0.30856502209E+03  0.00000000000E+00 0. -1.
          2    1    1    2  501    0  0.36581578474E+02  0.53548103414E+02  0.29493705796E+02  0.71242472897E+02  0.00000000000E+00 0. -1.
          1    1    1    2  502    0 -0.38459093758E+02 -0.84217055708E+02 -0.26521702028E+03  0.28091223222E+03  0.00000000000E+00 0. -1.
         22    1    1    2    0    0  0.57057386461E+02  0.25940005211E+02  0.83043312140E+02  0.10404143843E+03  0.00000000000E+00 0. -1.
         22    1    1    2    0    0 -0.55179871178E+02  0.47289470827E+01  0.18167502062E+03  0.18992891892E+03  0.00000000000E+00 0. -1.
</event>
<event>
 6    1  0.2809573E-005  0.5942911E+02  0.7818608E-02  0.1425747E+00
          2   -1    0    0  502    0  0.00000000000E+00  0.00000000000E+00  0.19419428380E+03  0.19419428380E+03  0.00000000000E+00 0.  1.
          1   -1    0    0  501    0 -0.00000000000E+00 -0.00000000000E+00 -0.13007807010E+03  0.13007807010E+03  0.00000000000E+00 0.  1.
          2    1    1    2  501    0 -0.33368398422E+01  0.20185147460E+02 -0.18038376927E+02  0.27275588358E+02  0.00000000000E+00 0.  1.
          1    1    1    2  502    0  0.24392041435E+02 -0.73071752277E+02 -0.61876615558E+02  0.98808745661E+02  0.00000000000E+00 0.  1.
         22    1    1    2    0    0 -0.23876695743E+02  0.13002293188E+02 -0.17134582211E+02  0.32136430034E+02  0.00000000000E+00 0.  1.
         22    1    1    2    0    0  0.28214941501E+01  0.39884311628E+02  0.16116578840E+03  0.16605158985E+03  0.00000000000E+00 0.  1.
</event>
<event>
 6    1  0.2809573E-005  0.1201427E+03  0.7818608E-02  0.1313846E+00
          2   -1    0    0  502    0  0.00000000000E+00  0.00000000000E+00  0.11918837727E+03  0.11918837727E+03  0.00000000000E+00 0.  1.
          1   -1    0    0  501    0 -0.00000000000E+00 -0.00000000000E+00 -0.24017727013E+03  0.24017727013E+03  0.00000000000E+00 0.  1.
          2    1    1    2  501    0  0.12297718271E+01  0.30138283537E+02 -0.14041811650E+02  0.33271623761E+02  0.00000000000E+00 0.  1.
          1    1    1    2  502    0 -0.63081738986E+02 -0.73876186342E+02 -0.14900850254E+03  0.17787785284E+03  0.00000000000E+00 0.  1.
         22    1    1    2    0    0  0.91943927922E+02  0.51078074885E+02  0.13424675004E+02  0.10603243614E+03  0.00000000000E+00 0.  1.
         22    1    1    2    0    0 -0.30091960762E+02 -0.73401720798E+01  0.28636746325E+02  0.42183734647E+02  0.00000000000E+00 0.  1.
</event>
<event>
 6    1  0.2809573E-005  0.2018927E+03  0.7818608E-02  0.1169346E+00
          2   -1    0    0  502    0  0.00000000000E+00  0.00000000000E+00  0.34429676343E+03  0.34429676343E+03  0.00000000000E+00 0.  1.
          1   -1    0    0  501    0 -0.00000000000E+00 -0.00000000000E+00 -0.29353393095E+03  0.29353393095E+03  0.00000000000E+00 0. -1.
          2    1    1    2  501    0 -0.66840706151E+02 -0.14466219762E+03  0.11002154314E+03  0.19364806060E+03  0.00000000000E+00 0.  1.
          1    1    1    2  502    0 -0.16497391352E+02  0.26709764479E+02 -0.20373384989E+03  0.20613844142E+03  0.00000000000E+00 0. -1.
         22    1    1    2    0    0  0.50095620931E+02  0.10810311538E+03  0.16046631768E+03  0.19986318796E+03  0.00000000000E+00 0.  1.
         22    1    1    2    0    0  0.33242476572E+02  0.98493177584E+01 -0.15991178450E+02  0.38181004402E+02  0.00000000000E+00 0.  1.
</event>
<event>
 6    1  0.2809573E-005  0.1043496E+03  0.7818608E-02  0.1282754E+00
          2   -1    0    0  502    0  0.00000000000E+00  0.00000000000E+00  0.28255867284E+02  0.28255867284E+02  0.00000000000E+00 0. -1.
          1   -1    0    0  501    0 -0.00000000000E+00 -0.00000000000E+00 -0.11044444486E+04  0.11044444486E+04  0.00000000000E+00 0.  1.
          2    1    1    2  501    0  0.23621599990E+02 -0.55771004878E+02 -0.17252069475E+03  0.18284358093E+03  0.00000000000E+00 0. -1.
          1    1    1    2  502    0 -0.31469841376E+02  0.36521841477E+02 -0.74695298372E+03  0.74850715140E+03  0.00000000000E+00 0.  1.
         22    1    1    2    0    0 -0.21842792625E+01  0.70136166835E+02 -0.11531320817E+03  0.13498514346E+03  0.00000000000E+00 0.  1.
         22    1    1    2    0    0  0.10032520648E+02 -0.50887003434E+02 -0.41401694719E+02  0.66364440136E+02  0.00000000000E+00 0. -1.
</event>
<event>
 6    1  0.2809573E-005  0.5648608E+02  0.7818608E-02  0.1435050E+00
          2   -1    0    0  502    0  0.00000000000E+00  0.00000000000E+00  0.12705552020E+03  0.12705552020E+03  0.00000000000E+00 0. -1.
          1   -1    0    0  501    0 -0.00000000000E+00 -0.00000000000E+00 -0.13122963494E+03  0.13122963494E+03  0.00000000000E+00 0. -1.
          2    1    1    2  501    0  0.30936842381E+02  0.27163536749E+01 -0.43220417725E+02  0.53220966753E+02  0.00000000000E+00 0. -1.
          1    1    1    2  502    0 -0.52394392083E+02  0.30599516055E+02  0.33396528203E+02  0.69259156799E+02  0.00000000000E+00 0. -1.
         22    1    1    2    0    0 -0.28188198512E+01 -0.40344202198E+02  0.62012805373E+02  0.74035048636E+02  0.00000000000E+00 0. -1.
         22    1    1    2    0    0  0.24276369553E+02  0.70283324682E+01 -0.56363030594E+02  0.61769982951E+02  0.00000000000E+00 0. -1.
</event>
<event>
 6    1  0.2809573E-005  0.9851310E+02  0.7818608E-02  0.1345509E+00
          2   -1    0    0  502    0  0.00000000000E+00  0.00000000000E+00  0.78384697022E+02  0.78384697022E+02  0.00000000000E+00 0.  1.
          1   -1    0    0  501    0 -0.00000000000E+00 -0.00000000000E+00 -0.22422764594E+03  0.22422764594E+03  0.00000000000E+00 0.  1.
          2    1    1    2  501    0 -0.25869102700E+02 -0.30897882087E+02 -0.13692514456E+03  0.14273186331E+03  0.00000000000E+00 0.  1.
          1    1    1    2  502    0  0.20796037900E+02 -0.87938348888E+01 -0.19901922557E+02  0.30098060500E+02  0.00000000000E+00 0.  1.
         22    1    1    2    0    0  0.31410914450E+02 -0.43079443232E+01  0.54152696183E+02  0.62751242496E+02  0.00000000000E+00 0.  1.
         22    1    1    2    0    0 -0.26337849651E+02  0.43999661299E+02 -0.43168577990E+02  0.67031176659E+02  0.00000000000E+00 0.  1.
</event>
<event>
 6    1  0.2809573E-005  0.1666565E+03  0.7818608E-02  0.1238102E+00
          2   -1    0    0  502    0  0.00000000000E+00  0.00000000000E+00  0.55637199088E+03  0.55637199088E+03  0.00000000000E+00 0. -1.
          1   -1    0    0  501    0 -0.00000000000E+00 -0.00000000000E+00 -0.21642305135E+03  0.21642305135E+03  0.00000000000E+00 0. -1.
          2    1    1    2  501    0 -0.73001011934E+02  0.10977806602E+03  0.28640716191E+03  0.31529261634E+03  0.00000000000E+00 0. -1.
          1    1    1    2  502    0  0.10521928289E+03 -0.10432998298E+03 -0.15478282227E+03  0.21427450831E+03  0.00000000000E+00 0. -1.
         22    1    1    2    0    0 -0.69706481697E+02  0.26992696205E+02  0.10830872158E+03  0.13159931007E+03  0.00000000000E+00 0.  1.
         22    1    1    2    0    0  0.37488210741E+02 -0.32440779242E+02  0.10001587830E+03  0.11162860751E+03  0.00000000000E+00 0. -1.
</event>
<event>
 6    1  0.2809573E-005  0.1150304E+03  0.7818608E-02  0.1315132E+00
          2   -1    0    0  502    0  0.00000000000E+00  0.00000000000E+00  0.15758492401E+03  0.15758492401E+03  0.00000000000E+00 0. -1.
          1   -1    0    0  501    0 -0.00000000000E+00 -0.00000000000E+00 -0.97661221766E+02  0.97661221766E+02  0.00000000000E+00 0. -1.
          2    1    1    2  501    0 -0.24946584830E+02  0.29627546210E+01  0.34598443380E+02  0.42757014558E+02  0.00000000000E+00 0. -1.
          1    1    1    2  502    0 -0.42016578555E+02 -0.35693970078E+01 -0.35037648079E+02  0.54824905393E+02  0.00000000000E+00 0. -1.
         22    1    1    2    0    0 -0.12568473795E+02 -0.32109671950E+02  0.62786712458E+02  0.71632177320E+02  0.00000000000E+00 0. -1.
         22    1    1    2    0    0  0.79531637179E+02  0.32716314337E+02 -0.24238055187E+01  0.86032048502E+02  0.00000000000E+00 0. -1.
</event>
<event>
 6    1  0.2809573E-005  0.9213387E+02  0.7818608E-02  0.1300608E+00
          2   -1    0    0  502    0  0.00000000000E+00  0.00000000000E+00  0.66649898490E+02  0.66649898490E+02  0.00000000000E+00 0.  1.
          1   -1    0    0  501    0 -0.00000000000E+00 -0.00000000000E+00 -0.16804393986E+03  0.16804393986E+03  0.00000000000E+00 0.  1.
          2    1    1    2  501    0 -0.38592292710E+01 -0.53422739974E+02 -0.27420606127E+01  0.53632095739E+02  0.00000000000E+00 0.  1.
          1    1    1    2  502    0  0.27105627807E+01  0.20064402728E+02 -0.12403963649E+02  0.23744172372E+02  0.00000000000E+00 0.  1.
         22    1    1    2    0    0  0.29256019480E+02  0.68628374018E+02 -0.83733682352E+02  0.11214766140E+03  0.00000000000E+00 0.  1.
         22    1    1    2    0    0 -0.28107352990E+02 -0.35270036772E+02 -0.25143347596E+01  0.45169908847E+02  0.00000000000E+00 0.  1.
</event>
<event>
 6    1  0.2809573E-005  0.8139574E+02  0.7818608E-02  0.1378499E+00
          2   -1    0    0  502    0  0.00000000000E+00  0.00000000000E+00  0.26053787316E+02  0.26053787316E+02  0.00000000000E+00 0.  1.
          1   -1    0    0  501    0 -0.00000000000E+00 -0.00000000000E+00 -0.64287000529E+03  0.64287000529E+03  0.00000000000E+00 0.  1.
          2    1    1    2  501    0 -0.17409847282E+02  0.35538083803E+02 -0.25566629975E+03  0.25871087145E+03  0.00000000000E+00 0.  1.
          1    1    1    2  502    0 -0.13870942430E+02  0.14916271264E+02 -0.19334233423E+03  0.19441233602E+03  0.00000000000E+00 0.  1.
         22    1    1    2    0    0 -0.23488707893E+01 -0.33119154808E+02  0.94733105898E+01  0.34527369184E+02  0.00000000000E+00 0.  1.
         22    1    1    2    0    0  0.33629660501E+02 -0.17335200258E+02 -0.17728089459E+03  0.18127321595E+03  0.00000000000E+00 0.  1.
</event>
<event>
 6    1  0.2809573E-005  0.1570367E+03  0.7818608E-02  0.1244838E+00
          2   -1    0    0  502    0  0.00000000000E+00  0.00000000000E+00  0.30055665161E+03  0.30055665161E+03  0.00000000000E+00 0.  1.
          1   -1    0    0  501    0 -0.00000000000E+00 -0.00000000000E+00 -0.24768318419E+03  0.24768318419E+03  0.00000000000E+00 0. -1.
          2    1    1    2  501    0  0.41450802960E+02 -0.67041234948E+02  0.54130624952E+02  0.95618098742E+02  0.00000000000E+00 0.  1.
          1    1    1    2  502    0 -0.57256922344E+02  0.28811815674E+02 -0.20155257299E+03  0.21149920936E+03  0.00000000000E+00 0. -1.
         22    1    1    2    0    0 -0.52247546622E+02  0.33752119251E+02  0.12441268869E+03  0.13909539457E+03  0.00000000000E+00 0.  1.
         22    1    1    2    0    0  0.68053666007E+02  0.44773000230E+01  0.75882726770E+02  0.10202713313E+03  0.00000000000E+00 0.  1.
</event>
<event>
 6    1  0.2809573E-005  0.1624252E+03  0.7818608E-02  0.1252171E+00
          2   -1    0    0  502    0  0.00000000000E+00  0.00000000000E+00  0.22458395360E+03  0.22458395360E+03  0.00000000000E+00 0. -1.
          1   -1    0    0  501    0 -0.00000000000E+00 -0.00000000000E+00 -0.68547977344E+03  0.68547977344E+03  0.00000000000E+00 0.  1.
          2    1    1    2  501    0 -0.84562741357E+02  0.10507424713E+02  0.39506935550E+02  0.93925827951E+02  0.00000000000E+00 0. -1.
          1    1    1    2  502    0  0.12577155188E+03 -0.90834666327E+02 -0.61044772067E+03  0.62985382394E+03  0.00000000000E+00 0.  1.
         22    1    1    2    0    0 -0.67110819448E+02  0.49402463150E+02  0.17249763790E+02  0.85100057597E+02  0.00000000000E+00 0. -1.
         22    1    1    2    0    0  0.25902008928E+02  0.30924778465E+02  0.92795201489E+02  0.10118401756E+03  0.00000000000E+00 0. -1.
</event>
<event>
 6    1  0.2809573E-005  0.1891218E+03  0.7818608E-02  0.1241205E+00
          2   -1    0    0  502    0  0.00000000000E+00  0.00000000000E+00  0.20816969708E+03  0.20816969708E+03  0.00000000000E+00 0.  1.
          1   -1    0    0  501    0 -0.00000000000E+00 -0.00000000000E+00 -0.69206318382E+03  0.69206318382E+03  0.00000000000E+00 0. -1.
          2    1    1    2  501    0 -0.32197972429E+02  0.11223322768E+03 -0.55591195052E+02  0.12931893825E+03  0.00000000000E+00 0.  1.
          1    1    1    2  502    0  0.36647026034E+02 -0.18005894814E+03 -0.55187820278E+03  0.58166466286E+03  0.00000000000E+00 0. -1.
         22    1    1    2    0    0 -0.26253128903E+02  0.18035344394E+02  0.13061282706E+03  0.13444036230E+03  0.00000000000E+00 0.  1.
         22    1    1    2    0    0  0.21804075298E+02  0.49790376073E+02 -0.70369159689E+01  0.54808917481E+02  0.00000000000E+00 0. -1.
</event>
<event>
 6    1  0.2809573E-005  0.1072782E+03  0.7818608E-02  0.1363028E+00
          2   -1    0    0  502    0  0.00000000000E+00  0.00000000000E+00  0.10134383038E+03  0.10134383038E+03  0.00000000000E+00 0.  1.
          1   -1    0    0  501    0 -0.00000000000E+00 -0.00000000000E+00 -0.43643194758E+03  0.43643194758E+03  0.00000000000E+00 0.  1.
          2    1    1    2  501    0  0.61572683273E+02  0.12870454542E+02 -0.66427065664E+02  0.91484419320E+02  0.00000000000E+00 0.  1.
          1    1    1    2  502    0 -0.10896439245E+03  0.87743580614E+01 -0.28728536561E+03  0.30738104931E+03  0.00000000000E+00 0.  1.
         22    1    1    2    0    0  0.34448208570E+02 -0.84081086194E+01 -0.53646193157E+02  0.64306215908E+02  0.00000000000E+00 0. -1.
         22    1    1    2    0    0  0.12943500605E+02 -0.13236703984E+02  0.72270507232E+02  0.74604093426E+02  0.00000000000E+00 0.  1.
</event>
<event>
 6    1  0.2809573E-005  0.1347115E+03  0.7818608E-02  0.1261698E+00
          2   -1    0    0  502    0  0.00000000000E+00  0.00000000000E+00  0.60077740469E+03  0.60077740469E+03  0.00000000000E+00 0.  1.
          1   -1    0    0  501    0 -0.00000000000E+00 -0.00000000000E+00 -0.58511636953E+02  0.58511636953E+02  0.00000000000E+00 0. -1.
          2    1    1    2  501    0  0.92241903041E+01  0.35536958142E+02  0.13824638913E+03  0.14303854441E+03  0.00000000000E+00 0.  1.
          1    1    1    2  502    0  0.83259726407E+02 -0.12327175019E+02  0.15567539636E+01  0.84181736548E+02  0.00000000000E+00 0. -1.
         22    1    1    2    0    0 -0.51642023846E+02 -0.65203873469E+02  0.32182081347E+03  0.33239596828E+03  0.00000000000E+00 0.  1.
         22    1    1    2    0    0 -0.40841892866E+02  0.41994090345E+02  0.80641811176E+02  0.99672792409E+02  0.00000000000E+00 0.  1.
</event>
<event>
 6    1  0.2809573E-005  0.3352079E+03  0.7818608E-02  0.1095659E+00
          2   -1    0    0  502    0  0.00000000000E+00  0.00000000000E+00  0.29767432665E+03  0.29767432665E+03  0.00000000000E+00 0. -1.
          1   -1    0    0  501    0 -0.00000000000E+00 -0.00000000000E+00 -0.12372852225E+04  0.12372852225E+04  0.00000000000E+00 0. -1.
          2    1    1    2  501    0 -0.29187564857E+03 -0.20003786540E+02 -0.76037496128E+03  0.81471567276E+03  0.00000000000E+00 0. -1.
          1    1    1    2  502    0  0.37227071533E+03 -0.14550472285E+03 -0.26520393932E+03  0.47967722407E+03  0.00000000000E+00 0. -1.
         22    1    1    2    0    0 -0.19594664619E+02  0.13932798727E+02 -0.31330331777E+02  0.39492574633E+02  0.00000000000E+00 0.  1.
         22    1    1    2    0    0 -0.60800402140E+02  0.15157571066E+03  0.11729833653E+03  0.20107407768E+03  0.00000000000E+00 0. -1.
</event>
<event>
 6    1  0.2809573E-005  0.8661997E+02  0.7818608E-02  0.1314492E+00
          2   -1    0    0  502    0  0.00000000000E+00  0.00000000000E+00  0.64040600684E+03  0.64040600684E+03  0.00000000000E+00 0.  1.
          1   -1    0    0  501    0 -0.00000000000E+00 -0.00000000000E+00 -0.10765334371E+04  0.10765334371E+04  0.00000000000E+00 0. -1.
          2    1    1    2  501    0 -0.62154358005E+01  0.54358447131E+02  0.12990487867E+03  0.14095655330E+03  0.00000000000E+00 0.  1.
          1    1    1    2  502    0  0.18446211281E+02 -0.20507982789E+02 -0.10626463567E+04  0.10630042895E+04  0.00000000000E+00 0. -1.
         22    1    1    2    0    0 -0.30160701761E+02  0.38799213087E+02  0.13407633651E+03  0.14279884761E+03  0.00000000000E+00 0.  1.
         22    1    1    2    0    0  0.17929926281E+02 -0.72649677429E+02  0.36253771122E+03  0.37017975356E+03  0.00000000000E+00 0. -1.
</event>
<event>
 6    1  0.2809573E-005  0.2327329E+03  0.7818608E-02  0.1239420E+00
          2   -1    0    0  502    0  0.00000000000E+00  0.00000000000E+00  0.25433585257E+03  0.25433585257E+03  0.00000000000E+00 0. -1.
          1   -1    0    0  501    0 -0.00000000000E+00 -0.00000000000E+00 -0.14521279657E+03  0.14521279657E+03  0.00000000000E+00 0.  1.
          2    1    1    2  501    0 -0.75111453114E+02 -0.45681568094E+02  0.16695149809E+02  0.89483317326E+02  0.00000000000E+00 0. -1.
          1    1    1    2  502    0 -0.57056255314E+02 -0.21529134369E+01 -0.49833430759E+02  0.75785368825E+02  0.00000000000E+00 0.  1.
         22    1    1    2    0    0  0.53016045389E+01 -0.16910743862E+02  0.74447866739E+02  0.76528198271E+02  0.00000000000E+00 0. -1.
         22    1    1    2    0    0  0.12686610389E+03  0.64745225394E+02  0.67813470212E+02  0.15775176471E+03  0.00000000000E+00 0. -1.
</event>
<event>
 6    1  0.2809573E-005  0.3448567E+03  0.7818608E-02  0.1158060E+00
          2   -1    0    0  502    0  0.00000000000E+00  0.00000000000E+00  0.16891313365E+03  0.16891313365E+03  0.00000000000E+00 0. -1.
          1   -1    0    0  501    0 -0.00000000000E+00 -0.00000000000E+00 -0.95326350491E+03  0.95326350491E+03  0.00000000000E+00 0. -1.
          2    1    1    2  501    0  0.58020683383E+02 -0.23752823446E+03 -0.45303815744E+03  0.51481028930E+03  0.00000000000E+00 0. -1.
          1    1    1    2  502    0 -0.26458482067E+02  0.33388702265E+03 -0.28880956533E+03  0.44225734611E+03  0.00000000000E+00 0. -1.
         22    1    1    2    0    0 -0.58636852367E+00 -0.88033660051E+02 -0.77748939933E+02  0.11745282794E+03  0.00000000000E+00 0. -1.
         22    1    1    2    0    0 -0.30975832793E+02 -0.83251281299E+01  0.35246291441E+02  0.47656175213E+02  0.00000000000E+00 0. -1.
</event>
<event>
 6    1  0.2809573E-005  0.9723711E+02  0.7818608E-02  0.1312400E+00
          2   -1    0    0  502    0  0.00000000000E+00  0.00000000000E+00  0.49288547714E+02  0.49288547714E+02  0.00000000000E+00 0. -1.
          1   -1    0    0  501    0 -0.00000000000E+00 -0.00000000000E+00 -0.12263237961E+04  0.12263237961E+04  0.00000000000E+00 0.  1.
          2    1    1    2  501    0  0.30840397470E+02  0.47134540526E+02 -0.19619199279E+03  0.20411784112E+03  0.00000000000E+00 0. -1.
          1    1    1    2  502    0 -0.20616900658E+02 -0.93821520086E+02 -0.91883571712E+03  0.92384339001E+03  0.00000000000E+00 0.  1.
         22    1    1    2    0    0  0.33167732191E+02  0.52903637727E+01 -0.78559526112E+02  0.85438197257E+02  0.00000000000E+00 0. -1.
         22    1    1    2    0    0 -0.43391229003E+02  0.41396615788E+02  0.16551987622E+02  0.62212915438E+02  0.00000000000E+00 0. -1.
</event>
<event>
 6    1  0.2809573E-005  0.9381768E+02  0.7818608E-02  0.1294952E+00
          2   -1    0    0  502    0  0.00000000000E+00  0.00000000000E+00  0.10371719895E+04  0.10371719895E+04  0.00000000000E+00 0.  1.
          1   -1    0    0  501    0 -0.00000000000E+00 -0.00000000000E+00 -0.19616013429E+03  0.19616013429E+03  0.00000000000E+00 0. -1.
          2    1    1    2  501    0 -0.20085282040E+01 -0.45717427590E+02  0.20245335104E+03  0.20756077837E+03  0.00000000000E+00 0.  1.
          1    1    1    2  502    0 -0.45001950347E+02 -0.21478662249E+02 -0.18388768789E+03  0.19052871234E+03  0.00000000000E+00 0. -1.
         22    1    1    2    0    0  0.32757661572E+02  0.10235317548E+03  0.62833860376E+03  0.63746265608E+03  0.00000000000E+00 0.  1.
         22    1    1    2    0    0  0.14252816979E+02 -0.35157085638E+02  0.19410758831E+03  0.19777997700E+03  0.00000000000E+00 0.  1.
</event>
<event>
 6    1  0.2809573E-005  0.1205177E+03  0.7818608E-02  0.1247621E+00
          2   -1    0    0  502    0  0.00000000000E+00  0.00000000000E+00  0.31446269252E+03  0.31446269252E+03  0.00000000000E+00 0. -1.
          1   -1    0    0  501    0 -0.00000000000E+00 -0.00000000000E+00 -0.75496350298E+03  0.75496350298E+03  0.00000000000E+00 0. -1.
          2    1    1    2  501    0  0.37551434859E+02  0.81919185316E+02 -0.33358017431E+02  0.96091729663E+02  0.00000000000E+00 0. -1.
          1    1    1    2  502    0 -0.10386020231E+03  0.28752855468E+02 -0.65618367158E+03  0.66497419437E+03  0.00000000000E+00 0. -1.
         22    1    1    2    0    0  0.19666078432E+02 -0.38753889646E+01 -0.11382689962E+02  0.23050789820E+02  0.00000000000E+00 0.  1.
         22    1    1    2    0    0  0.46642689018E+02 -0.10679665182E+03  0.26042356852E+03  0.28530948165E+03  0.00000000000E+00 0. -1.
</event>
<event>
 6    1  0.2809573E-005  0.1997494E+03  0.7818608E-02  0.1159475E+00
          2   -1    0    0  502    0  0.00000000000E+00  0.00000000000E+00  0.54192010129E+03  0.54192010129E+03  0.00000000000E+00 0.  1.
          1   -1    0    0  501    0 -0.00000000000E+00 -0.00000000000E+00 -0.29789083713E+03  0.29789083713E+03  0.00000000000E+00 0.  1.
          2    1    1    2  501    0  0.87156307331E+01  0.16604034419E+03  0.15624103922E+03  0.22815919980E+03  0.00000000000E+00 0.  1.
          1    1    1    2  502    0 -0.31362292589E+02 -0.18790392005E+02 -0.23296275022E+03  0.23581415398E+03  0.00000000000E+00 0.  1.
         22    1    1    2    0    0  0.44134260166E+02  0.28808177029E+01  0.72823022746E+02  0.85201670599E+02  0.00000000000E+00 0.  1.
         22    1    1    2    0    0 -0.21487598310E+02 -0.15013076989E+03  0.24792795240E+03  0.29063591404E+03  0.00000000000E+00 0.  1.
</event>
<event>
 6    1  0.2809573E-005  0.2053078E+03  0.7818608E-02  0.1212973E+00
          2   -1    0    0  502    0  0.00000000000E+00  0.00000000000E+00  0.48063615209E+03  0.48063615209E+03  0.00000000000E+00 0. -1.
          1   -1    0    0  501    0 -0.00000000000E+00 -0.00000000000E+00 -0.29305858598E+03  0.29305858598E+03  0.00000000000E+00 0. -1.
          2    1    1    2  501    0 -0.12178366267E+02 -0.39465213586E+02 -0.76291388128E+01  0.42000231515E+02  0.00000000000E+00 0. -1.
          1    1    1    2  502    0  0.22914782711E+01  0.21660043972E+02 -0.25959412376E+03  0.26050627146E+03  0.00000000000E+00 0. -1.
         22    1    1    2    0    0 -0.36726420030E+01 -0.47853496855E+02  0.11131970428E+03  0.12122508825E+03  0.00000000000E+00 0. -1.
         22    1    1    2    0    0  0.13559529998E+02  0.65658666468E+02  0.34348112441E+03  0.34996314686E+03  0.00000000000E+00 0. -1.
</event>
<event>
 6    1  0.2809573E-005  0.8438834E+02  0.7818608E-02  0.1360407E+00
          2   -1    0    0  502    0  0.00000000000E+00  0.00000000000E+00  0.59375996601E+02  0.59375996601E+02  0.00000000000E+00 0.  1.
          1   -1    0    0  501    0 -0.00000000000E+00 -0.00000000000E+00 -0.25441280936E+03  0.25441280936E+03  0.00000000000E+00 0. -1.
          2    1    1    2  501    0 -0.74091102880E+01  0.33240302630E+02  0.12627377082E+02  0.36321664144E+02  0.00000000000E+00 0.  1.
          1    1    1    2  502    0 -0.10924451762E+02 -0.48918379944E+02 -0.10645073602E+03  0.11766099924E+03  0.00000000000E+00 0. -1.
         22    1    1    2    0    0  0.58058209564E+02  0.16858630393E+02 -0.11302969918E+02  0.61503871793E+02  0.00000000000E+00 0. -1.
         22    1    1    2    0    0 -0.39724647514E+02 -0.11805530790E+01 -0.89910483898E+02  0.98302270780E+02  0.00000000000E+00 0. -1.
</event>
<event>
 6    1  0.2809573E-005  0.1027343E+03  0.7818608E-02  0.1284864E+00
          2   -1    0    0  502    0  0.00000000000E+00  0.00000000000E+00  0.35926146642E+03  0.35926146642E+03  0.00000000000E+00 0.  1.
          1   -1    0    0  501    0 -0.00000000000E+00 -0.00000000000E+00 -0.50723671016E+03  0.50723671016E+03  0.00000000000E+00 0.  1.
          2    1    1    2  501    0  0.40823657196E+01 -0.68210995424E+02  0.65546866952E+02  0.94687894548E+02  0.00000000000E+00 0.  1.
          1    1    1    2  502    0  0.21490505906E+00  0.38525139531E+02 -0.47684202984E+03  0.47839581309E+03  0.00000000000E+00 0.  1.
         22    1    1    2    0    0 -0.38404852171E+02 -0.37298251132E+02  0.94377803017E+02  0.10850466308E+03  0.00000000000E+00 0.  1.
         22    1    1    2    0    0  0.34107581392E+02  0.66984107025E+02  0.16894211613E+03  0.18490980586E+03  0.00000000000E+00 0.  1.
</event>
<event>
 6    1  0.2809573E-005  0.5218426E+02  0.7818608E-02  0.1460438E+00
          2   -1    0    0  502    0  0.00000000000E+00  0.00000000000E+00  0.23321762657E+03  0.23321762657E+03  0.00000000000E+00 0. -1.
          1   -1    0    0  501    0 -0.00000000000E+00 -0.00000000000E+00 -0.14371487018E+03  0.14371487018E+03  0.00000000000E+00 0. -1.
          2    1    1    2  501    0  0.74199439412E+01  0.21798535855E+02 -0.18399948139E+02  0.29475240881E+02  0.00000000000E+00 0. -1.
          1    1    1    2  502    0  0.83377070524E+01 -0.39366684549E+02 -0.96620589797E+02  0.10466514025E+03  0.00000000000E+00 0. -1.
         22    1    1    2    0    0 -0.25764780365E+02 -0.24044330590E+02  0.19601239141E+03  0.19915524429E+03  0.00000000000E+00 0. -1.
         22    1    1    2    0    0  0.10007129371E+02  0.41612479284E+02  0.85109029136E+01  0.43636871323E+02  0.00000000000E+00 0. -1.
</event>
<event>
 6    1  0.2809573E-005  0.2731169E+03  0.7818608E-02  0.1187951E+00
          2   -1    0    0  502    0  0.00000000000E+00  0.00000000000E+00  0.19231162973E+03  0.19231162973E+03  0.00000000000E+00 0. -1.
          1   -1    0    0  501    0 -0.00000000000E+00 -0.00000000000E+00 -0.34932288703E+04  0.34932288703E+04  0.00000000000E+00 0. -1.
          2    1    1    2  501    0  0.84708975996E+02  0.18781289594E+03 -0.54080696145E+02  0.21301177477E+03  0.00000000000E+00 0. -1.
          1    1    1    2  502    0 -0.11889372686E+03 -0.24275880249E+03 -0.33104858511E+04  0.33215032929E+04  0.00000000000E+00 0. -1.
         22    1    1    2    0    0  0.31440500354E+02  0.90056553055E+01  0.91543230621E+02  0.97209927284E+02  0.00000000000E+00 0. -1.
         22    1    1    2    0    0  0.27442505122E+01  0.45940251241E+02 -0.27893924006E+02  0.53815505121E+02  0.00000000000E+00 0. -1.
</event>
<event>
 6    1  0.2809573E-005  0.2738702E+03  0.7818608E-02  0.1162919E+00
          2   -1    0    0  502    0  0.00000000000E+00  0.00000000000E+00  0.56365522229E+03  0.56365522229E+03  0.00000000000E+00 0. -1.
          1   -1    0    0  501    0 -0.00000000000E+00 -0.00000000000E+00 -0.14914857202E+03  0.14914857202E+03  0.00000000000E+00 0. -1.
          2    1    1    2  501    0 -0.12427296820E+03  0.17916381092E+02 -0.93376016303E+02  0.15647315347E+03  0.00000000000E+00 0. -1.
          1    1    1    2  502    0  0.74289959910E+02 -0.40928942991E+02  0.25982095276E+03  0.27331502705E+03  0.00000000000E+00 0. -1.
         22    1    1    2    0    0 -0.14239838253E+02  0.55395961588E+02  0.15622015688E+03  0.16636172327E+03  0.00000000000E+00 0. -1.
         22    1    1    2    0    0  0.64222846548E+02 -0.32383399689E+02  0.91841556925E+02  0.11665389052E+03  0.00000000000E+00 0.  1.
</event>
<event>
 6    1  0.2809573E-005  0.6789266E+02  0.7818608E-02  0.1376729E+00
          2   -1    0    0  502    0  0.00000000000E+00  0.00000000000E+00  0.19550580330E+03  0.19550580330E+03  0.00000000000E+00 0. -1.
          1   -1    0    0  501    0 -0.00000000000E+00 -0.00000000000E+00 -0.53927560782E+02  0.53927560782E+02  0.00000000000E+00 0.  1.
          2    1    1    2  501    0 -0.19442624100E+02  0.34394881891E+02  0.14456472138E+02  0.42071523848E+02  0.00000000000E+00 0. -1.
          1    1    1    2  502    0  0.20634687367E+02 -0.36660689103E+02  0.30354521361E+02  0.51876713613E+02  0.00000000000E+00 0.  1.
         22    1    1    2    0    0 -0.14386306599E+02 -0.50771786384E+02  0.84255821218E+02  0.99417219430E+02  0.00000000000E+00 0. -1.
         22    1    1    2    0    0  0.13194243332E+02  0.53037593595E+02  0.12511427806E+02  0.56067907195E+02  0.00000000000E+00 0. -1.
</event>
<event>
 6    1  0.2809573E-005  0.1036145E+03  0.7818608E-02  0.1355606E+00
          2   -1    0    0  502    0  0.00000000000E+00  0.00000000000E+00  0.17663213943E+03  0.17663213943E+03  0.00000000000E+00 0. -1.
          1   -1    0    0  501    0 -0.00000000000E+00 -0.00000000000E+00 -0.26641921986E+03  0.26641921986E+03  0.00000000000E+00 0. -1.
          2    1    1    2  501    0  0.69559821156E+02  0.40163420928E+02  0.62506962922E+01  0.80565130820E+02  0.00000000000E+00 0. -1.
          1    1    1    2  502    0 -0.85043864801E+02 -0.43559809526E+02 -0.18754844079E+03  0.21048594630E+03  0.00000000000E+00 0. -1.
         22    1    1    2    0    0 -0.14059625026E+02 -0.18555144901E+02  0.10885185560E+03  0.11131348942E+03  0.00000000000E+00 0. -1.
         22    1    1    2    0    0  0.29543668672E+02  0.21951533498E+02 -0.17341191533E+02  0.40686792762E+02  0.00000000000E+00 0.  1.
</event>
<event>
 6    1  0.2809573E-005  0.1348228E+03  0.7818608E-02  0.1252450E+00
          2   -1    0    0  502    0  0.00000000000E+00  0.00000000000E+00  0.50684510010E+03  0.50684510010E+03  0.00000000000E+00 0.  1.
          1   -1    0    0  501    0 -0.00000000000E+00 -0.00000000000E+00 -0.90841803195E+03  0.90841803195E+03  0.00000000000E+00 0. -1.
          2    1    1    2  501    0  0.42635616056E+02 -0.84353843526E+02  0.89406961170E+02  0.13010369472E+03  0.00000000000E+00 0.  1.
          1    1    1    2  502    0 -0.32637981579E+01  0.75858604238E+02 -0.87547207321E+03  0.87875851699E+03  0.00000000000E+00 0. -1.
         22    1    1    2    0    0 -0.70784762773E+01 -0.53771711836E+02  0.23633658632E+03  0.24247986278E+03  0.00000000000E+00 0.  1.
         22    1    1    2    0    0 -0.32293341621E+02  0.62266951125E+02  0.14815559388E+03  0.16392105756E+03  0.00000000000E+00 0. -1.
</event>
<event>
 6    1  0.2809573E-005  0.2782757E+03  0.7818608E-02  0.1129954E+00
          2   -1    0    0  502    0  0.00000000000E+00  0.00000000000E+00  0.43683468795E+03  0.43683468795E+03  0.00000000000E+00 0.  1.
          1   -1    0    0  501    0 -0.00000000000E+00 -0.00000000000E+00 -0.11092446484E+04  0.11092446484E+04  0.00000000000E+00 0. -1.
          2    1    1    2  501    0  0.38076541272E+02  0.10959799629E+03  0.11788333538E+03  0.16540261348E+03  0.00000000000E+00 0.  1.
          1    1    1    2  502    0  0.81405443084E+00 -0.27940866697E+03 -0.10240912448E+04  0.10615237837E+04  0.00000000000E+00 0. -1.
         22    1    1    2    0    0  0.35345102738E+02  0.75933475634E+02  0.15401291868E+03  0.17531442648E+03  0.00000000000E+00 0.  1.
         22    1    1    2    0    0 -0.74235698440E+02  0.93877195045E+02  0.79785030241E+02  0.14383851266E+03  0.00000000000E+00 0.  1.
</event>
<event>
 6    1  0.2809573E-005  0.1319322E+03  0.7818608E-02  0.1361597E+00
          2   -1    0    0  502    0  0.00000000000E+00  0.00000000000E+00  0.76662083116E+02  0.76662083116E+02  0.00000000000E+00 0.  1.
          1   -1    0    0  501    0 -0.00000000000E+00 -0.00000000000E+00 -0.87637979106E+03  0.87637979106E+03  0.00000000000E+00 0. -1.
          2    1    1    2  501    0  0.63880587184E+02 -0.38469816210E+02 -0.57796231324E+02  0.94345431969E+02  0.00000000000E+00 0.  1.
          1    1    1    2  502    0 -0.11779564616E+03  0.37022430792E+02 -0.70574327080E+03  0.71646356426E+03  0.00000000000E+00 0. -1.
         22    1    1    2    0    0  0.63913001777E+02 -0.54619795424E+00 -0.77049718508E+02  0.10010908675E+03  0.00000000000E+00 0. -1.
         22    1    1    2    0    0 -0.99979428022E+01  0.19935833717E+01  0.40871512688E+02  0.42123791192E+02  0.00000000000E+00 0.  1.
</event>
<event>
 6    1  0.2809573E-005  0.5889354E+02  0.7818608E-02  0.1404008E+00
          2   -1    0    0  502    0  0.00000000000E+00  0.00000000000E+00  0.14458496122E+03  0.14458496122E+03  0.00000000000E+00 0.  1.
          1   -1    0    0  501    0 -0.00000000000E+00 -0.00000000000E+00 -0.97517666258E+02  0.97517666258E+02  0.00000000000E+00 0.  1.
          2    1    1    2  501    0  0.28467970073E+01  0.22939197001E+02 -0.21055814946E+02  0.31267528769E+02  0.00000000000E+00 0.  1.
          1    1    1    2  502    0 -0.17577342386E+02  0.14229146884E+02 -0.35392669422E+02  0.42000864696E+02  0.00000000000E+00 0.  1.
         22    1    1    2    0    0  0.15278671460E+02  0.21951160247E+02 -0.18994806449E+02  0.32803870348E+02  0.00000000000E+00 0.  1.
         22    1    1    2    0    0 -0.54812608130E+00 -0.59119504132E+02  0.12251058578E+03  0.13603036367E+03  0.00000000000E+00 0.  1.
</event>
<event>
 6    1  0.2809573E-005  0.1212751E+03  0.7818608E-02  0.1313157E+00
          2   -1    0    0  502    0  0.00000000000E+00  0.00000000000E+00  0.18128607628E+03  0.18128607628E+03  0.00000000000E+00 0.  1.
          1   -1    0    0  501    0 -0.00000000000E+00 -0.00000000000E+00 -0.77333742005E+03  0.77333742005E+03  0.00000000000E+00 0. -1.
          2    1    1    2  501    0 -0.24278061191E+02 -0.72449549417E+02  0.43655007624E+02  0.88000688387E+02  0.00000000000E+00 0.  1.
          1    1    1    2  502    0  0.37153508118E+02  0.99074473221E+02 -0.71277272454E+03  0.72058385442E+03  0.00000000000E+00 0. -1.
         22    1    1    2    0    0 -0.20524098454E+02  0.22549324817E+02  0.89661547507E+02  0.94704296463E+02  0.00000000000E+00 0.  1.
         22    1    1    2    0    0  0.76486515271E+01 -0.49174248621E+02 -0.12595174370E+02  0.51334657056E+02  0.00000000000E+00 0. -1.
</event>
<event>
 6    1  0.2809573E-005  0.2450453E+03  0.7818608E-02  0.1243713E+00
          2   -1    0    0  502    0  0.00000000000E+00  0.00000000000E+00  0.16679798013E+03  0.16679798013E+03  0.00000000000E+00 0. -1.
          1   -1    0    0  501    0 -0.00000000000E+00 -0.00000000000E+00 -0.10347740198E+04  0.10347740198E+04  0.00000000000E+00 0.  1.
          2    1    1    2  501    0  0.15911251843E+02 -0.13742571285E+03  0.46007750909E+02  0.14579337307E+03  0.00000000000E+00 0. -1.
          1    1    1    2  502    0 -0.83217867438E+02  0.10132710508E+03 -0.89762967726E+03  0.90715568299E+03  0.00000000000E+00 0.  1.
         22    1    1    2    0    0 -0.13778226856E+02  0.19687142603E+01  0.41204460109E+02  0.43491641772E+02  0.00000000000E+00 0. -1.
         22    1    1    2    0    0  0.81084842452E+02  0.34129893505E+02 -0.57558573446E+02  0.10513130211E+03  0.00000000000E+00 0. -1.
</event>
<event>
 6    1  0.2809573E-005  0.1771658E+03  0.7818608E-02  0.1231173E+00
          2   -1    0    0  502    0  0.00000000000E+00  0.00000000000E+00  0.99971218223E+03  0.99971218223E+03  0.00000000000E+00 0.  1.
          1   -1    0    0  501    0 -0.00000000000E+00 -0.00000000000E+00 -0.13971826595E+03  0.13971826595E+03  0.00000000000E+00 0. -1.
          2    1    1    2  501    0 -0.51114696728E+02 -0.16757222891E+02  0.33487162819E+03  0.33916444994E+03  0.00000000000E+00 0.  1.
          1    1    1    2  502    0  0.14709195019E+03  0.78174271707E+02 -0.70511848671E+02  0.18088443651E+03  0.00000000000E+00 0. -1.
         22    1    1    2    0    0 -0.30168317652E+02  0.36770148483E+02  0.11545337000E+03  0.12486653616E+03  0.00000000000E+00 0.  1.
         22    1    1    2    0    0 -0.65808935814E+02 -0.98187197298E+02  0.48018076676E+03  0.49451502557E+03  0.00000000000E+00 0.  1.
</event>
<event>
 6    1  0.2809573E-005  0.8870221E+02  0.7818608E-02  0.1370113E+00
          2   -1    0    0  502    0  0.00000000000E+00  0.00000000000E+00  0.34109314425E+03  0.34109314425E+03  0.00000000000E+00 0. -1.
          1   -1    0    0  501    0 -0.00000000000E+00 -0.00000000000E+00 -0.60813655742E+02  0.60813655742E+02  0.00000000000E+00 0. -1.
          2    1    1    2  501    0  0.19586881611E+02  0.39020636403E+02  0.19755368852E+02  0.47922130535E+02  0.00000000000E+00 0. -1.
          1    1    1    2  502    0  0.14191836528E+02 -0.59883727512E+02  0.20207234713E+03  0.21123612977E+03  0.00000000000E+00 0. -1.
         22    1    1    2    0    0 -0.18738306722E+02  0.22274461874E+02  0.97038492012E+02  0.10131014126E+03  0.00000000000E+00 0. -1.
         22    1    1    2    0    0 -0.15040411417E+02 -0.14113707646E+01 -0.38586719489E+02  0.41438398425E+02  0.00000000000E+00 0.  1.
</event>
<event>
 6    1  0.2809573E-005  0.8786774E+02  0.7818608E-02  0.1309222E+00
          2   -1    0    0  502    0  0.00000000000E+00  0.00000000000E+00  0.36015583637E+03  0.36015583637E+03  0.00000000000E+00 0.  1.
          1   -1    0    0  501    0 -0.00000000000E+00 -0.00000000000E+00 -0.24865534428E+03  0.24865534428E+03  0.00000000000E+00 0. -1.
          2    1    1    2  501    0 -0.30864424437E+02 -0.29163633157E+02  0.66344656853E+02  0.78770195428E+02  0.00000000000E+00 0.  1.
          1    1    1    2  502    0 -0.19018903544E+02  0.77665177619E+01 -0.22542572242E+03  0.22635987679E+03  0.00000000000E+00 0. -1.
         22    1    1    2    0    0 -0.30481132441E+02 -0.20809303306E+02  0.33605370118E+02  0.49914401126E+02  0.00000000000E+00 0.  1.
         22    1    1    2    0    0  0.80364460423E+02  0.42206418701E+02  0.23697618754E+03  0.25376670731E+03  0.00000000000E+00 0.  1.
</event>
<event>
 6    1  0.2809573E-005  0.1024034E+03  0.7818608E-02  0.1365159E+00
          2   -1    0    0  502    0  0.00000000000E+00  0.00000000000E+00  0.10371280502E+03  0.10371280502E+03  0.00000000000E+00 0.  1.
          1   -1    0    0  501    0 -0.00000000000E+00 -0.00000000000E+00 -0.51333633524E+03  0.51333633524E+03  0.00000000000E+00 0.  1.
          2    1    1    2  501    0 -0.59697802838E+02 -0.79901979149E+01 -0.17946987300E+03  0.18930691018E+03  0.00000000000E+00 0.  1.
          1    1    1    2  502    0  0.76899647099E+02  0.17741674228E+02 -0.28372954475E+03  0.29450089523E+03  0.00000000000E+00 0.  1.
         22    1    1    2    0    0  0.20538996162E+02  0.27854982424E+00  0.82261228537E+02  0.84787013592E+02  0.00000000000E+00 0.  1.
         22    1    1    2    0    0 -0.37740840423E+02 -0.10030026137E+02 -0.28685341009E+02  0.48454321262E+02  0.00000000000E+00 0.  1.
</event>
<event>
 6    1  0.2809573E-005  0.1410243E+03  0.7818608E-02  0.1222301E+00
          2   -1    0    0  502    0  0.00000000000E+00  0.00000000000E+00  0.17014439204E+03  0.17014439204E+03  0.00000000000E+00 0. -1.
          1   -1    0    0  501    0 -0.00000000000E+00 -0.00000000000E+00 -0.13168834039E+03  0.13168834039E+03  0.00000000000E+00 0. -1.
          2    1    1    2  501    0 -0.10760297534E+03  0.37152149402E+02  0.11872696233E+02  0.11445367369E+03  0.00000000000E+00 0. -1.
          1    1    1    2  502    0  0.31024472378E+02 -0.20617264288E+02 -0.61520088988E+01  0.37754955788E+02  0.00000000000E+00 0. -1.
         22    1    1    2    0    0 -0.24838304145E+02 -0.34931831165E+02  0.75866501019E+01  0.43528512967E+02  0.00000000000E+00 0. -1.
         22    1    1    2    0    0  0.10141680710E+03  0.18396946051E+02  0.25148714207E+02  0.10609558998E+03  0.00000000000E+00 0. -1.
</event>
<event>
 6    1  0.2809573E-005  0.9431833E+02  0.7818608E-02  0.1300126E+00
          2   -1    0    0  502    0  0.00000000000E+00  0.00000000000E+00  0.78826450625E+03  0.78826450625E+03  0.00000000000E+00 0.  1.
          1   -1    0    0  501    0 -0.00000000000E+00 -0.00000000000E+00 -0.22387008172E+02  0.22387008172E+02  0.00000000000E+00 0.  1.
          2    1    1    2  501    0 -0.48922221542E+02  0.26641443535E+02  0.11247407754E+03  0.12551321999E+03  0.00000000000E+00 0.  1.
          1    1    1    2  502    0 -0.20613216278E+02 -0.54544431287E+02  0.15264557161E+03  0.16340339716E+03  0.00000000000E+00 0.  1.
         22    1    1    2    0    0 -0.93436656307E+01  0.50728887030E+02  0.98581840145E+02  0.11126141862E+03  0.00000000000E+00 0.  1.
         22    1    1    2    0    0  0.78879103451E+02 -0.22825899279E+02  0.40217600878E+03  0.41047347865E+03  0.00000000000E+00 0.  1.
</event>
<event>
 6    1  0.2809573E-005  0.1666829E+03  0.7818608E-02  0.1250723E+00
          2   -1    0    0  502    0  0.00000000000E+00  0.00000000000E+00  0.98212109115E+02  0.98212109115E+02  0.00000000000E+00 0.  1.
          1   -1    0    0  501    0 -0.00000000000E+00 -0.00000000000E+00 -0.44077426739E+03  0.44077426739E+03  0.00000000000E+00 0.  1.
          2    1    1    2  501    0  0.69724710368E+01  0.13936762872E+03 -0.19859274993E+03  0.24271594841E+03  0.00000000000E+00 0.  1.
          1    1    1    2  502    0 -0.21616752100E+02 -0.12760147577E+03 -0.81690585500E+02  0.15304500106E+03  0.00000000000E+00 0.  1.
         22    1    1    2    0    0 -0.21834809246E+02  0.28914430461E+00 -0.92060379408E+02  0.94614776626E+02  0.00000000000E+00 0.  1.
         22    1    1    2    0    0  0.36479090310E+02 -0.12055297259E+02  0.29781556565E+02  0.48610650410E+02  0.00000000000E+00 0. -1.
</event>
<event>
 6    1  0.2809573E-005  0.1467419E+03  0.7818608E-02  0.1288091E+00
          2   -1    0    0  502    0  0.00000000000E+00  0.00000000000E+00  0.57689421153E+03  0.57689421153E+03  0.00000000000E+00 0. -1.
          1   -1    0    0  501    0 -0.00000000000E+00 -0.00000000000E+00 -0.23529257533E+03  0.23529257533E+03  0.00000000000E+00 0.  1.
          2    1    1    2  501    0 -0.23803043750E+02  0.32698423807E+02  0.47652489701E+02  0.62502252647E+02  0.00000000000E+00 0. -1.
          1    1    1    2  502    0  0.10294321612E+03 -0.51019386704E+02 -0.20220317830E+03  0.23256484876E+03  0.00000000000E+00 0.  1.
         22    1    1    2    0    0 -0.82131529797E+02  0.45467777795E+02  0.47007836739E+03  0.47936059339E+03  0.00000000000E+00 0. -1.
         22    1    1    2    0    0  0.29913574223E+01 -0.27146814899E+02  0.26073957407E+02  0.37759092060E+02  0.00000000000E+00 0. -1.
</event>
<event>
 6    1  0.2809573E-005  0.7404358E+02  0.7818608E-02  0.1357920E+00
          2   -1    0    0  502    0  0.00000000000E+00  0.00000000000E+00  0.38108107240E+02  0.38108107240E+02  0.00000000000E+00 0.  1.
          1   -1    0    0  501    0 -0.00000000000E+00 -0.00000000000E+00 -0.55279738838E+03  0.55279738838E+03  0.00000000000E+00 0.  1.
          2    1    1    2  501    0 -0.17380129242E+02  0.15907002431E+02 -0.26193869261E+02  0.35230958058E+02  0.00000000000E+00 0.  1.
          1    1    1    2  502    0  0.28507902905E+02 -0.45335444723E+02 -0.38642775457E+03  0.39012102299E+03  0.00000000000E+00 0.  1.
         22    1    1    2    0    0  0.37327048887E+02  0.54079615290E+02 -0.23041861446E+02  0.69633617940E+02  0.00000000000E+00 0.  1.
         22    1    1    2    0    0 -0.48454822549E+02 -0.24651172999E+02 -0.79025795868E+02  0.95919896638E+02  0.00000000000E+00 0.  1.
</event>
<event>
 6    1  0.2809573E-005  0.5363447E+02  0.7818608E-02  0.1498670E+00
          2   -1    0    0  502    0  0.00000000000E+00  0.00000000000E+00  0.63755371891E+02  0.63755371891E+02  0.00000000000E+00 0.  1.
          1   -1    0    0  501    0 -0.00000000000E+00 -0.00000000000E+00 -0.11624147475E+04  0.11624147475E+04  0.00000000000E+00 0. -1.
          2    1    1    2  501    0  0.97474843177E+01  0.22148567153E+02 -0.39445245253E+02  0.46276342234E+02  0.00000000000E+00 0.  1.
          1    1    1    2  502    0 -0.24055565074E+02 -0.44858068277E+02 -0.10465808791E+04  0.10478179484E+04  0.00000000000E+00 0. -1.
         22    1    1    2    0    0 -0.18115414778E+02 -0.54076912915E+01  0.51526686320E+02  0.54885433230E+02  0.00000000000E+00 0.  1.
         22    1    1    2    0    0  0.32423495535E+02  0.28117192416E+02 -0.64159937603E+02  0.77190395551E+02  0.00000000000E+00 0.  1.
</event>
<event>
 6    1  0.2809573E-005  0.1349286E+03  0.7818608E-02  0.1282646E+00
          2   -1    0    0  502    0  0.00000000000E+00  0.00000000000E+00  0.28389706241E+03  0.28389706241E+03  0.00000000000E+00 0.  1.
          1   -1    0    0  501    0 -0.00000000000E+00 -0.00000000000E+00 -0.57955361646E+02  0.57955361646E+02  0.00000000000E+00 0.  1.
          2    1    1    2  501    0 -0.11648417622E+02  0.36677181672E+02  0.33010813577E+00  0.38483896111E+02  0.00000000000E+00 0.  1.
          1    1    1    2  502    0  0.36603999406E+02  0.38632177270E+02  0.71754617067E+02  0.89336571254E+02  0.00000000000E+00 0.  1.
         22    1    1    2    0    0 -0.34329864704E+02  0.18362977671E+02  0.95850502033E+02  0.10345558129E+03  0.00000000000E+00 0. -1.
         22    1    1    2    0    0  0.93742829208E+01 -0.93672336612E+02  0.58006473533E+02  0.11057637541E+03  0.00000000000E+00 0.  1.
</event>
<event>
 6    1  0.2809573E-005  0.1024862E+03  0.7818608E-02  0.1276591E+00
          2   -1    0    0  502    0  0.00000000000E+00  0.00000000000E+00  0.31886116514E+03  0.31886116514E+03  0.00000000000E+00 0.  1.
          1   -1    0    0  501    0 -0.00000000000E+00 -0.00000000000E+00 -0.98808335122E+02  0.98808335122E+02  0.00000000000E+00 0. -1.
          2    1    1    2  501    0  0.32031886741E+02  0.53580851168E+02  0.77896105182E+02  0.99823607342E+02  0.00000000000E+00 0.  1.
          1    1    1    2  502    0  0.47525293216E+02 -0.36796908932E+02 -0.46915326141E+02  0.76247713600E+02  0.00000000000E+00 0. -1.
         22    1    1    2    0    0  0.13160356167E+02  0.35981587365E+02  0.24508676519E+02  0.45481257991E+02  0.00000000000E+00 0.  1.
         22    1    1    2    0    0 -0.92717536125E+02 -0.52765529600E+02  0.16456337445E+03  0.19611692133E+03  0.00000000000E+00 0. -1.
</event>
<event>
 6    1  0.2809573E-005  0.4378884E+03  0.7818608E-02  0.1175039E+00
          2   -1    0    0  502    0  0.00000000000E+00  0.00000000000E+00  0.14263089874E+03  0.14263089874E+03  0.00000000000E+00 0.  1.
          1   -1    0    0  501    0 -0.00000000000E+00 -0.00000000000E+00 -0.15701986434E+04  0.15701986434E+04  0.00000000000E+00 0.  1.
          2    1    1    2  501    0  0.36715576074E+01 -0.10900219169E+03  0.75159831706E+02  0.13245360859E+03  0.00000000000E+00 0.  1.
          1    1    1    2  502    0 -0.27653681800E+02 -0.77007503025E+02 -0.11970617369E+04  0.11998548594E+04  0.00000000000E+00 0.  1.
         22    1    1    2    0    0  0.34485111482E+02  0.18743934781E+03 -0.31381229314E+03  0.36715240343E+03  0.00000000000E+00 0.  1.
         22    1    1    2    0    0 -0.10502987289E+02 -0.14296530956E+01  0.81464536593E+01  0.13368670734E+02  0.00000000000E+00 0.  1.
</event>
<event>
 6    1  0.2809573E-005  0.2725208E+03  0.7818608E-02  0.1193373E+00
          2   -1    0    0  502    0  0.00000000000E+00  0.00000000000E+00  0.11340639230E+03  0.11340639230E+03  0.00000000000E+00 0.  1.
          1   -1    0    0  501    0 -0.00000000000E+00 -0.00000000000E+00 -0.72061431713E+03  0.72061431713E+03  0.00000000000E+00 0. -1.
          2    1    1    2  501    0  0.30274873218E+02  0.17427564276E+02 -0.17108109290E+03  0.17461107723E+03  0.00000000000E+00 0.  1.
          1    1    1    2  502    0  0.13988879622E+03  0.31265813594E+02 -0.41741004305E+03  0.44133611958E+03  0.00000000000E+00 0. -1.
         22    1    1    2    0    0 -0.16566723247E+03 -0.19834603222E+02 -0.51065993153E+02  0.17449005432E+03  0.00000000000E+00 0.  1.
         22    1    1    2    0    0 -0.44964369606E+01 -0.28858774648E+02  0.32349204271E+02  0.43583458290E+02  0.00000000000E+00 0.  1.
</event>
<event>
 6    1  0.2809573E-005  0.6114691E+02  0.7818608E-02  0.1424909E+00
          2   -1    0    0  502    0  0.00000000000E+00  0.00000000000E+00  0.35803883510E+03  0.35803883510E+03  0.00000000000E+00 0. -1.
          1   -1    0    0  501    0 -0.00000000000E+00 -0.00000000000E+00 -0.70336143551E+02  0.70336143551E+02  0.00000000000E+00 0. -1.
          2    1    1    2  501    0 -0.26645151375E+02  0.16484175819E+02  0.92719179726E+02  0.97870007833E+02  0.00000000000E+00 0. -1.
          1    1    1    2  502    0  0.56194605830E+02 -0.10396509088E+02 -0.35644583629E+02  0.67353229081E+02  0.00000000000E+00 0. -1.
         22    1    1    2    0    0  0.21269259615E+01 -0.37119498097E+02  0.10546524046E+02  0.38647252457E+02  0.00000000000E+00 0. -1.
         22    1    1    2    0    0 -0.31676380416E+02  0.31031831366E+02  0.22008157141E+03  0.22450448928E+03  0.00000000000E+00 0. -1.
</event>
<event>
 6    1  0.2809573E-005  0.1968424E+03  0.7818608E-02  0.1218024E+00
          2   -1    0    0  502    0  0.00000000000E+00  0.00000000000E+00  0.53738164701E+02  0.53738164701E+02  0.00000000000E+00 0.  1.
          1   -1    0    0  501    0 -0.00000000000E+00 -0.00000000000E+00 -0.11274273359E+04  0.11274273359E+04  0.00000000000E+00 0.  1.
          2    1    1    2  501    0 -0.43621350468E+01  0.74009939066E+02 -0.82184077848E+02  0.11068297952E+03  0.00000000000E+00 0.  1.
          1    1    1    2  502    0  0.41763632156E+02  0.28192189712E+02 -0.84912669265E+03  0.85062044456E+03  0.00000000000E+00 0.  1.
         22    1    1    2    0    0 -0.41305255878E+02  0.19336444719E+02 -0.32854023508E+02  0.56208621386E+02  0.00000000000E+00 0. -1.
         22    1    1    2    0    0  0.39037587680E+01 -0.12153857350E+03 -0.10952437720E+03  0.16365345514E+03  0.00000000000E+00 0.  1.
</event>
<event>
 6    1  0.2809573E-005  0.1000949E+03  0.7818608E-02  0.1351998E+00
          2   -1    0    0  502    0  0.00000000000E+00  0.00000000000E+00  0.22487563553E+03  0.22487563553E+03  0.00000000000E+00 0.  1.
          1   -1    0    0  501    0 -0.00000000000E+00 -0.00000000000E+00 -0.15130346593E+03  0.15130346593E+03  0.00000000000E+00 0. -1.
          2    1    1    2  501    0 -0.27379597634E+02 -0.16134775397E+01 -0.12689549991E+02  0.30220363256E+02  0.00000000000E+00 0.  1.
          1    1    1    2  502    0 -0.45043257189E+02  0.10561706226E+01 -0.10027273353E+03  0.10993012146E+03  0.00000000000E+00 0. -1.
         22    1    1    2    0    0  0.60231383747E+02  0.25155116074E+02  0.21495041700E+02  0.68721439671E+02  0.00000000000E+00 0.  1.
         22    1    1    2    0    0  0.12191471076E+02 -0.24597809157E+02  0.16503941141E+03  0.16730717708E+03  0.00000000000E+00 0.  1.
</event>
<event>
 6    1  0.2809573E-005  0.6205893E+03  0.7818608E-02  0.1107336E+00
          2   -1    0    0  502    0  0.00000000000E+00  0.00000000000E+00  0.94897876985E+03  0.94897876985E+03  0.00000000000E+00 0. -1.
          1   -1    0    0  501    0 -0.00000000000E+00 -0.00000000000E+00 -0.22020286851E+04  0.22020286851E+04  0.00000000000E+00 0. -1.
          2    1    1    2  501    0  0.22931543382E+03 -0.22396163899E+02  0.20374789487E+03  0.30757171685E+03  0.00000000000E+00 0. -1.
          1    1    1    2  502    0  0.78277703322E+02  0.27188657414E+03 -0.20777437181E+04  0.20969188507E+04  0.00000000000E+00 0. -1.
         22    1    1    2    0    0 -0.28986997192E+03 -0.24257282007E+03  0.51468496230E+03  0.63856619397E+03  0.00000000000E+00 0. -1.
         22    1    1    2    0    0 -0.17723165220E+02 -0.69175901748E+01  0.10626094570E+03  0.10795069347E+03  0.00000000000E+00 0.  1.
</event>
<event>
 6    1  0.2809573E-005  0.4179935E+02  0.7818608E-02  0.1506401E+00
          2   -1    0    0  502    0  0.00000000000E+00  0.00000000000E+00  0.39444664437E+03  0.39444664437E+03  0.00000000000E+00 0. -1.
          1   -1    0    0  501    0 -0.00000000000E+00 -0.00000000000E+00 -0.65346945839E+02  0.65346945839E+02  0.00000000000E+00 0. -1.
          2    1    1    2  501    0 -0.25685384371E+02  0.20931233774E+02 -0.38616504788E+02  0.50883100924E+02  0.00000000000E+00 0. -1.
          1    1    1    2  502    0  0.28142366461E+02  0.10841310249E+02  0.16852233158E+03  0.17119960000E+03  0.00000000000E+00 0. -1.
         22    1    1    2    0    0  0.17757073262E+02 -0.31102025752E+02  0.21118364418E+03  0.21419892910E+03  0.00000000000E+00 0. -1.
         22    1    1    2    0    0 -0.20214055352E+02 -0.67051827166E+00 -0.11989772446E+02  0.23511960186E+02  0.00000000000E+00 0. -1.
</event>
<event>
 6    1  0.2809573E-005  0.2288689E+03  0.7818608E-02  0.1261286E+00
          2   -1    0    0  502    0  0.00000000000E+00  0.00000000000E+00  0.19721995609E+03  0.19721995609E+03  0.00000000000E+00 0.  1.
          1   -1    0    0  501    0 -0.00000000000E+00 -0.00000000000E+00 -0.37819736651E+03  0.37819736651E+03  0.00000000000E+00 0. -1.
          2    1    1    2  501    0 -0.33844416253E+02  0.89844298145E+02  0.21344778604E+02  0.98351624259E+02  0.00000000000E+00 0.  1.
          1    1    1    2  502    0 -0.19039626812E+02  0.37399180070E+02 -0.27521004184E+03  0.27839140286E+03  0.00000000000E+00 0. -1.
         22    1    1    2    0    0 -0.64744979349E+01 -0.10153693332E+02  0.66137195879E+02  0.67224588437E+02  0.00000000000E+00 0. -1.
         22    1    1    2    0    0  0.59358541000E+02 -0.11708978488E+03  0.67506569306E+01  0.13144970705E+03  0.00000000000E+00 0. -1.
</event>
<event>
 6    1  0.2809573E-005  0.2091028E+03  0.7818608E-02  0.1172745E+00
          2   -1    0    0  502    0  0.00000000000E+00  0.00000000000E+00  0.27881264022E+03  0.27881264022E+03  0.00000000000E+00 0. -1.
          1   -1    0    0  501    0 -0.00000000000E+00 -0.00000000000E+00 -0.11367465453E+04  0.11367465453E+04  0.00000000000E+00 0. -1.
          2    1    1    2  501    0 -0.17786776298E+03  0.13321318503E+03  0.46059951833E+02  0.22694539637E+03  0.00000000000E+00 0. -1.
          1    1    1    2  502    0  0.11634162737E+03 -0.79594275955E+02 -0.99867971469E+03  0.10085790973E+04  0.00000000000E+00 0. -1.
         22    1    1    2    0    0  0.38868884165E+02 -0.94901032873E+02  0.46311746754E+02  0.11252454881E+03  0.00000000000E+00 0.  1.
         22    1    1    2    0    0  0.22657251437E+02  0.41282123797E+02  0.48374111047E+02  0.67510142997E+02  0.00000000000E+00 0. -1.
</event>
<event>
 6    1  0.2809573E-005  0.5451771E+03  0.7818608E-02  0.1107610E+00
          2   -1    0    0  502    0  0.00000000000E+00  0.00000000000E+00  0.11613456158E+04  0.11613456158E+04  0.00000000000E+00 0. -1.
          1   -1    0    0  501    0 -0.00000000000E+00 -0.00000000000E+00 -0.54466264947E+03  0.54466264947E+03  0.00000000000E+00 0.  1.
          2    1    1    2  501    0  0.15639802124E+03  0.83350663915E+02  0.62569637900E+02  0.18794316644E+03  0.00000000000E+00 0. -1.
          1    1    1    2  502    0 -0.17146972677E+02  0.11173766214E+02 -0.47104497616E+03  0.47148938619E+03  0.00000000000E+00 0.  1.
         22    1    1    2    0    0  0.24410913217E+02 -0.14313310701E+02  0.12788109380E+03  0.13097456890E+03  0.00000000000E+00 0. -1.
         22    1    1    2    0    0 -0.16366196178E+03 -0.80211119427E+02  0.89727721084E+03  0.91560114379E+03  0.00000000000E+00 0. -1.
</event>
<event>
 6    1  0.2809573E-005  0.1153663E+03  0.7818608E-02  0.1256931E+00
          2   -1    0    0  502    0  0.00000000000E+00  0.00000000000E+00  0.21184124683E+03  0.21184124683E+03  0.00000000000E+00 0. -1.
          1   -1    0    0  501    0 -0.00000000000E+00 -0.00000000000E+00 -0.11220093029E+04  0.11220093029E+04  0.00000000000E+00 0. -1.
          2    1    1    2  501    0 -0.42959846593E+02  0.80871943648E+02  0.30141513839E+02  0.96407108375E+02  0.00000000000E+00 0. -1.
          1    1    1    2  502    0  0.29326548654E+02 -0.27523817217E+02 -0.10586443368E+04  0.10594080606E+04  0.00000000000E+00 0. -1.
         22    1    1    2    0    0  0.34845302935E+01 -0.92502675077E+02  0.82240986122E+02  0.12382433786E+03  0.00000000000E+00 0. -1.
         22    1    1    2    0    0  0.10148767645E+02  0.39154548646E+02  0.36093780771E+02  0.54211042923E+02  0.00000000000E+00 0. -1.
</event>
<event>
 6    1  0.2809573E-005  0.1919886E+03  0.7818608E-02  0.1220444E+00
          2   -1    0    0  502    0  0.00000000000E+00  0.00000000000E+00  0.45553238035E+02  0.45553238035E+02  0.00000000000E+00 0.  1.
          1   -1    0    0  501    0 -0.00000000000E+00 -0.00000000000E+00 -0.16816822277E+04  0.16816822277E+04  0.00000000000E+00 0. -1.
          2    1    1    2  501    0 -0.36967217794E+02  0.94420905833E+02 -0.40585025928E+03  0.41832560955E+03  0.00000000000E+00 0.  1.
          1    1    1    2  502    0  0.67052633670E+02 -0.19249607031E+03 -0.10263167724E+04  0.10463636605E+04  0.00000000000E+00 0. -1.
         22    1    1    2    0    0 -0.45970850193E+02  0.54143433109E+02 -0.20380854206E+03  0.21583037839E+03  0.00000000000E+00 0.  1.
         22    1    1    2    0    0  0.15885434317E+02  0.43931731372E+02 -0.15341590372E+00  0.46715817248E+02  0.00000000000E+00 0. -1.
</event>
<event>
 6    1  0.2809573E-005  0.2455021E+03  0.7818608E-02  0.1149945E+00
          2   -1    0    0  502    0  0.00000000000E+00  0.00000000000E+00  0.60713207837E+03  0.60713207837E+03  0.00000000000E+00 0. -1.
          1   -1    0    0  501    0 -0.00000000000E+00 -0.00000000000E+00 -0.63902360574E+03  0.63902360574E+03  0.00000000000E+00 0. -1.
          2    1    1    2  501    0  0.10110366182E+03 -0.98429844883E+02 -0.41287007898E+02  0.14702041293E+03  0.00000000000E+00 0. -1.
          1    1    1    2  502    0 -0.10453048152E+03 -0.70458278051E+02 -0.51749481116E+03  0.53262732758E+03  0.00000000000E+00 0. -1.
         22    1    1    2    0    0  0.15424891392E+02  0.10649350395E+03  0.46684858775E+03  0.47908913319E+03  0.00000000000E+00 0. -1.
         22    1    1    2    0    0 -0.11998071689E+02  0.62394618985E+02  0.60041703936E+02  0.87418810414E+02  0.00000000000E+00 0. -1.
</event>
<event>
 6    1  0.2809573E-005  0.1033926E+03  0.7818608E-02  0.1326217E+00
          2   -1    0    0  502    0  0.00000000000E+00  0.00000000000E+00  0.25488958692E+03  0.25488958692E+03  0.00000000000E+00 0.  1.
          1   -1    0    0  501    0 -0.00000000000E+00 -0.00000000000E+00 -0.71169782773E+03  0.71169782773E+03  0.00000000000E+00 0.  1.
          2    1    1    2  501    0  0.11093669831E+01  0.30824102872E+02  0.29017910074E+02  0.42348496054E+02  0.00000000000E+00 0.  1.
          1    1    1    2  502    0 -0.49473873692E+02 -0.24363164180E+01 -0.68375114884E+03  0.68554302079E+03  0.00000000000E+00 0.  1.
         22    1    1    2    0    0  0.86136267419E+02 -0.37939608624E+02  0.13202368868E+03  0.16213921438E+03  0.00000000000E+00 0. -1.
         22    1    1    2    0    0 -0.37771760710E+02  0.95518221694E+01  0.65901309263E+02  0.76556683421E+02  0.00000000000E+00 0.  1.
</event>
<event>
 6    1  0.2809573E-005  0.6380154E+02  0.7818608E-02  0.1389799E+00
          2   -1    0    0  502    0  0.00000000000E+00  0.00000000000E+00  0.32619941273E+02  0.32619941273E+02  0.00000000000E+00 0.  1.
          1   -1    0    0  501    0 -0.00000000000E+00 -0.00000000000E+00 -0.18246480710E+04  0.18246480710E+04  0.00000000000E+00 0.  1.
          2    1    1    2  501    0  0.13866711785E+02  0.60632442162E+02 -0.45481571712E+03  0.45904892471E+03  0.00000000000E+00 0.  1.
          1    1    1    2  502    0 -0.34760361063E+02 -0.36292521675E+02 -0.12317743429E+04  0.12327990354E+04  0.00000000000E+00 0.  1.
         22    1    1    2    0    0  0.17304104019E+02 -0.52837216967E+02  0.55795527529E+00  0.55601392310E+02  0.00000000000E+00 0.  1.
         22    1    1    2    0    0  0.35895452586E+01  0.28497296480E+02 -0.10599602493E+03  0.10981865981E+03  0.00000000000E+00 0. -1.
</event>
<event>
 6    1  0.2809573E-005  0.1195676E+03  0.7818608E-02  0.1298418E+00
          2   -1    0    0  502    0  0.00000000000E+00  0.00000000000E+00  0.46153715035E+02  0.46153715035E+02  0.00000000000E+00 0. -1.
          1   -1    0    0  501    0 -0.00000000000E+00 -0.00000000000E+00 -0.27155100472E+03  0.27155100472E+03  0.00000000000E+00 0.  1.
          2    1    1    2  501    0 -0.13894924135E+02 -0.21308466370E+02  0.76227011430E+01  0.26556077054E+02  0.00000000000E+00 0. -1.
          1    1    1    2  502    0 -0.14059234706E+01 -0.22226277657E+02 -0.90498895653E+02  0.93198895668E+02  0.00000000000E+00 0.  1.
         22    1    1    2    0    0 -0.34120757270E+02  0.26123192377E+02  0.32023736946E+01  0.43091791027E+02  0.00000000000E+00 0. -1.
         22    1    1    2    0    0  0.49421604876E+02  0.17411551650E+02 -0.14572346887E+03  0.15485795601E+03  0.00000000000E+00 0.  1.
</event>
<event>
 6    1  0.2809573E-005  0.3889153E+03  0.7818608E-02  0.1172719E+00
          2   -1    0    0  502    0  0.00000000000E+00  0.00000000000E+00  0.90305758754E+03  0.90305758754E+03  0.00000000000E+00 0.  1.
          1   -1    0    0  501    0 -0.00000000000E+00 -0.00000000000E+00 -0.29668263590E+03  0.29668263590E+03  0.00000000000E+00 0.  1.
          2    1    1    2  501    0  0.45186627285E+02 -0.11162124399E+03  0.28359989034E+03  0.30810717485E+03  0.00000000000E+00 0.  1.
          1    1    1    2  502    0  0.18467814673E+03 -0.17545588925E+02 -0.21226075709E+03  0.28190156894E+03  0.00000000000E+00 0.  1.
         22    1    1    2    0    0  0.13221074792E+02  0.89187436795E+01  0.66320290878E+02  0.68210862695E+02  0.00000000000E+00 0. -1.
         22    1    1    2    0    0 -0.24308584881E+03  0.12024808923E+03  0.46871552751E+03  0.54152061695E+03  0.00000000000E+00 0.  1.
</event>
<event>
 6    1  0.2809573E-005  0.1259788E+03  0.7818608E-02  0.1353983E+00
          2   -1    0    0  502    0  0.00000000000E+00  0.00000000000E+00  0.20966106482E+02  0.20966106482E+02  0.00000000000E+00 0. -1.
          1   -1    0    0  501    0 -0.00000000000E+00 -0.00000000000E+00 -0.10466101392E+04  0.10466101392E+04  0.00000000000E+00 0. -1.
          2    1    1    2  501    0  0.16559174465E+02  0.21540753431E+02 -0.14064489809E+03  0.14324523614E+03  0.00000000000E+00 0. -1.
          1    1    1    2  502    0 -0.10839850354E+03 -0.28676558831E+02 -0.36799841163E+03  0.38470171764E+03  0.00000000000E+00 0. -1.
         22    1    1    2    0    0 -0.11310082171E+02 -0.70237638557E+01 -0.11353546939E+01  0.13361895363E+02  0.00000000000E+00 0. -1.
         22    1    1    2    0    0  0.10314941125E+03  0.14159569255E+02 -0.51586536832E+03  0.52626739655E+03  0.00000000000E+00 0. -1.
</event>
<event>
 6    1  0.2809573E-005  0.2793424E+03  0.7818608E-02  0.1180150E+00
          2   -1    0    0  502    0  0.00000000000E+00  0.00000000000E+00  0.51667373904E+02  0.51667373904E+02  0.00000000000E+00 0. -1.
          1   -1    0    0  501    0 -0.00000000000E+00 -0.00000000000E+00 -0.16731403476E+04  0.16731403476E+04  0.00000000000E+00 0. -1.
          2    1    1    2  501    0  0.46101973402E+02 -0.11215038274E+03 -0.48517498608E+03  0.50009785785E+03  0.00000000000E+00 0. -1.
          1    1    1    2  502    0 -0.76674569392E+02  0.24170579369E+03 -0.82449643974E+03  0.86260944780E+03  0.00000000000E+00 0. -1.
         22    1    1    2    0    0  0.32709859269E+02  0.15924913107E+02 -0.41978819793E+02  0.55549609018E+02  0.00000000000E+00 0. -1.
         22    1    1    2    0    0 -0.21372632798E+01 -0.14548032406E+03 -0.26982272804E+03  0.30655080680E+03  0.00000000000E+00 0. -1.
</event>
<event>
 6    1  0.2809573E-005  0.1085360E+03  0.7818608E-02  0.1364756E+00
          2   -1    0    0  502    0  0.00000000000E+00  0.00000000000E+00  0.39907996155E+02  0.39907996155E+02  0.00000000000E+00 0.  1.
          1   -1    0    0  501    0 -0.00000000000E+00 -0.00000000000E+00 -0.34257530678E+03  0.34257530678E+03  0.00000000000E+00 0.  1.
          2    1    1    2  501    0  0.39438498365E+02 -0.45140258651E+02 -0.15871765683E+03  0.16965946097E+03  0.00000000000E+00 0.  1.
          1    1    1    2  502    0 -0.22294548515E+02  0.10590400625E+02 -0.31118796739E+02  0.39718798942E+02  0.00000000000E+00 0.  1.
         22    1    1    2    0    0 -0.81956835874E+01  0.49435626563E+02 -0.13554516067E+03  0.14451138704E+03  0.00000000000E+00 0.  1.
         22    1    1    2    0    0 -0.89482662625E+01 -0.14885768537E+02  0.22714303616E+02  0.28593655989E+02  0.00000000000E+00 0.  1.
</event>
<event>
 6    1  0.2809573E-005  0.1736719E+03  0.7818608E-02  0.1222638E+00
          2   -1    0    0  502    0  0.00000000000E+00  0.00000000000E+00  0.25651704836E+03  0.25651704836E+03  0.00000000000E+00 0.  1.
          1   -1    0    0  501    0 -0.00000000000E+00 -0.00000000000E+00 -0.33121177438E+03  0.33121177438E+03  0.00000000000E+00 0. -1.
          2    1    1    2  501    0 -0.58123591323E+02  0.64995136912E+02 -0.26294123353E+02  0.91071952946E+02  0.00000000000E+00 0.  1.
          1    1    1    2  502    0  0.48322271070E+02 -0.69033318905E+02 -0.24804690677E+03  0.26196929011E+03  0.00000000000E+00 0. -1.
         22    1    1    2    0    0  0.32639678239E+02 -0.50674771484E+02  0.71688771713E+02  0.93661950921E+02  0.00000000000E+00 0.  1.
         22    1    1    2    0    0 -0.22838357986E+02  0.54712953477E+02  0.12795753239E+03  0.14102562876E+03  0.00000000000E+00 0.  1.
</event>
<event>
 6    1  0.2809573E-005  0.2174128E+03  0.7818608E-02  0.1237182E+00
          2   -1    0    0  502    0  0.00000000000E+00  0.00000000000E+00  0.21583055219E+03  0.21583055219E+03  0.00000000000E+00 0. -1.
          1   -1    0    0  501    0 -0.00000000000E+00 -0.00000000000E+00 -0.17403175041E+03  0.17403175041E+03  0.00000000000E+00 0. -1.
          2    1    1    2  501    0  0.61766496035E+02 -0.88219944392E+02 -0.12579730930E+01  0.10770070156E+03  0.00000000000E+00 0. -1.
          1    1    1    2  502    0 -0.36805367718E+02 -0.29261238497E+02 -0.62348174022E+02  0.78090652290E+02  0.00000000000E+00 0. -1.
         22    1    1    2    0    0 -0.38227835568E+02  0.98996691278E+02  0.10686322724E+02  0.10665791011E+03  0.00000000000E+00 0. -1.
         22    1    1    2    0    0  0.13266707250E+02  0.18484491611E+02  0.94718626176E+02  0.97413038635E+02  0.00000000000E+00 0.  1.
</event>
<event>
 6    1  0.2809573E-005  0.9911759E+02  0.7818608E-02  0.1309307E+00
          2   -1    0    0  502    0  0.00000000000E+00  0.00000000000E+00  0.16144178470E+02  0.16144178470E+02  0.00000000000E+00 0. -1.
          1   -1    0    0  501    0 -0.00000000000E+00 -0.00000000000E+00 -0.11059889939E+04  0.11059889939E+04  0.00000000000E+00 0. -1.
          2    1    1    2  501    0  0.36716887846E+02  0.49263053999E+02 -0.31438719473E+03  0.32033464775E+03  0.00000000000E+00 0. -1.
          1    1    1    2  502    0 -0.46399648900E+01 -0.48176180040E+02 -0.42782549536E+03  0.43055444264E+03  0.00000000000E+00 0. -1.
         22    1    1    2    0    0 -0.40832913583E+02  0.51674454601E+02 -0.26306472121E+03  0.27118374515E+03  0.00000000000E+00 0.  1.
         22    1    1    2    0    0  0.87559906266E+01 -0.52761328560E+02 -0.84567404126E+02  0.10006033682E+03  0.00000000000E+00 0. -1.
</event>
<event>
 6    1  0.2809573E-005  0.1940392E+03  0.7818608E-02  0.1269818E+00
          2   -1    0    0  502    0  0.00000000000E+00  0.00000000000E+00  0.64545992080E+02  0.64545992080E+02  0.00000000000E+00 0.  1.
          1   -1    0    0  501    0 -0.00000000000E+00 -0.00000000000E+00 -0.95681796463E+03  0.95681796463E+03  0.00000000000E+00 0.  1.
          2    1    1    2  501    0 -0.36486191480E+02  0.95021417986E+01 -0.20497217252E+02  0.42914668617E+02  0.00000000000E+00 0.  1.
          1    1    1    2  502    0  0.90389423083E+02  0.12875537165E+03 -0.71311735063E+03  0.73026334243E+03  0.00000000000E+00 0.  1.
         22    1    1    2    0    0 -0.14119547284E+01  0.16675304056E+02  0.43081254949E+01  0.17280605510E+02  0.00000000000E+00 0.  1.
         22    1    1    2    0    0 -0.52491276875E+02 -0.15493281751E+03 -0.16296553017E+03  0.23090534016E+03  0.00000000000E+00 0.  1.
</event>
<event>
 6    1  0.2809573E-005  0.7226460E+02  0.7818608E-02  0.1354026E+00
          2   -1    0    0  502    0  0.00000000000E+00  0.00000000000E+00  0.70968239071E+02  0.70968239071E+02  0.00000000000E+00 0.  1.
          1   -1    0    0  501    0 -0.00000000000E+00 -0.00000000000E+00 -0.29289518774E+03  0.29289518774E+03  0.00000000000E+00 0. -1.
          2    1    1    2  501    0  0.16331650721E+02  0.21314611579E+02  0.11600938672E+00  0.26852354463E+02  0.00000000000E+00 0.  1.
          1    1    1    2  502    0 -0.29377921845E+01  0.24035883417E+02 -0.19538163520E+03  0.19687645285E+03  0.00000000000E+00 0. -1.
         22    1    1    2    0    0  0.18895377242E+02  0.33852844066E+02  0.19002919424E+02  0.43175934027E+02  0.00000000000E+00 0.  1.
         22    1    1    2    0    0 -0.32289235778E+02 -0.79203339061E+02 -0.45664242288E+02  0.96958685476E+02  0.00000000000E+00 0.  1.
</event>
<event>
 6    1  0.2809573E-005  0.3082710E+03  0.7818608E-02  0.1103860E+00
          2   -1    0    0  502    0  0.00000000000E+00  0.00000000000E+00  0.12416443482E+04  0.12416443482E+04  0.00000000000E+00 0. -1.
          1   -1    0    0  501    0 -0.00000000000E+00 -0.00000000000E+00 -0.15362645739E+03  0.15362645739E+03  0.00000000000E+00 0. -1.
          2    1    1    2  501    0  0.38690578547E+03 -0.23412075333E+02  0.65626563436E+03  0.76218685041E+03  0.00000000000E+00 0. -1.
          1    1    1    2  502    0 -0.24823860447E+03 -0.65197653371E+02  0.23061299305E+03  0.34504418749E+03  0.00000000000E+00 0. -1.
         22    1    1    2    0    0  0.13874266342E+02  0.14221960356E+02  0.72249973860E+02  0.74932090227E+02  0.00000000000E+00 0. -1.
         22    1    1    2    0    0 -0.15254144734E+03  0.74387768347E+02  0.12888928954E+03  0.21310767746E+03  0.00000000000E+00 0.  1.
</event>
<event>
 6    1  0.2809573E-005  0.2136517E+03  0.7818608E-02  0.1166441E+00
          2   -1    0    0  502    0  0.00000000000E+00  0.00000000000E+00  0.12774636695E+04  0.12774636695E+04  0.00000000000E+00 0.  1.
          1   -1    0    0  501    0 -0.00000000000E+00 -0.00000000000E+00 -0.25833457405E+03  0.25833457405E+03  0.00000000000E+00 0. -1.
          2    1    1    2  501    0 -0.53421171446E+01  0.21816929241E+03  0.77248876500E+03  0.80272365757E+03  0.00000000000E+00 0.  1.
          1    1    1    2  502    0 -0.94766542629E+02 -0.18401853805E+03 -0.18131457174E+03  0.27516993635E+03  0.00000000000E+00 0. -1.
         22    1    1    2    0    0  0.81292720438E+02 -0.75674853516E+02  0.23926612547E+03  0.26378678634E+03  0.00000000000E+00 0.  1.
         22    1    1    2    0    0  0.18815939336E+02  0.41524099151E+02  0.18868877674E+03  0.19411786329E+03  0.00000000000E+00 0. -1.
</event>
<event>
 6    1  0.2809573E-005  0.1166731E+03  0.7818608E-02  0.1284508E+00
          2   -1    0    0  502    0  0.00000000000E+00  0.00000000000E+00  0.24400043497E+03  0.24400043497E+03  0.00000000000E+00 0. -1.
          1   -1    0    0  501    0 -0.00000000000E+00 -0.00000000000E+00 -0.10272460305E+04  0.10272460305E+04  0.00000000000E+00 0. -1.
          2    1    1    2  501    0  0.34211827747E+02  0.22656452362E+02 -0.40375164942E+01  0.41231850927E+02  0.00000000000E+00 0. -1.
          1    1    1    2  502    0 -0.22120186389E+02  0.10892188116E+01 -0.98621088039E+03  0.98645952256E+03  0.00000000000E+00 0. -1.
         22    1    1    2    0    0 -0.55924296075E+02  0.17960783258E+02  0.57166789223E+02  0.81964372850E+02  0.00000000000E+00 0.  1.
         22    1    1    2    0    0  0.43832654717E+02 -0.41706454432E+02  0.14983601216E+03  0.16159071911E+03  0.00000000000E+00 0. -1.
</event>
<event>
 6    1  0.2809573E-005  0.1205019E+03  0.7818608E-02  0.1315173E+00
          2   -1    0    0  502    0  0.00000000000E+00  0.00000000000E+00  0.25405944954E+03  0.25405944954E+03  0.00000000000E+00 0.  1.
          1   -1    0    0  501    0 -0.00000000000E+00 -0.00000000000E+00 -0.18475260415E+03  0.18475260415E+03  0.00000000000E+00 0.  1.
          2    1    1    2  501    0 -0.18558933448E+02  0.98592345414E+01 -0.41503076992E+01  0.21421101057E+02  0.00000000000E+00 0.  1.
          1    1    1    2  502    0  0.10993247178E+03 -0.43903480473E+02 -0.11917791448E+03  0.16797630562E+03  0.00000000000E+00 0.  1.
         22    1    1    2    0    0 -0.20730369642E+02 -0.21646992069E+02  0.14413362260E+03  0.14721698834E+03  0.00000000000E+00 0.  1.
         22    1    1    2    0    0 -0.70643168691E+02  0.55691238000E+02  0.48501444977E+02  0.10219765867E+03  0.00000000000E+00 0.  1.
</event>
<event>
 6    1  0.2809573E-005  0.2268328E+03  0.7818608E-02  0.1252341E+00
          2   -1    0    0  502    0  0.00000000000E+00  0.00000000000E+00  0.57765313458E+02  0.57765313458E+02  0.00000000000E+00 0.  1.
          1   -1    0    0  501    0 -0.00000000000E+00 -0.00000000000E+00 -0.15501697607E+04  0.15501697607E+04  0.00000000000E+00 0.  1.
          2    1    1    2  501    0 -0.11035470417E+02 -0.33539052862E+02 -0.54522801948E+02  0.64956798000E+02  0.00000000000E+00 0.  1.
          1    1    1    2  502    0 -0.16713703626E+02  0.22063031714E+03 -0.11805147750E+04  0.12010712796E+04  0.00000000000E+00 0.  1.
         22    1    1    2    0    0  0.14923391676E+02 -0.19439694690E+03 -0.18749996541E+03  0.27049790685E+03  0.00000000000E+00 0.  1.
         22    1    1    2    0    0  0.12825782367E+02  0.73056826157E+01 -0.69866904862E+02  0.71409089665E+02  0.00000000000E+00 0. -1.
</event>
<event>
 6    1  0.2809573E-005  0.8801881E+02  0.7818608E-02  0.1354723E+00
          2   -1    0    0  502    0  0.00000000000E+00  0.00000000000E+00  0.14813166606E+03  0.14813166606E+03  0.00000000000E+00 0.  1.
          1   -1    0    0  501    0 -0.00000000000E+00 -0.00000000000E+00 -0.91800244189E+02  0.91800244189E+02  0.00000000000E+00 0.  1.
          2    1    1    2  501    0 -0.25243349859E+02  0.62802611907E+01  0.82778873112E+01  0.27298201609E+02  0.00000000000E+00 0.  1.
          1    1    1    2  502    0  0.60560200479E+02 -0.42155095058E+02  0.31910461549E+02  0.80391961524E+02  0.00000000000E+00 0.  1.
         22    1    1    2    0    0 -0.25882258251E+02 -0.28568094720E+02 -0.32925651080E+02  0.50696408425E+02  0.00000000000E+00 0.  1.
         22    1    1    2    0    0 -0.94345923689E+01  0.64442928588E+02  0.49068724088E+02  0.81545338688E+02  0.00000000000E+00 0.  1.
</event>
<event>
 6    1  0.2809573E-005  0.1275077E+03  0.7818608E-02  0.1311098E+00
          2   -1    0    0  502    0  0.00000000000E+00  0.00000000000E+00  0.15967198252E+03  0.15967198252E+03  0.00000000000E+00 0.  1.
          1   -1    0    0  501    0 -0.00000000000E+00 -0.00000000000E+00 -0.43739895004E+03  0.43739895004E+03  0.00000000000E+00 0. -1.
          2    1    1    2  501    0  0.35961399839E+02 -0.10721148158E+02  0.50855919539E+02  0.63201976617E+02  0.00000000000E+00 0.  1.
          1    1    1    2  502    0 -0.58979875880E+02  0.58766490747E+02 -0.37763735179E+03  0.38670673082E+03  0.00000000000E+00 0. -1.
         22    1    1    2    0    0  0.16575659805E+02  0.21604361420E+02  0.69205770333E+02  0.74370286927E+02  0.00000000000E+00 0. -1.
         22    1    1    2    0    0  0.64428162361E+01 -0.69649704009E+02 -0.20151305605E+02  0.72791938202E+02  0.00000000000E+00 0.  1.
</event>
<event>
 6    1  0.2809573E-005  0.2771973E+03  0.7818608E-02  0.1188041E+00
          2   -1    0    0  502    0  0.00000000000E+00  0.00000000000E+00  0.36669846418E+03  0.36669846418E+03  0.00000000000E+00 0. -1.
          1   -1    0    0  501    0 -0.00000000000E+00 -0.00000000000E+00 -0.23996985649E+03  0.23996985649E+03  0.00000000000E+00 0. -1.
          2    1    1    2  501    0  0.71484731363E+02  0.98589968221E+02 -0.79650353397E+02  0.14551366756E+03  0.00000000000E+00 0. -1.
          1    1    1    2  502    0 -0.59247049447E+02 -0.21302383608E+03  0.39982610752E+02  0.22469529761E+03  0.00000000000E+00 0. -1.
         22    1    1    2    0    0  0.18978948533E+02  0.11482974792E+03  0.71584045803E+02  0.13663947858E+03  0.00000000000E+00 0.  1.
         22    1    1    2    0    0 -0.31216630448E+02 -0.39588006067E+00  0.94812304531E+02  0.99819876918E+02  0.00000000000E+00 0. -1.
</event>
<event>
 6    1  0.2809573E-005  0.1292462E+03  0.7818608E-02  0.1276450E+00
          2   -1    0    0  502    0  0.00000000000E+00  0.00000000000E+00  0.70953038884E+02  0.70953038884E+02  0.00000000000E+00 0. -1.
          1   -1    0    0  501    0 -0.00000000000E+00 -0.00000000000E+00 -0.15977682851E+04  0.15977682851E+04  0.00000000000E+00 0. -1.
          2    1    1    2  501    0 -0.11939659334E+03  0.57939959492E+02 -0.93051087773E+03  0.93992716685E+03  0.00000000000E+00 0. -1.
          1    1    1    2  502    0  0.86875150625E+02 -0.39385843297E+02 -0.58623828836E+03  0.59394769735E+03  0.00000000000E+00 0. -1.
         22    1    1    2    0    0  0.48971342869E+02 -0.92871366757E+01  0.50769955350E+02  0.71147956374E+02  0.00000000000E+00 0. -1.
         22    1    1    2    0    0 -0.16449900150E+02 -0.92669795185E+01 -0.60836035490E+02  0.63698503425E+02  0.00000000000E+00 0. -1.
</event>
<event>
 6    1  0.2809573E-005  0.1052345E+03  0.7818608E-02  0.1285522E+00
          2   -1    0    0  502    0  0.00000000000E+00  0.00000000000E+00  0.15194566050E+03  0.15194566050E+03  0.00000000000E+00 0. -1.
          1   -1    0    0  501    0 -0.00000000000E+00 -0.00000000000E+00 -0.19380593858E+03  0.19380593858E+03  0.00000000000E+00 0.  1.
          2    1    1    2  501    0 -0.46448652688E+02  0.16661470050E+02 -0.65601120611E+01  0.49780688937E+02  0.00000000000E+00 0. -1.
          1    1    1    2  502    0  0.32471888256E+02  0.15262544036E+02 -0.13195612867E+03  0.13674717061E+03  0.00000000000E+00 0.  1.
         22    1    1    2    0    0  0.65994181940E+02 -0.12572006908E+02  0.33251530810E+02  0.74959667214E+02  0.00000000000E+00 0.  1.
         22    1    1    2    0    0 -0.52017417509E+02 -0.19352007178E+02  0.63404431841E+02  0.84264072316E+02  0.00000000000E+00 0. -1.
</event>
<event>
 6    1  0.2809573E-005  0.1342732E+03  0.7818608E-02  0.1355990E+00
          2   -1    0    0  502    0  0.00000000000E+00  0.00000000000E+00  0.13969384467E+03  0.13969384467E+03  0.00000000000E+00 0. -1.
          1   -1    0    0  501    0 -0.00000000000E+00 -0.00000000000E+00 -0.35730819759E+03  0.35730819759E+03  0.00000000000E+00 0. -1.
          2    1    1    2  501    0  0.80429783081E+02 -0.69645154747E+02 -0.20671070765E+03  0.23248379351E+03  0.00000000000E+00 0. -1.
          1    1    1    2  502    0 -0.92021035400E+02  0.81706126189E+02  0.32799648418E+02  0.12735611077E+03  0.00000000000E+00 0. -1.
         22    1    1    2    0    0  0.15248253644E+02 -0.22040210360E+02 -0.87801739932E+02  0.91801011143E+02  0.00000000000E+00 0. -1.
         22    1    1    2    0    0 -0.36570013250E+01  0.99792389183E+01  0.44098446245E+02  0.45361126852E+02  0.00000000000E+00 0. -1.
</event>
<event>
 6    1  0.2809573E-005  0.1070323E+03  0.7818608E-02  0.1270866E+00
          2   -1    0    0  502    0  0.00000000000E+00  0.00000000000E+00  0.10730186050E+03  0.10730186050E+03  0.00000000000E+00 0.  1.
          1   -1    0    0  501    0 -0.00000000000E+00 -0.00000000000E+00 -0.14119904782E+04  0.14119904782E+04  0.00000000000E+00 0. -1.
          2    1    1    2  501    0 -0.57849645044E+02 -0.53414089002E+02  0.12921362114E+02  0.79791026654E+02  0.00000000000E+00 0.  1.
          1    1    1    2  502    0 -0.21246638891E+02  0.27841479958E+02 -0.12839213094E+04  0.12843988852E+04  0.00000000000E+00 0. -1.
         22    1    1    2    0    0 -0.11884839964E+02 -0.16194201919E+02  0.30252981962E+02  0.36314522086E+02  0.00000000000E+00 0.  1.
         22    1    1    2    0    0  0.90981123899E+02  0.41766810963E+02 -0.63941652429E+02  0.11878790477E+03  0.00000000000E+00 0. -1.
</event>
<event>
 6    1  0.2809573E-005  0.1023710E+03  0.7818608E-02  0.1314804E+00
          2   -1    0    0  502    0  0.00000000000E+00  0.00000000000E+00  0.38726471981E+02  0.38726471981E+02  0.00000000000E+00 0. -1.
          1   -1    0    0  501    0 -0.00000000000E+00 -0.00000000000E+00 -0.21808711217E+03  0.21808711217E+03  0.00000000000E+00 0. -1.
          2    1    1    2  501    0  0.17187728906E+02  0.25919425235E+02 -0.26961145833E+02  0.41159907849E+02  0.00000000000E+00 0. -1.
          1    1    1    2  502    0 -0.63698850296E+01  0.19009702333E+02 -0.40505806837E+02  0.45195847217E+02  0.00000000000E+00 0. -1.
         22    1    1    2    0    0  0.49197270869E+02 -0.15100653198E+02 -0.16829286184E+02  0.54144492439E+02  0.00000000000E+00 0. -1.
         22    1    1    2    0    0 -0.60015114745E+02 -0.29828474370E+02 -0.95064401332E+02  0.11631333665E+03  0.00000000000E+00 0. -1.
</event>
<event>
 6    1  0.2809573E-005  0.7038540E+02  0.7818608E-02  0.1439190E+00
          2   -1    0    0  502    0  0.00000000000E+00  0.00000000000E+00  0.37143979813E+02  0.37143979813E+02  0.00000000000E+00 0. -1.
          1   -1    0    0  501    0 -0.00000000000E+00 -0.00000000000E+00 -0.30668941854E+03  0.30668941854E+03  0.00000000000E+00 0. -1.
          2    1    1    2  501    0  0.18282118775E+02  0.16458022583E+02 -0.13186353584E+03  0.13413834075E+03  0.00000000000E+00 0. -1.
          1    1    1    2  502    0 -0.24053616724E+02  0.13803978608E+02 -0.46680380369E+02  0.54297184221E+02  0.00000000000E+00 0. -1.
         22    1    1    2    0    0 -0.10376411908E+02 -0.41448222953E+02 -0.11599174187E+03  0.12361112123E+03  0.00000000000E+00 0. -1.
         22    1    1    2    0    0  0.16147909858E+02  0.11186221762E+02  0.24990219344E+02  0.31786752161E+02  0.00000000000E+00 0. -1.
</event>
<event>
 6    1  0.2809573E-005  0.9022542E+02  0.7818608E-02  0.1340204E+00
          2   -1    0    0  502    0  0.00000000000E+00  0.00000000000E+00  0.29151096764E+03  0.29151096764E+03  0.00000000000E+00 0.  1.
          1   -1    0    0  501    0 -0.00000000000E+00 -0.00000000000E+00 -0.39044607428E+03  0.39044607428E+03  0.00000000000E+00 0.  1.
          2    1    1    2  501    0  0.72045114587E+01  0.82356852454E+02  0.73532189026E+02  0.11064148840E+03  0.00000000000E+00 0.  1.
          1    1    1    2  502    0 -0.23788918659E+02 -0.77086415272E+02 -0.34760003885E+03  0.35683892035E+03  0.00000000000E+00 0.  1.
         22    1    1    2    0    0 -0.23200712913E+01 -0.45835981704E+02  0.16119671500E+03  0.16760280689E+03  0.00000000000E+00 0.  1.
         22    1    1    2    0    0  0.18904478492E+02  0.40565544522E+02  0.13936028189E+02  0.46873826290E+02  0.00000000000E+00 0.  1.
</event>
<event>
 6    1  0.2809573E-005  0.7289377E+02  0.7818608E-02  0.1377569E+00
          2   -1    0    0  502    0  0.00000000000E+00  0.00000000000E+00  0.21088678196E+02  0.21088678196E+02  0.00000000000E+00 0. -1.
          1   -1    0    0  501    0 -0.00000000000E+00 -0.00000000000E+00 -0.12752358835E+04  0.12752358835E+04  0.00000000000E+00 0. -1.
          2    1    1    2  501    0  0.33183746048E+02 -0.25758959332E+01 -0.15044672052E+03  0.15408443126E+03  0.00000000000E+00 0. -1.
          1    1    1    2  502    0 -0.48515963003E+02  0.24127526574E+02 -0.91446738945E+03  0.91607125409E+03  0.00000000000E+00 0. -1.
         22    1    1    2    0    0  0.57266269754E+02 -0.41393855058E+02 -0.14841186821E+03  0.16437444909E+03  0.00000000000E+00 0. -1.
         22    1    1    2    0    0 -0.41934052798E+02  0.19842224418E+02 -0.40821227080E+02  0.61794427210E+02  0.00000000000E+00 0. -1.
</event>
<event>
 6    1  0.2809573E-005  0.2250292E+03  0.7818608E-02  0.1226481E+00
          2   -1    0    0  502    0  0.00000000000E+00  0.00000000000E+00  0.28901566464E+02  0.28901566464E+02  0.00000000000E+00 0. -1.
          1   -1    0    0  501    0 -0.00000000000E+00 -0.00000000000E+00 -0.16792725039E+04  0.16792725039E+04  0.00000000000E+00 0.  1.
          2    1    1    2  501    0 -0.82083596357E+02  0.50211043163E+02 -0.40268046256E+03  0.41401741578E+03  0.00000000000E+00 0. -1.
          1    1    1    2  502    0  0.15420400086E+02 -0.29647654487E+02 -0.10484222410E+04  0.10489547024E+04  0.00000000000E+00 0.  1.
         22    1    1    2    0    0 -0.96019588485E+01 -0.23705776812E+02 -0.15472722993E+03  0.15682690187E+03  0.00000000000E+00 0.  1.
         22    1    1    2    0    0  0.76265155119E+02  0.31423881356E+01 -0.44541003888E+02  0.88375050302E+02  0.00000000000E+00 0. -1.
</event>
<event>
 6    1  0.2809573E-005  0.2036274E+03  0.7818608E-02  0.1257289E+00
          2   -1    0    0  502    0  0.00000000000E+00  0.00000000000E+00  0.37065334545E+03  0.37065334545E+03  0.00000000000E+00 0. -1.
          1   -1    0    0  501    0 -0.00000000000E+00 -0.00000000000E+00 -0.27349657546E+03  0.27349657546E+03  0.00000000000E+00 0.  1.
          2    1    1    2  501    0 -0.19966144267E+01  0.49347263670E+02  0.90904482930E+02  0.10345416337E+03  0.00000000000E+00 0. -1.
          1    1    1    2  502    0  0.67532173890E+02  0.78742671757E+02 -0.22028419276E+03  0.24348742975E+03  0.00000000000E+00 0.  1.
         22    1    1    2    0    0  0.17944541525E+02  0.44891047770E+01  0.81961316636E+02  0.84022711554E+02  0.00000000000E+00 0.  1.
         22    1    1    2    0    0 -0.83480100988E+02 -0.13257904020E+03  0.14457516319E+03  0.21318561624E+03  0.00000000000E+00 0. -1.
</event>
<event>
 6    1  0.2809573E-005  0.1254353E+03  0.7818608E-02  0.1254571E+00
          2   -1    0    0  502    0  0.00000000000E+00  0.00000000000E+00  0.12839406958E+03  0.12839406958E+03  0.00000000000E+00 0. -1.
          1   -1    0    0  501    0 -0.00000000000E+00 -0.00000000000E+00 -0.13780672310E+03  0.13780672310E+03  0.00000000000E+00 0. -1.
          2    1    1    2  501    0 -0.40338019707E+02  0.64948918947E+02 -0.49717952683E+02  0.91199740818E+02  0.00000000000E+00 0. -1.
          1    1    1    2  502    0  0.40056526973E+01 -0.35261032734E+02  0.21419536350E+02  0.41450961635E+02  0.00000000000E+00 0. -1.
         22    1    1    2    0    0 -0.44699012427E+02 -0.23282123386E+02  0.14662270524E+01  0.50420321331E+02  0.00000000000E+00 0. -1.
         22    1    1    2    0    0  0.81031379437E+02 -0.64057628269E+01  0.17419535753E+02  0.83129768896E+02  0.00000000000E+00 0.  1.
</event>
<event>
 6    1  0.2809573E-005  0.5282172E+02  0.7818608E-02  0.1521027E+00
          2   -1    0    0  502    0  0.00000000000E+00  0.00000000000E+00  0.84211574869E+02  0.84211574869E+02  0.00000000000E+00 0. -1.
          1   -1    0    0  501    0 -0.00000000000E+00 -0.00000000000E+00 -0.24219902348E+03  0.24219902348E+03  0.00000000000E+00 0. -1.
          2    1    1    2  501    0  0.28502637750E+02  0.20484529401E+02 -0.11237951741E+03  0.11773347968E+03  0.00000000000E+00 0. -1.
          1    1    1    2  502    0 -0.33883258974E+02 -0.27364308748E+02 -0.70913184648E+02  0.83219951868E+02  0.00000000000E+00 0. -1.
         22    1    1    2    0    0 -0.12163714337E+02 -0.81036881231E+01  0.71949358223E+02  0.73418906669E+02  0.00000000000E+00 0. -1.
         22    1    1    2    0    0  0.17544335561E+02  0.14983467470E+02 -0.46644104776E+02  0.52038260136E+02  0.00000000000E+00 0.  1.
</event>
<event>
 6    1  0.2809573E-005  0.3404813E+02  0.7818608E-02  0.1576682E+00
          2   -1    0    0  502    0  0.00000000000E+00  0.00000000000E+00  0.96485877174E+02  0.96485877174E+02  0.00000000000E+00 0.  1.
          1   -1    0    0  501    0 -0.00000000000E+00 -0.00000000000E+00 -0.27727431212E+03  0.27727431212E+03  0.00000000000E+00 0.  1.
          2    1    1    2  501    0  0.22029230753E+02  0.27959747426E+00 -0.21127168331E+02  0.30524128554E+02  0.00000000000E+00 0.  1.
          1    1    1    2  502    0 -0.20102342367E+02  0.64342983112E+01 -0.20665797800E+03  0.20773306005E+03  0.00000000000E+00 0.  1.
         22    1    1    2    0    0 -0.15141539388E+02 -0.21726738812E+02  0.86912081530E+02  0.90857180841E+02  0.00000000000E+00 0.  1.
         22    1    1    2    0    0  0.13214651002E+02  0.15012843027E+02 -0.39915370137E+02  0.44645819849E+02  0.00000000000E+00 0. -1.
</event>
<event>
 6    1  0.2809573E-005  0.1185678E+03  0.7818608E-02  0.1270106E+00
          2   -1    0    0  502    0  0.00000000000E+00  0.00000000000E+00  0.82288375631E+03  0.82288375631E+03  0.00000000000E+00 0.  1.
          1   -1    0    0  501    0 -0.00000000000E+00 -0.00000000000E+00 -0.32382613848E+02  0.32382613848E+02  0.00000000000E+00 0.  1.
          2    1    1    2  501    0  0.54244233473E+02 -0.55710165158E+02  0.91544552567E+02  0.12011021802E+03  0.00000000000E+00 0.  1.
          1    1    1    2  502    0 -0.74230054261E+02 -0.18064289570E+02  0.33957449425E+03  0.34806214482E+03  0.00000000000E+00 0.  1.
         22    1    1    2    0    0 -0.36414449080E+02  0.63200229494E+02  0.27870110209E+03  0.28808780851E+03  0.00000000000E+00 0.  1.
         22    1    1    2    0    0  0.56400269868E+02  0.10574225234E+02  0.80680993557E+02  0.99006198805E+02  0.00000000000E+00 0. -1.
</event>
<event>
 6    1  0.2809573E-005  0.1909944E+03  0.7818608E-02  0.1235432E+00
          2   -1    0    0  502    0  0.00000000000E+00  0.00000000000E+00  0.70667158510E+03  0.70667158510E+03  0.00000000000E+00 0. -1.
          1   -1    0    0  501    0 -0.00000000000E+00 -0.00000000000E+00 -0.71443585509E+02  0.71443585509E+02  0.00000000000E+00 0. -1.
          2    1    1    2  501    0 -0.57866603901E+02  0.65263320386E+02  0.72349376164E+01  0.87522506575E+02  0.00000000000E+00 0. -1.
          1    1    1    2  502    0  0.11194379631E+03 -0.38325314767E+02  0.44937898483E+03  0.46469529295E+03  0.00000000000E+00 0. -1.
         22    1    1    2    0    0  0.28024844578E+02  0.20601272692E+02  0.88331780454E+02  0.94933175383E+02  0.00000000000E+00 0.  1.
         22    1    1    2    0    0 -0.82102036985E+02 -0.47539278311E+02  0.90282296689E+02  0.13096419570E+03  0.00000000000E+00 0.  1.
</event>
<event>
 6    1  0.2809573E-005  0.1035188E+03  0.7818608E-02  0.1309071E+00
          2   -1    0    0  502    0  0.00000000000E+00  0.00000000000E+00  0.16430754626E+03  0.16430754626E+03  0.00000000000E+00 0.  1.
          1   -1    0    0  501    0 -0.00000000000E+00 -0.00000000000E+00 -0.44653761933E+03  0.44653761933E+03  0.00000000000E+00 0.  1.
          2    1    1    2  501    0  0.27620644101E+02 -0.68306707081E+02 -0.30935204026E+03  0.31800533176E+03  0.00000000000E+00 0.  1.
          1    1    1    2  502    0 -0.53824348616E+02  0.12735655677E+03 -0.30329988420E+02  0.14155091400E+03  0.00000000000E+00 0.  1.
         22    1    1    2    0    0 -0.78583798217E+01 -0.18714613733E+02 -0.37503609876E+02  0.42644010767E+02  0.00000000000E+00 0. -1.
         22    1    1    2    0    0  0.34062084337E+02 -0.40335235956E+02  0.94955565491E+02  0.10864490907E+03  0.00000000000E+00 0.  1.
</event>
<event>
 6    1  0.2809573E-005  0.1339681E+03  0.7818608E-02  0.1239557E+00
          2   -1    0    0  502    0  0.00000000000E+00  0.00000000000E+00  0.93303860510E+02  0.93303860510E+02  0.00000000000E+00 0.  1.
          1   -1    0    0  501    0 -0.00000000000E+00 -0.00000000000E+00 -0.48567911385E+03  0.48567911385E+03  0.00000000000E+00 0.  1.
          2    1    1    2  501    0 -0.13550640542E+03  0.18710276302E+02 -0.18884012420E+03  0.23317944347E+03  0.00000000000E+00 0.  1.
          1    1    1    2  502    0  0.58776753771E+02  0.53073693282E+02 -0.15895086736E+03  0.17758632250E+03  0.00000000000E+00 0.  1.
         22    1    1    2    0    0  0.63161354367E+01 -0.14124810642E+02 -0.71624025461E+02  0.73276223058E+02  0.00000000000E+00 0.  1.
         22    1    1    2    0    0  0.70413516217E+02 -0.57659158942E+02  0.27039763683E+02  0.94940985333E+02  0.00000000000E+00 0.  1.
</event>
<event>
 6    1  0.2809573E-005  0.1960182E+03  0.7818608E-02  0.1279928E+00
          2   -1    0    0  502    0  0.00000000000E+00  0.00000000000E+00  0.58597418630E+02  0.58597418630E+02  0.00000000000E+00 0.  1.
          1   -1    0    0  501    0 -0.00000000000E+00 -0.00000000000E+00 -0.22680252451E+04  0.22680252451E+04  0.00000000000E+00 0.  1.
          2    1    1    2  501    0  0.26207794525E+02 -0.13843226746E+03 -0.19594066219E+03  0.24133604013E+03  0.00000000000E+00 0.  1.
          1    1    1    2  502    0 -0.39783422485E+02  0.18350531268E+03 -0.19059518629E+04  0.19151786925E+04  0.00000000000E+00 0.  1.
         22    1    1    2    0    0  0.26928778999E+02 -0.44390081861E+02 -0.13221238328E+03  0.14204137706E+03  0.00000000000E+00 0.  1.
         22    1    1    2    0    0 -0.13353151039E+02 -0.68296335656E+00  0.24677081927E+02  0.28066554010E+02  0.00000000000E+00 0.  1.
</event>
<event>
 6    1  0.2809573E-005  0.4818541E+02  0.7818608E-02  0.1466488E+00
          2   -1    0    0  502    0  0.00000000000E+00  0.00000000000E+00  0.14693845657E+03  0.14693845657E+03  0.00000000000E+00 0. -1.
          1   -1    0    0  501    0 -0.00000000000E+00 -0.00000000000E+00 -0.75324086747E+03  0.75324086747E+03  0.00000000000E+00 0.  1.
          2    1    1    2  501    0  0.24315638376E+02 -0.96395725203E+01 -0.86939095666E+01  0.27563666149E+02  0.00000000000E+00 0. -1.
          1    1    1    2  502    0  0.37234175052E+01  0.21605584787E+02 -0.70646748015E+03  0.70680758742E+03  0.00000000000E+00 0.  1.
         22    1    1    2    0    0  0.10267080713E+02  0.48356917493E+01 -0.23984924698E+02  0.26534382862E+02  0.00000000000E+00 0.  1.
         22    1    1    2    0    0 -0.38306136595E+02 -0.16801704016E+02  0.13284390351E+03  0.13927368760E+03  0.00000000000E+00 0. -1.
</event>
<event>
 6    1  0.2809573E-005  0.2536741E+03  0.7818608E-02  0.1162826E+00
          2   -1    0    0  502    0  0.00000000000E+00  0.00000000000E+00  0.29644690790E+03  0.29644690790E+03  0.00000000000E+00 0. -1.
          1   -1    0    0  501    0 -0.00000000000E+00 -0.00000000000E+00 -0.49113563456E+03  0.49113563456E+03  0.00000000000E+00 0. -1.
          2    1    1    2  501    0  0.12052328265E+03  0.15742925438E+03 -0.24785394140E+03  0.31739787028E+03  0.00000000000E+00 0. -1.
          1    1    1    2  502    0 -0.11097839671E+03 -0.26292025822E+03 -0.23959576374E+02  0.28638667570E+03  0.00000000000E+00 0. -1.
         22    1    1    2    0    0  0.17978935860E+02  0.38819926900E+02 -0.31695815080E+02  0.53243342802E+02  0.00000000000E+00 0.  1.
         22    1    1    2    0    0 -0.27523821795E+02  0.66671076936E+02  0.10882060619E+03  0.13055465368E+03  0.00000000000E+00 0. -1.
</event>
<event>
 6    1  0.2809573E-005  0.9854272E+02  0.7818608E-02  0.1376888E+00
          2   -1    0    0  502    0  0.00000000000E+00  0.00000000000E+00  0.68653271247E+02  0.68653271247E+02  0.00000000000E+00 0. -1.
          1   -1    0    0  501    0 -0.00000000000E+00 -0.00000000000E+00 -0.10913460681E+04  0.10913460681E+04  0.00000000000E+00 0.  1.
          2    1    1    2  501    0  0.47259279705E+02 -0.40971591740E+02 -0.44618260139E+02  0.76830332459E+02  0.00000000000E+00 0. -1.
          1    1    1    2  502    0 -0.62367046133E+02  0.69553778937E+02 -0.95148236174E+03  0.95605756171E+03  0.00000000000E+00 0.  1.
         22    1    1    2    0    0  0.32826131777E+02 -0.35409359086E+02 -0.66929487104E+02  0.82528382284E+02  0.00000000000E+00 0. -1.
         22    1    1    2    0    0 -0.17718365348E+02  0.68271718883E+01  0.40337312132E+02  0.44583062890E+02  0.00000000000E+00 0. -1.
</event>
<event>
 6    1  0.2809573E-005  0.8953407E+02  0.7818608E-02  0.1338323E+00
          2   -1    0    0  502    0  0.00000000000E+00  0.00000000000E+00  0.38344232872E+02  0.38344232872E+02  0.00000000000E+00 0.  1.
          1   -1    0    0  501    0 -0.00000000000E+00 -0.00000000000E+00 -0.18120327371E+04  0.18120327371E+04  0.00000000000E+00 0.  1.
          2    1    1    2  501    0  0.25675526031E+02  0.14705658797E+01 -0.49249200375E+02  0.55559688071E+02  0.00000000000E+00 0.  1.
          1    1    1    2  502    0 -0.41693926578E+02 -0.51521422352E+02 -0.16208707508E+04  0.16222252714E+04  0.00000000000E+00 0.  1.
         22    1    1    2    0    0  0.54316503072E+02  0.20254855862E+02  0.27492731440E+00  0.57970831260E+02  0.00000000000E+00 0.  1.
         22    1    1    2    0    0 -0.38298102524E+02  0.29796000611E+02 -0.10384348040E+03  0.11462117925E+03  0.00000000000E+00 0. -1.
</event>
<event>
 6    1  0.2809573E-005  0.9710786E+02  0.7818608E-02  0.1297827E+00
          2   -1    0    0  502    0  0.00000000000E+00  0.00000000000E+00  0.47999122290E+02  0.47999122290E+02  0.00000000000E+00 0.  1.
          1   -1    0    0  501    0 -0.00000000000E+00 -0.00000000000E+00 -0.31151428649E+03  0.31151428649E+03  0.00000000000E+00 0. -1.
          2    1    1    2  501    0 -0.13448397583E+02  0.48633603091E+02 -0.10796849059E+03  0.11917752182E+03  0.00000000000E+00 0.  1.
          1    1    1    2  502    0  0.93026919663E+01 -0.27397408909E+02 -0.98286300452E+02  0.10245660032E+03  0.00000000000E+00 0. -1.
         22    1    1    2    0    0  0.41645002481E+02 -0.58558536588E+02 -0.25934259937E+02  0.76393679564E+02  0.00000000000E+00 0. -1.
         22    1    1    2    0    0 -0.37499296864E+02  0.37322342405E+02 -0.31326113226E+02  0.61485607078E+02  0.00000000000E+00 0.  1.
</event>
<event>
 6    1  0.2809573E-005  0.1354913E+03  0.7818608E-02  0.1286658E+00
          2   -1    0    0  502    0  0.00000000000E+00  0.00000000000E+00  0.78968917846E+02  0.78968917846E+02  0.00000000000E+00 0.  1.
          1   -1    0    0  501    0 -0.00000000000E+00 -0.00000000000E+00 -0.76895577595E+03  0.76895577595E+03  0.00000000000E+00 0. -1.
          2    1    1    2  501    0 -0.85996019518E+02  0.78498799065E+01 -0.39094696080E+02  0.94790987172E+02  0.00000000000E+00 0.  1.
          1    1    1    2  502    0  0.12196908686E+03  0.16108680037E+02 -0.60067589192E+03  0.61314555764E+03  0.00000000000E+00 0. -1.
         22    1    1    2    0    0 -0.71436659335E+02 -0.27530187905E+02 -0.65930975655E+02  0.10103465294E+03  0.00000000000E+00 0.  1.
         22    1    1    2    0    0  0.35463591991E+02  0.35716279615E+01  0.15714705556E+02  0.38953496042E+02  0.00000000000E+00 0.  1.
</event>
<event>
 6    1  0.2809573E-005  0.6950801E+02  0.7818608E-02  0.1420626E+00
          2   -1    0    0  502    0  0.00000000000E+00  0.00000000000E+00  0.89217482229E+02  0.89217482229E+02  0.00000000000E+00 0. -1.
          1   -1    0    0  501    0 -0.00000000000E+00 -0.00000000000E+00 -0.19743018206E+03  0.19743018206E+03  0.00000000000E+00 0. -1.
          2    1    1    2  501    0 -0.24408311683E+02 -0.94486219267E+01 -0.93209222209E+02  0.96814261555E+02  0.00000000000E+00 0. -1.
          1    1    1    2  502    0 -0.22611948727E+02 -0.15165704080E+02 -0.41324107838E+02  0.49487177067E+02  0.00000000000E+00 0. -1.
         22    1    1    2    0    0  0.34166815627E+02  0.40695438401E+00 -0.49259306646E+02  0.59950114205E+02  0.00000000000E+00 0. -1.
         22    1    1    2    0    0  0.12853444783E+02  0.24207371622E+02  0.75579936857E+02  0.80396111467E+02  0.00000000000E+00 0. -1.
</event>
<event>
 6    1  0.2809573E-005  0.5134053E+02  0.7818608E-02  0.1444501E+00
          2   -1    0    0  502    0  0.00000000000E+00  0.00000000000E+00  0.20193026384E+03  0.20193026384E+03  0.00000000000E+00 0. -1.
          1   -1    0    0  501    0 -0.00000000000E+00 -0.00000000000E+00 -0.11422002265E+03  0.11422002265E+03  0.00000000000E+00 0. -1.
          2    1    1    2  501    0 -0.27257059605E+02  0.12591620296E+02  0.77534456115E+02  0.83144982321E+02  0.00000000000E+00 0. -1.
          1    1    1    2  502    0 -0.17405826956E+02 -0.99527131488E+01 -0.73241116873E+02  0.75936029076E+02  0.00000000000E+00 0. -1.
         22    1    1    2    0    0  0.61737791708E+02  0.17126729795E+00 -0.95792920371E+01  0.62476772431E+02  0.00000000000E+00 0. -1.
         22    1    1    2    0    0 -0.17074905147E+02 -0.28101744455E+01  0.92996193979E+02  0.94592502667E+02  0.00000000000E+00 0. -1.
</event>
<event>
 6    1  0.2809573E-005  0.1791853E+03  0.7818608E-02  0.1190592E+00
          2   -1    0    0  502    0  0.00000000000E+00  0.00000000000E+00  0.46043592040E+03  0.46043592040E+03  0.00000000000E+00 0. -1.
          1   -1    0    0  501    0 -0.00000000000E+00 -0.00000000000E+00 -0.31181656154E+03  0.31181656154E+03  0.00000000000E+00 0. -1.
          2    1    1    2  501    0 -0.13963194121E+03 -0.39519529254E+01  0.11937923468E+02  0.14019704332E+03  0.00000000000E+00 0. -1.
          1    1    1    2  502    0  0.21559037805E+02 -0.11633725623E+02 -0.22721533300E+03  0.22853214924E+03  0.00000000000E+00 0. -1.
         22    1    1    2    0    0  0.23396096141E+02 -0.36107930654E+02  0.29522036567E+02  0.52179599594E+02  0.00000000000E+00 0.  1.
         22    1    1    2    0    0  0.94676807267E+02  0.51693609203E+02  0.33437473183E+03  0.35134368979E+03  0.00000000000E+00 0. -1.
</event>
<event>
 6    1  0.2809573E-005  0.9019909E+02  0.7818608E-02  0.1349785E+00
          2   -1    0    0  502    0  0.00000000000E+00  0.00000000000E+00  0.25213696157E+02  0.25213696157E+02  0.00000000000E+00 0. -1.
          1   -1    0    0  501    0 -0.00000000000E+00 -0.00000000000E+00 -0.59240612100E+03  0.59240612100E+03  0.00000000000E+00 0. -1.
          2    1    1    2  501    0 -0.33846852846E+02  0.33347379031E+02 -0.18924411724E+03  0.19511789525E+03  0.00000000000E+00 0. -1.
          1    1    1    2  502    0  0.30950646431E+01 -0.58491295981E+02 -0.12899656314E+03  0.14167189006E+03  0.00000000000E+00 0. -1.
         22    1    1    2    0    0  0.99457852277E+01  0.58081698761E+02 -0.23014541030E+03  0.23756959456E+03  0.00000000000E+00 0. -1.
         22    1    1    2    0    0  0.20806002975E+02 -0.32937781810E+02 -0.18806334161E+02  0.43260437295E+02  0.00000000000E+00 0. -1.
</event>
<event>
 6    1  0.2809573E-005  0.1796185E+03  0.7818608E-02  0.1216571E+00
          2   -1    0    0  502    0  0.00000000000E+00  0.00000000000E+00  0.81535143304E+03  0.81535143304E+03  0.00000000000E+00 0. -1.
          1   -1    0    0  501    0 -0.00000000000E+00 -0.00000000000E+00 -0.31603491329E+03  0.31603491329E+03  0.00000000000E+00 0.  1.
          2    1    1    2  501    0  0.71576625992E+02  0.90769968181E+01  0.13782872687E+03  0.15557108733E+03  0.00000000000E+00 0. -1.
          1    1    1    2  502    0  0.38352894354E+02 -0.58363522004E+02 -0.29170926373E+03  0.29995256251E+03  0.00000000000E+00 0.  1.
         22    1    1    2    0    0 -0.77028969148E+02 -0.30050349286E+02  0.40118707244E+03  0.40961878945E+03  0.00000000000E+00 0. -1.
         22    1    1    2    0    0 -0.32900551198E+02  0.79336874472E+02  0.25200998417E+03  0.26624390705E+03  0.00000000000E+00 0. -1.
</event>
<event>
 6    1  0.2809573E-005  0.1043258E+03  0.7818608E-02  0.1300969E+00
          2   -1    0    0  502    0  0.00000000000E+00  0.00000000000E+00  0.51638057201E+02  0.51638057201E+02  0.00000000000E+00 0. -1.
          1   -1    0    0  501    0 -0.00000000000E+00 -0.00000000000E+00 -0.37231192102E+03  0.37231192102E+03  0.00000000000E+00 0. -1.
          2    1    1    2  501    0 -0.29577894437E+02  0.48497751845E+02 -0.12305221414E+03  0.13553129224E+03  0.00000000000E+00 0. -1.
          1    1    1    2  502    0  0.15032491117E+02 -0.68186941022E+02 -0.25122570196E+02  0.74206322159E+02  0.00000000000E+00 0. -1.
         22    1    1    2    0    0  0.44398937949E+02 -0.40083861982E+02 -0.89757743639E+02  0.10786303456E+03  0.00000000000E+00 0. -1.
         22    1    1    2    0    0 -0.29853534629E+02  0.59773051159E+02 -0.82741335845E+02  0.10634932925E+03  0.00000000000E+00 0.  1.
</event>
<event>
 6    1  0.2809573E-005  0.9776123E+02  0.7818608E-02  0.1291223E+00
          2   -1    0    0  502    0  0.00000000000E+00  0.00000000000E+00  0.39661049889E+03  0.39661049889E+03  0.00000000000E+00 0.  1.
          1   -1    0    0  501    0 -0.00000000000E+00 -0.00000000000E+00 -0.51378588003E+02  0.51378588003E+02  0.00000000000E+00 0.  1.
          2    1    1    2  501    0 -0.33162502782E+02 -0.24735428381E+02  0.95521070326E+00  0.41382429066E+02  0.00000000000E+00 0.  1.
          1    1    1    2  502    0 -0.27192740581E+02  0.16424640868E+02 -0.47039418952E+01  0.32114498864E+02  0.00000000000E+00 0.  1.
         22    1    1    2    0    0  0.92200307356E+02  0.49978565039E+01  0.31296919289E+03  0.32630597749E+03  0.00000000000E+00 0.  1.
         22    1    1    2    0    0 -0.31845063993E+02  0.33129310085E+01  0.36011449196E+02  0.48186181482E+02  0.00000000000E+00 0. -1.
</event>
<event>
 6    1  0.2809573E-005  0.3238303E+03  0.7818608E-02  0.1106016E+00
          2   -1    0    0  502    0  0.00000000000E+00  0.00000000000E+00  0.95321980518E+03  0.95321980518E+03  0.00000000000E+00 0. -1.
          1   -1    0    0  501    0 -0.00000000000E+00 -0.00000000000E+00 -0.50229213561E+03  0.50229213561E+03  0.00000000000E+00 0. -1.
          2    1    1    2  501    0  0.35854925505E+03 -0.27761093089E+01  0.26006179383E+03  0.44294177009E+03  0.00000000000E+00 0. -1.
          1    1    1    2  502    0 -0.29347774461E+03 -0.99068915116E+02 -0.33613229106E+03  0.45708724946E+03  0.00000000000E+00 0. -1.
         22    1    1    2    0    0 -0.74994496881E+02  0.11645242389E+03  0.51690872531E+03  0.53514481394E+03  0.00000000000E+00 0.  1.
         22    1    1    2    0    0  0.99229864405E+01 -0.14607399462E+02  0.10089441494E+02  0.20338107301E+02  0.00000000000E+00 0. -1.
</event>
<event>
 6    1  0.2809573E-005  0.4392609E+02  0.7818608E-02  0.1523936E+00
          2   -1    0    0  502    0  0.00000000000E+00  0.00000000000E+00  0.94710908074E+02  0.94710908074E+02  0.00000000000E+00 0. -1.
          1   -1    0    0  501    0 -0.00000000000E+00 -0.00000000000E+00 -0.52762857606E+03  0.52762857606E+03  0.00000000000E+00 0. -1.
          2    1    1    2  501    0  0.26327991823E+02  0.28602618551E+02 -0.15687745230E+03  0.16162242413E+03  0.00000000000E+00 0. -1.
          1    1    1    2  502    0 -0.34298618552E+02 -0.14099864626E+02 -0.32317420824E+03  0.32529489742E+03  0.00000000000E+00 0. -1.
         22    1    1    2    0    0  0.15824891551E+02  0.86500971212E+01 -0.40557348932E+02  0.44386370940E+02  0.00000000000E+00 0. -1.
         22    1    1    2    0    0 -0.78542648228E+01 -0.23152851046E+02  0.87691341488E+02  0.91035791640E+02  0.00000000000E+00 0. -1.
</event>
<event>
 6    1  0.2809573E-005  0.5524940E+02  0.7818608E-02  0.1501416E+00
          2   -1    0    0  502    0  0.00000000000E+00  0.00000000000E+00  0.10853183227E+03  0.10853183227E+03  0.00000000000E+00 0. -1.
          1   -1    0    0  501    0 -0.00000000000E+00 -0.00000000000E+00 -0.40501604643E+03  0.40501604643E+03  0.00000000000E+00 0. -1.
          2    1    1    2  501    0  0.38958243060E+02  0.18152688325E+02 -0.17713681456E+03  0.18227648194E+03  0.00000000000E+00 0. -1.
          1    1    1    2  502    0 -0.38327057295E+02 -0.37656034203E+02 -0.18174625658E+03  0.18952214122E+03  0.00000000000E+00 0. -1.
         22    1    1    2    0    0 -0.11670280791E+02  0.11882624987E+02  0.10023310320E+03  0.10160741709E+03  0.00000000000E+00 0. -1.
         22    1    1    2    0    0  0.11039095027E+02  0.76207208916E+01 -0.37834246230E+02  0.40141838445E+02  0.00000000000E+00 0.  1.
</event>
<event>
 6    1  0.3621145E-005  0.6016903E+02  0.7818608E-02  0.1414912E+00
          2   -1    0    0  502    0  0.00000000000E+00  0.00000000000E+00  0.28875637455E+03  0.28875637455E+03  0.00000000000E+00 0.  1.
          1   -1    0    0  501    0 -0.00000000000E+00 -0.00000000000E+00 -0.24386734305E+03  0.24386734305E+03  0.00000000000E+00 0.  1.
          2    1    1    2  501    0 -0.15056532295E+02 -0.79876490248E+02 -0.64059096772E+02  0.10349164574E+03  0.00000000000E+00 0.  1.
          1    1    1    2  502    0  0.22559194430E+02  0.42617331822E+02 -0.14109532090E+03  0.14910749077E+03  0.00000000000E+00 0.  1.
         22    1    1    2    0    0  0.40074399911E+01  0.45332731977E+02  0.25925321418E+03  0.26321729659E+03  0.00000000000E+00 0.  1.
         22    1    1    2    0    0 -0.11510102127E+02 -0.80735735508E+01 -0.92097650065E+01  0.16807284502E+02  0.00000000000E+00 0.  1.
</event>
<event>
 6    1  0.2809573E-005  0.8428730E+02  0.7818608E-02  0.1442710E+00
          2   -1    0    0  502    0  0.00000000000E+00  0.00000000000E+00  0.83730450674E+02  0.83730450674E+02  0.00000000000E+00 0. -1.
          1   -1    0    0  501    0 -0.00000000000E+00 -0.00000000000E+00 -0.18478951760E+03  0.18478951760E+03  0.00000000000E+00 0. -1.
          2    1    1    2  501    0 -0.38353707560E+02 -0.11153247037E+02 -0.43881045324E+02  0.59337576136E+02  0.00000000000E+00 0. -1.
          1    1    1    2  502    0  0.56479175170E+02 -0.34779991710E+02 -0.31713655737E+02  0.73520752250E+02  0.00000000000E+00 0. -1.
         22    1    1    2    0    0 -0.23394867954E+02  0.36444609031E+02 -0.74101242355E+02  0.85828453863E+02  0.00000000000E+00 0.  1.
         22    1    1    2    0    0  0.52694003435E+01  0.94886297162E+01  0.48636876493E+02  0.49833186020E+02  0.00000000000E+00 0. -1.
</event>
<event>
 6    1  0.2809573E-005  0.9388948E+02  0.7818608E-02  0.1321311E+00
          2   -1    0    0  502    0  0.00000000000E+00  0.00000000000E+00  0.16688315433E+03  0.16688315433E+03  0.00000000000E+00 0. -1.
          1   -1    0    0  501    0 -0.00000000000E+00 -0.00000000000E+00 -0.11798858318E+03  0.11798858318E+03  0.00000000000E+00 0. -1.
          2    1    1    2  501    0  0.10942991931E+02  0.38400582815E+02  0.21469770132E+02  0.45335470247E+02  0.00000000000E+00 0. -1.
          1    1    1    2  502    0 -0.37555174359E+02 -0.76627074553E+02 -0.33070433669E+02  0.91519141489E+02  0.00000000000E+00 0. -1.
         22    1    1    2    0    0 -0.26593395707E+02  0.58016898489E+02  0.64971435318E+02  0.91073907421E+02  0.00000000000E+00 0. -1.
         22    1    1    2    0    0  0.53205578135E+02 -0.19790406751E+02 -0.44762006284E+01  0.56943218351E+02  0.00000000000E+00 0.  1.
</event>
<event>
 6    1  0.2809573E-005  0.1002376E+03  0.7818608E-02  0.1389364E+00
          2   -1    0    0  502    0  0.00000000000E+00  0.00000000000E+00  0.96545242478E+02  0.96545242478E+02  0.00000000000E+00 0. -1.
          1   -1    0    0  501    0 -0.00000000000E+00 -0.00000000000E+00 -0.10491449706E+04  0.10491449706E+04  0.00000000000E+00 0. -1.
          2    1    1    2  501    0 -0.52926658106E+02 -0.57837283110E+02 -0.45856066493E+03  0.46521421504E+03  0.00000000000E+00 0. -1.
          1    1    1    2  502    0  0.53240105770E+02  0.59556281074E+02 -0.54084898697E+03  0.54671664158E+03  0.00000000000E+00 0. -1.
         22    1    1    2    0    0  0.14060100452E+02  0.15167546697E+01 -0.41699425747E+02  0.44032136866E+02  0.00000000000E+00 0.  1.
         22    1    1    2    0    0 -0.14373548116E+02 -0.32357526338E+01  0.88509349527E+02  0.89727219584E+02  0.00000000000E+00 0. -1.
</event>
<event>
 6    1  0.2809573E-005  0.3083141E+03  0.7818608E-02  0.1215770E+00
          2   -1    0    0  502    0  0.00000000000E+00  0.00000000000E+00  0.25515892015E+03  0.25515892015E+03  0.00000000000E+00 0. -1.
          1   -1    0    0  501    0 -0.00000000000E+00 -0.00000000000E+00 -0.36010818687E+03  0.36010818687E+03  0.00000000000E+00 0. -1.
          2    1    1    2  501    0  0.46899452823E+01 -0.53515321734E+02  0.91632406825E+01  0.54496332233E+02  0.00000000000E+00 0. -1.
          1    1    1    2  502    0  0.23584806075E+03  0.98854367544E+02  0.19718052599E+02  0.25648644280E+03  0.00000000000E+00 0. -1.
         22    1    1    2    0    0 -0.56321567147E+01  0.11100032575E+02  0.15796460694E+02  0.20111192975E+02  0.00000000000E+00 0. -1.
         22    1    1    2    0    0 -0.23490584932E+03 -0.56439078386E+02 -0.14962702069E+03  0.28417313901E+03  0.00000000000E+00 0. -1.
</event>
<event>
 6    1  0.2809573E-005  0.7152290E+02  0.7818608E-02  0.1438894E+00
          2   -1    0    0  502    0  0.00000000000E+00  0.00000000000E+00  0.99570490946E+02  0.99570490946E+02  0.00000000000E+00 0. -1.
          1   -1    0    0  501    0 -0.00000000000E+00 -0.00000000000E+00 -0.17604607574E+04  0.17604607574E+04  0.00000000000E+00 0. -1.
          2    1    1    2  501    0  0.49945183828E+01 -0.19871412073E+02 -0.19571734321E+02  0.28334978666E+02  0.00000000000E+00 0. -1.
          1    1    1    2  502    0  0.45103743842E+02  0.16321806747E+02 -0.16884074556E+04  0.16890886552E+04  0.00000000000E+00 0. -1.
         22    1    1    2    0    0  0.92534553405E+01  0.16370551216E+02  0.73882587954E+02  0.76238167512E+02  0.00000000000E+00 0. -1.
         22    1    1    2    0    0 -0.59351717566E+02 -0.12820945890E+02 -0.26793664494E+02  0.66369446950E+02  0.00000000000E+00 0. -1.
</event>
<event>
 6    1  0.2809573E-005  0.1434730E+03  0.7818608E-02  0.1309639E+00
          2   -1    0    0  502    0  0.00000000000E+00  0.00000000000E+00  0.77203841737E+02  0.77203841737E+02  0.00000000000E+00 0.  1.
          1   -1    0    0  501    0 -0.00000000000E+00 -0.00000000000E+00 -0.12239072432E+04  0.12239072432E+04  0.00000000000E+00 0.  1.
          2    1    1    2  501    0  0.46538413242E+00 -0.76003609287E+02 -0.99566204819E+02  0.12526050594E+03  0.00000000000E+00 0.  1.
          1    1    1    2  502    0 -0.36604963656E+02  0.12692628468E+03 -0.10212767123E+04  0.10297846028E+04  0.00000000000E+00 0.  1.
         22    1    1    2    0    0 -0.55066617419E+01  0.18838525635E+02  0.37971105541E+02  0.42743633768E+02  0.00000000000E+00 0.  1.
         22    1    1    2    0    0  0.41646241265E+02 -0.69761201025E+02 -0.63831589956E+02  0.10332234248E+03  0.00000000000E+00 0.  1.
</event>
<event>
 6    1  0.2809573E-005  0.2162792E+03  0.7818608E-02  0.1192720E+00
          2   -1    0    0  502    0  0.00000000000E+00  0.00000000000E+00  0.17678776276E+03  0.17678776276E+03  0.00000000000E+00 0. -1.
          1   -1    0    0  501    0 -0.00000000000E+00 -0.00000000000E+00 -0.44081929120E+03  0.44081929120E+03  0.00000000000E+00 0.  1.
          2    1    1    2  501    0 -0.15816630698E+03 -0.66396098217E+02 -0.49612620358E+02  0.17856773119E+03  0.00000000000E+00 0. -1.
          1    1    1    2  502    0  0.80460871489E+02  0.78331253511E+02 -0.25866773864E+03  0.28199066674E+03  0.00000000000E+00 0.  1.
         22    1    1    2    0    0  0.45342579582E+02 -0.61597285282E+02 -0.94473099806E+01  0.77067676384E+02  0.00000000000E+00 0. -1.
         22    1    1    2    0    0  0.32362855909E+02  0.49662129988E+02  0.53696140540E+02  0.79980979654E+02  0.00000000000E+00 0. -1.
</event>
<event>
 6    1  0.2809573E-005  0.6475142E+02  0.7818608E-02  0.1395158E+00
          2   -1    0    0  502    0  0.00000000000E+00  0.00000000000E+00  0.25226852479E+02  0.25226852479E+02  0.00000000000E+00 0. -1.
          1   -1    0    0  501    0 -0.00000000000E+00 -0.00000000000E+00 -0.12796085870E+04  0.12796085870E+04  0.00000000000E+00 0.  1.
          2    1    1    2  501    0  0.11675086541E+02 -0.31028112125E+02 -0.76840426805E+02  0.83686931951E+02  0.00000000000E+00 0. -1.
          1    1    1    2  502    0  0.21673954243E+02  0.18244147791E+02 -0.99078386792E+03  0.99118882266E+03  0.00000000000E+00 0.  1.
         22    1    1    2    0    0 -0.25515438201E+02 -0.34785459175E+02 -0.17513282574E+03  0.18036788075E+03  0.00000000000E+00 0. -1.
         22    1    1    2    0    0 -0.78336025822E+01  0.47569423509E+02 -0.11624614036E+02  0.49591804100E+02  0.00000000000E+00 0. -1.
</event>
<event>
 6    1  0.2809573E-005  0.1303812E+03  0.7818608E-02  0.1230898E+00
          2   -1    0    0  502    0  0.00000000000E+00  0.00000000000E+00  0.35755107784E+03  0.35755107784E+03  0.00000000000E+00 0. -1.
          1   -1    0    0  501    0 -0.00000000000E+00 -0.00000000000E+00 -0.11419578252E+04  0.11419578252E+04  0.00000000000E+00 0. -1.
          2    1    1    2  501    0 -0.76843594810E+02  0.37358083254E+02  0.77895515707E+02  0.11562126022E+03  0.00000000000E+00 0. -1.
          1    1    1    2  502    0 -0.29312557900E+02 -0.61947926800E+01 -0.10966072269E+04  0.10970164135E+04  0.00000000000E+00 0. -1.
         22    1    1    2    0    0 -0.18763472421E+02  0.15521130479E+02  0.76401291381E+02  0.80188095833E+02  0.00000000000E+00 0. -1.
         22    1    1    2    0    0  0.12491962513E+03 -0.46684421053E+02  0.15790367240E+03  0.20668313349E+03  0.00000000000E+00 0. -1.
</event>
<event>
 6    1  0.2809573E-005  0.1427905E+03  0.7818608E-02  0.1211318E+00
          2   -1    0    0  502    0  0.00000000000E+00  0.00000000000E+00  0.20405996536E+03  0.20405996536E+03  0.00000000000E+00 0. -1.
          1   -1    0    0  501    0 -0.00000000000E+00 -0.00000000000E+00 -0.81737393610E+03  0.81737393610E+03  0.00000000000E+00 0. -1.
          2    1    1    2  501    0 -0.11999546349E+03  0.27330960172E+02  0.11968199358E+03  0.17166733012E+03  0.00000000000E+00 0. -1.
          1    1    1    2  502    0 -0.24357693456E+02  0.18892607687E+02 -0.62209215757E+03  0.62285542493E+03  0.00000000000E+00 0. -1.
         22    1    1    2    0    0 -0.12526325834E+02 -0.96974406562E+01  0.15497301903E+02  0.22161127238E+02  0.00000000000E+00 0. -1.
         22    1    1    2    0    0  0.15687948278E+03 -0.36526127202E+02 -0.12640110865E+03  0.20475001918E+03  0.00000000000E+00 0. -1.
</event>
<event>
 6    1  0.2809573E-005  0.8010157E+02  0.7818608E-02  0.1391365E+00
          2   -1    0    0  502    0  0.00000000000E+00  0.00000000000E+00  0.11241973761E+03  0.11241973761E+03  0.00000000000E+00 0. -1.
          1   -1    0    0  501    0 -0.00000000000E+00 -0.00000000000E+00 -0.31718387293E+03  0.31718387293E+03  0.00000000000E+00 0. -1.
          2    1    1    2  501    0  0.29771948074E+02 -0.28535793808E+02 -0.11051622175E+03  0.11795972063E+03  0.00000000000E+00 0. -1.
          1    1    1    2  502    0  0.12285713339E+02  0.56369891723E+02 -0.15297451437E+03  0.16349221845E+03  0.00000000000E+00 0. -1.
         22    1    1    2    0    0 -0.27543696249E+02  0.47967011426E+01  0.93931359553E+02  0.98003897128E+02  0.00000000000E+00 0. -1.
         22    1    1    2    0    0 -0.14513965164E+02 -0.32630799057E+02 -0.35204758754E+02  0.50147774336E+02  0.00000000000E+00 0. -1.
</event>
<event>
 6    1  0.2809573E-005  0.1889663E+03  0.7818608E-02  0.1272433E+00
          2   -1    0    0  502    0  0.00000000000E+00  0.00000000000E+00  0.14718466531E+03  0.14718466531E+03  0.00000000000E+00 0. -1.
          1   -1    0    0  501    0 -0.00000000000E+00 -0.00000000000E+00 -0.58767047047E+03  0.58767047047E+03  0.00000000000E+00 0. -1.
          2    1    1    2  501    0 -0.12443657771E+03 -0.90022795481E+02 -0.34881058397E+03  0.38112647385E+03  0.00000000000E+00 0. -1.
          1    1    1    2  502    0  0.16797908284E+03  0.92916847167E+02 -0.46786086982E+01  0.19202187932E+03  0.00000000000E+00 0. -1.
         22    1    1    2    0    0 -0.15403411859E+02 -0.77140613356E+01  0.33609749863E+02  0.37767540627E+02  0.00000000000E+00 0. -1.
         22    1    1    2    0    0 -0.28139093277E+02  0.48200096497E+01 -0.12060636235E+03  0.12393924198E+03  0.00000000000E+00 0.  1.
</event>
<event>
 6    1  0.2809573E-005  0.1089297E+03  0.7818608E-02  0.1369873E+00
          2   -1    0    0  502    0  0.00000000000E+00  0.00000000000E+00  0.10867794180E+03  0.10867794180E+03  0.00000000000E+00 0. -1.
          1   -1    0    0  501    0 -0.00000000000E+00 -0.00000000000E+00 -0.71051838552E+03  0.71051838552E+03  0.00000000000E+00 0. -1.
          2    1    1    2  501    0  0.31719452067E+02 -0.46259489482E+02 -0.50635760398E+03  0.50945469584E+03  0.00000000000E+00 0. -1.
          1    1    1    2  502    0 -0.18999916855E+02  0.90742383604E+02  0.56672513460E+02  0.10865979387E+03  0.00000000000E+00 0. -1.
         22    1    1    2    0    0  0.13020358866E+02 -0.89147812995E+01  0.18819577959E+02  0.24559714680E+02  0.00000000000E+00 0.  1.
         22    1    1    2    0    0 -0.25739894078E+02 -0.35568112822E+02 -0.17097493116E+03  0.17652212293E+03  0.00000000000E+00 0. -1.
</event>
<event>
 6    1  0.2809573E-005  0.1744565E+03  0.7818608E-02  0.1174045E+00
          2   -1    0    0  502    0  0.00000000000E+00  0.00000000000E+00  0.59588016188E+03  0.59588016188E+03  0.00000000000E+00 0. -1.
          1   -1    0    0  501    0 -0.00000000000E+00 -0.00000000000E+00 -0.60797420852E+03  0.60797420852E+03  0.00000000000E+00 0.  1.
          2    1    1    2  501    0  0.17242451799E+03 -0.15936624697E+01  0.28742449956E+03  0.33517994736E+03  0.00000000000E+00 0. -1.
          1    1    1    2  502    0 -0.53281454613E+02  0.54320329574E+02 -0.55249805348E+03  0.55771292859E+03  0.00000000000E+00 0.  1.
         22    1    1    2    0    0 -0.14117166276E+03 -0.61645455878E+02  0.19648463392E+03  0.24967140798E+03  0.00000000000E+00 0.  1.
         22    1    1    2    0    0  0.22028599390E+02  0.89187887729E+01  0.56494873358E+02  0.61290086475E+02  0.00000000000E+00 0. -1.
</event>
<event>
 6    1  0.2809573E-005  0.7964362E+02  0.7818608E-02  0.1351807E+00
          2   -1    0    0  502    0  0.00000000000E+00  0.00000000000E+00  0.14212109629E+03  0.14212109629E+03  0.00000000000E+00 0. -1.
          1   -1    0    0  501    0 -0.00000000000E+00 -0.00000000000E+00 -0.38357971822E+03  0.38357971822E+03  0.00000000000E+00 0. -1.
          2    1    1    2  501    0  0.26151404420E+02  0.50761840748E+02 -0.12651644415E+03  0.13880587549E+03  0.00000000000E+00 0. -1.
          1    1    1    2  502    0  0.75257202408E+01 -0.19381972212E+02 -0.21641320405E+03  0.21740968745E+03  0.00000000000E+00 0. -1.
         22    1    1    2    0    0 -0.14419399802E+02 -0.52146413743E+02  0.12269468670E+03  0.13409382425E+03  0.00000000000E+00 0. -1.
         22    1    1    2    0    0 -0.19257724858E+02  0.20766545207E+02 -0.21223660428E+02  0.35391427331E+02  0.00000000000E+00 0.  1.
</event>
<event>
 6    1  0.2809573E-005  0.1274866E+03  0.7818608E-02  0.1233254E+00
          2   -1    0    0  502    0  0.00000000000E+00  0.00000000000E+00  0.83098106629E+03  0.83098106629E+03  0.00000000000E+00 0.  1.
          1   -1    0    0  501    0 -0.00000000000E+00 -0.00000000000E+00 -0.12607115859E+04  0.12607115859E+04  0.00000000000E+00 0.  1.
          2    1    1    2  501    0  0.77569425533E+02 -0.80975762518E+02  0.49383709315E+03  0.50640810071E+03  0.00000000000E+00 0.  1.
          1    1    1    2  502    0 -0.46506491872E+02  0.21526390697E+02 -0.12385631967E+04  0.12396229392E+04  0.00000000000E+00 0.  1.
         22    1    1    2    0    0 -0.61305953638E+02  0.67312559837E+02  0.13410105306E+03  0.16208791779E+03  0.00000000000E+00 0. -1.
         22    1    1    2    0    0  0.30243019977E+02 -0.78631880170E+01  0.18089453089E+03  0.18357369444E+03  0.00000000000E+00 0.  1.
</event>
<event>
 6    1  0.2809573E-005  0.1725556E+03  0.7818608E-02  0.1224103E+00
          2   -1    0    0  502    0  0.00000000000E+00  0.00000000000E+00  0.11786901389E+03  0.11786901389E+03  0.00000000000E+00 0. -1.
          1   -1    0    0  501    0 -0.00000000000E+00 -0.00000000000E+00 -0.91571086694E+03  0.91571086694E+03  0.00000000000E+00 0. -1.
          2    1    1    2  501    0  0.62125828434E+02 -0.31928937469E+02 -0.49842818863E+02  0.85810152072E+02  0.00000000000E+00 0. -1.
          1    1    1    2  502    0 -0.28339262657E+02 -0.29909448037E+02 -0.79633817763E+03  0.79740339981E+03  0.00000000000E+00 0. -1.
         22    1    1    2    0    0  0.38617224279E+02  0.57206856099E+02  0.15559872252E+02  0.70753261552E+02  0.00000000000E+00 0. -1.
         22    1    1    2    0    0 -0.72403790056E+02  0.46315294065E+01  0.32779271194E+02  0.79613067389E+02  0.00000000000E+00 0. -1.
</event>
<event>
 6    1  0.2809573E-005  0.3084387E+03  0.7818608E-02  0.1082466E+00
          2   -1    0    0  502    0  0.00000000000E+00  0.00000000000E+00  0.10251343642E+04  0.10251343642E+04  0.00000000000E+00 0.  1.
          1   -1    0    0  501    0 -0.00000000000E+00 -0.00000000000E+00 -0.14042722335E+03  0.14042722335E+03  0.00000000000E+00 0.  1.
          2    1    1    2  501    0  0.28146172364E+03  0.86800667298E+01  0.23114002484E+03  0.36430997312E+03  0.00000000000E+00 0.  1.
          1    1    1    2  502    0  0.78761453746E+01  0.96754432763E+02  0.30731643936E+03  0.32228380013E+03  0.00000000000E+00 0.  1.
         22    1    1    2    0    0 -0.29169535348E+03 -0.11806099304E+03  0.34346439546E+03  0.46582439638E+03  0.00000000000E+00 0.  1.
         22    1    1    2    0    0  0.23574844631E+01  0.12626493547E+02  0.27862812197E+01  0.13143417946E+02  0.00000000000E+00 0.  1.
</event>
<event>
 6    1  0.2809573E-005  0.9787497E+02  0.7818608E-02  0.1290948E+00
          2   -1    0    0  502    0  0.00000000000E+00  0.00000000000E+00  0.82274750017E+03  0.82274750017E+03  0.00000000000E+00 0. -1.
          1   -1    0    0  501    0 -0.00000000000E+00 -0.00000000000E+00 -0.30338953785E+02  0.30338953785E+02  0.00000000000E+00 0. -1.
          2    1    1    2  501    0 -0.39883184920E+02  0.30811587072E+02  0.11913674093E+03  0.12935836029E+03  0.00000000000E+00 0. -1.
          1    1    1    2  502    0 -0.15185447975E+02 -0.17777542798E+02 -0.10993721603E+02  0.25836036322E+02  0.00000000000E+00 0. -1.
         22    1    1    2    0    0 -0.59960396035E+01  0.48043691550E+02  0.18609268081E+03  0.19228789520E+03  0.00000000000E+00 0. -1.
         22    1    1    2    0    0  0.61064672498E+02 -0.61077735824E+02  0.49817284625E+03  0.50560416215E+03  0.00000000000E+00 0. -1.
</event>
<event>
 6    1  0.2809573E-005  0.1745279E+03  0.7818608E-02  0.1256111E+00
          2   -1    0    0  502    0  0.00000000000E+00  0.00000000000E+00  0.23437912708E+03  0.23437912708E+03  0.00000000000E+00 0.  1.
          1   -1    0    0  501    0 -0.00000000000E+00 -0.00000000000E+00 -0.35529216075E+03  0.35529216075E+03  0.00000000000E+00 0.  1.
          2    1    1    2  501    0  0.24333149636E+02 -0.11956793834E+01 -0.21221715619E+02  0.32309333546E+02  0.00000000000E+00 0.  1.
          1    1    1    2  502    0  0.45960922897E+02  0.37532927181E+02 -0.30015896699E+03  0.30596818874E+03  0.00000000000E+00 0.  1.
         22    1    1    2    0    0 -0.96851103862E+02 -0.50442413777E+02  0.19074365707E+03  0.21979016388E+03  0.00000000000E+00 0.  1.
         22    1    1    2    0    0  0.26557031329E+02  0.14105165980E+02  0.97239918676E+01  0.31603601665E+02  0.00000000000E+00 0.  1.
</event>
<event>
 6    1  0.2809573E-005  0.1962623E+03  0.7818608E-02  0.1219742E+00
          2   -1    0    0  502    0  0.00000000000E+00  0.00000000000E+00  0.43637681960E+03  0.43637681960E+03  0.00000000000E+00 0.  1.
          1   -1    0    0  501    0 -0.00000000000E+00 -0.00000000000E+00 -0.25139619669E+04  0.25139619669E+04  0.00000000000E+00 0.  1.
          2    1    1    2  501    0 -0.13894745350E+02  0.72767964266E+02  0.41627285720E+02  0.84976887965E+02  0.00000000000E+00 0.  1.
          1    1    1    2  502    0 -0.78650395894E+02 -0.15619116507E+03 -0.24675373296E+04  0.24737263466E+04  0.00000000000E+00 0.  1.
         22    1    1    2    0    0  0.56442064339E+02  0.10923123855E+03  0.18307538169E+03  0.22053064523E+03  0.00000000000E+00 0.  1.
         22    1    1    2    0    0  0.36103076904E+02 -0.25808037752E+02  0.16524951483E+03  0.17110490678E+03  0.00000000000E+00 0.  1.
</event>
<event>
 6    1  0.2809573E-005  0.1265444E+03  0.7818608E-02  0.1364315E+00
          2   -1    0    0  502    0  0.00000000000E+00  0.00000000000E+00  0.96505613029E+02  0.96505613029E+02  0.00000000000E+00 0.  1.
          1   -1    0    0  501    0 -0.00000000000E+00 -0.00000000000E+00 -0.38782898922E+03  0.38782898922E+03  0.00000000000E+00 0.  1.
          2    1    1    2  501    0 -0.59824083695E+02 -0.17543606376E+02 -0.44809675192E+02  0.76776338187E+02  0.00000000000E+00 0.  1.
          1    1    1    2  502    0  0.10525873013E+03  0.61351815499E+02 -0.23572214944E+03  0.26534576927E+03  0.00000000000E+00 0.  1.
         22    1    1    2    0    0 -0.34950169536E+02 -0.47264828698E+02 -0.64565782527E+02  0.87316771904E+02  0.00000000000E+00 0. -1.
         22    1    1    2    0    0 -0.10484476898E+02  0.34566195748E+01  0.53774230970E+02  0.54895722885E+02  0.00000000000E+00 0.  1.
</event>
<event>
 6    1  0.2809573E-005  0.1447078E+03  0.7818608E-02  0.1301300E+00
          2   -1    0    0  502    0  0.00000000000E+00  0.00000000000E+00  0.18560788366E+03  0.18560788366E+03  0.00000000000E+00 0. -1.
          1   -1    0    0  501    0 -0.00000000000E+00 -0.00000000000E+00 -0.13075415180E+03  0.13075415180E+03  0.00000000000E+00 0. -1.
          2    1    1    2  501    0 -0.77152214718E+01 -0.40831210441E+02  0.21668491144E+02  0.46864014947E+02  0.00000000000E+00 0. -1.
          1    1    1    2  502    0  0.29882163328E+02 -0.46449319635E+02 -0.63616972414E+02  0.84247267961E+02  0.00000000000E+00 0. -1.
         22    1    1    2    0    0  0.11550996061E+02 -0.19049571741E+02  0.65808077843E+02  0.69476721302E+02  0.00000000000E+00 0. -1.
         22    1    1    2    0    0 -0.33717937918E+02  0.10633010182E+03  0.30994135288E+02  0.11577403125E+03  0.00000000000E+00 0. -1.
</event>
<event>
 6    1  0.2809573E-005  0.1632974E+03  0.7818608E-02  0.1251147E+00
          2   -1    0    0  502    0  0.00000000000E+00  0.00000000000E+00  0.25332529274E+03  0.25332529274E+03  0.00000000000E+00 0. -1.
          1   -1    0    0  501    0 -0.00000000000E+00 -0.00000000000E+00 -0.52713015834E+03  0.52713015834E+03  0.00000000000E+00 0.  1.
          2    1    1    2  501    0  0.19959884377E+02 -0.23360419721E+02  0.38654830435E+02  0.49379166759E+02  0.00000000000E+00 0. -1.
          1    1    1    2  502    0 -0.14439197192E+03  0.69435393292E+02 -0.46602798097E+03  0.49280056254E+03  0.00000000000E+00 0.  1.
         22    1    1    2    0    0  0.17265771885E+02  0.36651408320E+02  0.64678412168E+02  0.76319916216E+02  0.00000000000E+00 0.  1.
         22    1    1    2    0    0  0.10716631566E+03 -0.82726381891E+02  0.88889872763E+02  0.16195580556E+03  0.00000000000E+00 0. -1.
</event>
<event>
 6    1  0.2809573E-005  0.6168260E+02  0.7818608E-02  0.1465583E+00
          2   -1    0    0  502    0  0.00000000000E+00  0.00000000000E+00  0.39364461476E+02  0.39364461476E+02  0.00000000000E+00 0.  1.
          1   -1    0    0  501    0 -0.00000000000E+00 -0.00000000000E+00 -0.38458310497E+03  0.38458310497E+03  0.00000000000E+00 0.  1.
          2    1    1    2  501    0  0.11253255969E+02 -0.18513832815E+02 -0.22740865609E+02  0.31409309831E+02  0.00000000000E+00 0.  1.
          1    1    1    2  502    0  0.24209864993E+02 -0.45673395650E+00 -0.23805747163E+03  0.23928578305E+03  0.00000000000E+00 0.  1.
         22    1    1    2    0    0  0.32302482230E+01  0.19543492276E+02  0.28033960340E+02  0.34326163874E+02  0.00000000000E+00 0.  1.
         22    1    1    2    0    0 -0.38693369185E+02 -0.57292550462E+00 -0.11245426659E+03  0.11892630969E+03  0.00000000000E+00 0.  1.
</event>
<event>
 6    1  0.2809573E-005  0.3162772E+03  0.7818608E-02  0.1155423E+00
          2   -1    0    0  502    0  0.00000000000E+00  0.00000000000E+00  0.40600057895E+03  0.40600057895E+03  0.00000000000E+00 0.  1.
          1   -1    0    0  501    0 -0.00000000000E+00 -0.00000000000E+00 -0.55957878839E+03  0.55957878839E+03  0.00000000000E+00 0. -1.
          2    1    1    2  501    0  0.33301533118E+02  0.11063452993E+03 -0.16541358535E+02  0.11671592806E+03  0.00000000000E+00 0.  1.
          1    1    1    2  502    0 -0.40098369661E+02 -0.98133941474E+01 -0.47344946991E+03  0.47524581272E+03  0.00000000000E+00 0. -1.
         22    1    1    2    0    0 -0.39568353372E+02 -0.10843221852E+03  0.24549857376E+03  0.27127983766E+03  0.00000000000E+00 0.  1.
         22    1    1    2    0    0  0.46365189916E+02  0.76110827359E+01  0.90914045237E+02  0.10233778890E+03  0.00000000000E+00 0.  1.
</event>
<event>
 6    1  0.2809573E-005  0.1035381E+03  0.7818608E-02  0.1324561E+00
          2   -1    0    0  502    0  0.00000000000E+00  0.00000000000E+00  0.13863783320E+03  0.13863783320E+03  0.00000000000E+00 0. -1.
          1   -1    0    0  501    0 -0.00000000000E+00 -0.00000000000E+00 -0.25180994840E+03  0.25180994840E+03  0.00000000000E+00 0.  1.
          2    1    1    2  501    0  0.15516598996E+02  0.23157177785E+02 -0.45844552698E+02  0.53653916348E+02  0.00000000000E+00 0. -1.
          1    1    1    2  502    0 -0.62098038223E+02 -0.13653073684E+02 -0.16346946990E+03  0.17539908883E+03  0.00000000000E+00 0.  1.
         22    1    1    2    0    0 -0.20173017335E+02 -0.34484767066E+02  0.78325521773E+02  0.87926316590E+02  0.00000000000E+00 0. -1.
         22    1    1    2    0    0  0.66754456563E+02  0.24980662965E+02  0.17816385623E+02  0.73468459830E+02  0.00000000000E+00 0. -1.
</event>
<event>
 6    1  0.2809573E-005  0.1234534E+03  0.7818608E-02  0.1311002E+00
          2   -1    0    0  502    0  0.00000000000E+00  0.00000000000E+00  0.93589202284E+02  0.93589202284E+02  0.00000000000E+00 0.  1.
          1   -1    0    0  501    0 -0.00000000000E+00 -0.00000000000E+00 -0.21684474963E+04  0.21684474963E+04  0.00000000000E+00 0. -1.
          2    1    1    2  501    0  0.11426459499E+03 -0.64456546282E+02 -0.28371977817E+03  0.31258271953E+03  0.00000000000E+00 0.  1.
          1    1    1    2  502    0 -0.97445480188E+02  0.66510338369E+02 -0.18138664558E+04  0.18176993058E+04  0.00000000000E+00 0. -1.
         22    1    1    2    0    0  0.13226041794E+02 -0.28169715176E+01 -0.50669077738E+02  0.52442529962E+02  0.00000000000E+00 0.  1.
         22    1    1    2    0    0 -0.30045156597E+02  0.76317942995E+00  0.73397017671E+02  0.79312143338E+02  0.00000000000E+00 0.  1.
</event>
<event>
 6    1  0.2809573E-005  0.1381142E+03  0.7818608E-02  0.1341126E+00
          2   -1    0    0  502    0  0.00000000000E+00  0.00000000000E+00  0.10134991109E+03  0.10134991109E+03  0.00000000000E+00 0. -1.
          1   -1    0    0  501    0 -0.00000000000E+00 -0.00000000000E+00 -0.11812893358E+04  0.11812893358E+04  0.00000000000E+00 0. -1.
          2    1    1    2  501    0  0.49314457608E+02  0.67643707102E+02 -0.17459743019E+02  0.85512744465E+02  0.00000000000E+00 0. -1.
          1    1    1    2  502    0 -0.49428392539E+01 -0.64990452244E+02 -0.10598773136E+04  0.10618795178E+04  0.00000000000E+00 0. -1.
         22    1    1    2    0    0 -0.33815365890E+02 -0.95185181421E+01 -0.63765027739E+02  0.72801510427E+02  0.00000000000E+00 0. -1.
         22    1    1    2    0    0 -0.10556252464E+02  0.68652632840E+01  0.61162659651E+02  0.62445474149E+02  0.00000000000E+00 0. -1.
</event>
<event>
 6    1  0.2809573E-005  0.7028678E+02  0.7818608E-02  0.1447419E+00
          2   -1    0    0  502    0  0.00000000000E+00  0.00000000000E+00  0.41880721262E+02  0.41880721262E+02  0.00000000000E+00 0. -1.
          1   -1    0    0  501    0 -0.00000000000E+00 -0.00000000000E+00 -0.21395782321E+04  0.21395782321E+04  0.00000000000E+00 0.  1.
          2    1    1    2  501    0 -0.29372042478E+02  0.48637419288E+02 -0.12591387904E+03  0.13813985801E+03  0.00000000000E+00 0. -1.
          1    1    1    2  502    0  0.40595644056E+02 -0.50411256543E+02 -0.18979889611E+04  0.18990922562E+04  0.00000000000E+00 0.  1.
         22    1    1    2    0    0 -0.16400183921E+02  0.18442511960E+02 -0.10533044821E+03  0.10818315766E+03  0.00000000000E+00 0. -1.
         22    1    1    2    0    0  0.51765823427E+01 -0.16668674705E+02  0.31535777452E+02  0.36043681564E+02  0.00000000000E+00 0. -1.
</event>
<event>
 6    1  0.2809573E-005  0.1253440E+03  0.7818608E-02  0.1265091E+00
          2   -1    0    0  502    0  0.00000000000E+00  0.00000000000E+00  0.19429126032E+03  0.19429126032E+03  0.00000000000E+00 0.  1.
          1   -1    0    0  501    0 -0.00000000000E+00 -0.00000000000E+00 -0.23149888715E+03  0.23149888715E+03  0.00000000000E+00 0.  1.
          2    1    1    2  501    0  0.86916627328E+02 -0.65243778331E+01  0.57832506019E+02  0.10460242045E+03  0.00000000000E+00 0.  1.
          1    1    1    2  502    0 -0.25176612532E+02  0.11000054269E+02 -0.16601160965E+03  0.16826977611E+03  0.00000000000E+00 0.  1.
         22    1    1    2    0    0 -0.51081971268E+02 -0.20181295427E+02 -0.21154406012E+02  0.58857126735E+02  0.00000000000E+00 0.  1.
         22    1    1    2    0    0 -0.10658043528E+02  0.15705618990E+02  0.92125882818E+02  0.94060824176E+02  0.00000000000E+00 0.  1.
</event>
<event>
 6    1  0.2809573E-005  0.3580407E+03  0.7818608E-02  0.1153597E+00
          2   -1    0    0  502    0  0.00000000000E+00  0.00000000000E+00  0.17364156270E+04  0.17364156270E+04  0.00000000000E+00 0.  1.
          1   -1    0    0  501    0 -0.00000000000E+00 -0.00000000000E+00 -0.54002299675E+03  0.54002299675E+03  0.00000000000E+00 0. -1.
          2    1    1    2  501    0 -0.18245116614E+03  0.21569633786E+03  0.10747330200E+04  0.11112445287E+04  0.00000000000E+00 0.  1.
          1    1    1    2  502    0  0.20932573717E+03 -0.28206355210E+03 -0.45319588199E+03  0.57337912337E+03  0.00000000000E+00 0. -1.
         22    1    1    2    0    0  0.31650511832E+02 -0.33057350504E+01  0.50986729828E+02  0.60102657195E+02  0.00000000000E+00 0.  1.
         22    1    1    2    0    0 -0.58525082865E+02  0.69672949288E+02  0.52386876237E+03  0.53171231449E+03  0.00000000000E+00 0.  1.
</event>
<event>
 6    1  0.2809573E-005  0.1333612E+03  0.7818608E-02  0.1330921E+00
          2   -1    0    0  502    0  0.00000000000E+00  0.00000000000E+00  0.68288147843E+02  0.68288147843E+02  0.00000000000E+00 0.  1.
          1   -1    0    0  501    0 -0.00000000000E+00 -0.00000000000E+00 -0.16323351603E+04  0.16323351603E+04  0.00000000000E+00 0.  1.
          2    1    1    2  501    0 -0.17067937656E+02  0.52635435780E+02 -0.36594092955E+02  0.66339514882E+02  0.00000000000E+00 0.  1.
          1    1    1    2  502    0  0.69649508502E+02 -0.10848073000E+03 -0.14697127810E+04  0.14753558152E+04  0.00000000000E+00 0.  1.
         22    1    1    2    0    0 -0.35909219445E+02  0.54718926305E+02 -0.96567595279E+02  0.11665733322E+03  0.00000000000E+00 0.  1.
         22    1    1    2    0    0 -0.16672351401E+02  0.11263679117E+01  0.38827456833E+02  0.42270644779E+02  0.00000000000E+00 0.  1.
</event>
<event>
 6    1  0.2809573E-005  0.3634027E+03  0.7818608E-02  0.1142249E+00
          2   -1    0    0  502    0  0.00000000000E+00  0.00000000000E+00  0.54121481547E+03  0.54121481547E+03  0.00000000000E+00 0. -1.
          1   -1    0    0  501    0 -0.00000000000E+00 -0.00000000000E+00 -0.36354494289E+03  0.36354494289E+03  0.00000000000E+00 0. -1.
          2    1    1    2  501    0  0.15873771911E+03 -0.14077789872E+03  0.14462802335E+03  0.25677489241E+03  0.00000000000E+00 0. -1.
          1    1    1    2  502    0 -0.28541296329E+03  0.18044547821E+03 -0.16707521567E+03  0.37674296000E+03  0.00000000000E+00 0. -1.
         22    1    1    2    0    0 -0.14221274315E+02 -0.37240845952E+02  0.27595954999E+02  0.48483625923E+02  0.00000000000E+00 0. -1.
         22    1    1    2    0    0  0.14089651849E+03 -0.24267335361E+01  0.17252110990E+03  0.22275828003E+03  0.00000000000E+00 0. -1.
</event>
<event>
 6    1  0.2809573E-005  0.1234605E+03  0.7818608E-02  0.1320752E+00
          2   -1    0    0  502    0  0.00000000000E+00  0.00000000000E+00  0.64973335066E+02  0.64973335066E+02  0.00000000000E+00 0. -1.
          1   -1    0    0  501    0 -0.00000000000E+00 -0.00000000000E+00 -0.46174917310E+03  0.46174917310E+03  0.00000000000E+00 0. -1.
          2    1    1    2  501    0  0.35260240496E+02  0.38538350523E+02 -0.21256366181E+03  0.21888764091E+03  0.00000000000E+00 0. -1.
          1    1    1    2  502    0 -0.13840144840E+02 -0.93495196712E+02 -0.25797369732E+02  0.97971453508E+02  0.00000000000E+00 0. -1.
         22    1    1    2    0    0  0.24614653370E+02  0.54780613298E+01  0.10965824977E+02  0.27497993270E+02  0.00000000000E+00 0. -1.
         22    1    1    2    0    0 -0.46034749026E+02  0.49478784859E+02 -0.16938063147E+03  0.18236542047E+03  0.00000000000E+00 0. -1.
</event>
<event>
 6    1  0.2809573E-005  0.9065357E+02  0.7818608E-02  0.1307810E+00
          2   -1    0    0  502    0  0.00000000000E+00  0.00000000000E+00  0.48514595883E+02  0.48514595883E+02  0.00000000000E+00 0.  1.
          1   -1    0    0  501    0 -0.00000000000E+00 -0.00000000000E+00 -0.94246075769E+03  0.94246075769E+03  0.00000000000E+00 0.  1.
          2    1    1    2  501    0  0.91570361906E+01  0.34124394795E+02 -0.74459847416E+02  0.82417197896E+02  0.00000000000E+00 0.  1.
          1    1    1    2  502    0  0.96459305153E+02 -0.78870832190E+01 -0.68820148789E+03  0.69497330277E+03  0.00000000000E+00 0.  1.
         22    1    1    2    0    0 -0.27663436608E+02 -0.64058203218E+01 -0.13007655986E+03  0.13313982005E+03  0.00000000000E+00 0.  1.
         22    1    1    2    0    0 -0.77952904736E+02 -0.19831491254E+02 -0.12082666412E+01  0.80445032851E+02  0.00000000000E+00 0.  1.
</event>
<event>
 6    1  0.2809573E-005  0.8930996E+02  0.7818608E-02  0.1310602E+00
          2   -1    0    0  502    0  0.00000000000E+00  0.00000000000E+00  0.27809407985E+03  0.27809407985E+03  0.00000000000E+00 0. -1.
          1   -1    0    0  501    0 -0.00000000000E+00 -0.00000000000E+00 -0.19134546266E+03  0.19134546266E+03  0.00000000000E+00 0.  1.
          2    1    1    2  501    0  0.24272043564E+02 -0.19457030212E+02  0.48784473171E+02  0.57858732668E+02  0.00000000000E+00 0. -1.
          1    1    1    2  502    0  0.46469100719E+02 -0.74215409546E+00 -0.15954836725E+03  0.16617945002E+03  0.00000000000E+00 0.  1.
         22    1    1    2    0    0 -0.96026909195E+02  0.21604269929E+02  0.19682920313E+03  0.22006736917E+03  0.00000000000E+00 0. -1.
         22    1    1    2    0    0  0.25285764912E+02 -0.14050856215E+01  0.68330814129E+00  0.25333990661E+02  0.00000000000E+00 0. -1.
</event>
<event>
 6    1  0.2809573E-005  0.3722332E+03  0.7818608E-02  0.1183045E+00
          2   -1    0    0  502    0  0.00000000000E+00  0.00000000000E+00  0.22365238161E+03  0.22365238161E+03  0.00000000000E+00 0.  1.
          1   -1    0    0  501    0 -0.00000000000E+00 -0.00000000000E+00 -0.49751071835E+03  0.49751071835E+03  0.00000000000E+00 0.  1.
          2    1    1    2  501    0  0.13930051773E+03 -0.10022992127E+03 -0.58704965993E+02  0.18137514821E+03  0.00000000000E+00 0.  1.
          1    1    1    2  502    0 -0.22506088560E+02 -0.21709786947E+02 -0.30744459794E+03  0.30903077464E+03  0.00000000000E+00 0.  1.
         22    1    1    2    0    0 -0.12932006262E+03  0.12906323916E+03  0.55038446786E+02  0.19081464546E+03  0.00000000000E+00 0.  1.
         22    1    1    2    0    0  0.12525633459E+02 -0.71235309362E+01  0.37252780405E+02  0.39942531648E+02  0.00000000000E+00 0. -1.
</event>
<event>
 6    1  0.2809573E-005  0.6859659E+02  0.7818608E-02  0.1463598E+00
          2   -1    0    0  502    0  0.00000000000E+00  0.00000000000E+00  0.90820195906E+02  0.90820195906E+02  0.00000000000E+00 0.  1.
          1   -1    0    0  501    0 -0.00000000000E+00 -0.00000000000E+00 -0.71864247586E+03  0.71864247586E+03  0.00000000000E+00 0. -1.
          2    1    1    2  501    0 -0.21707171535E+02 -0.12396558626E+02 -0.24446755893E+02  0.34964551127E+02  0.00000000000E+00 0.  1.
          1    1    1    2  502    0 -0.14673572189E+02  0.14970125116E+02 -0.64195152852E+03  0.64229368931E+03  0.00000000000E+00 0. -1.
         22    1    1    2    0    0  0.47343089916E+02 -0.12548061197E+02 -0.33033980251E+02  0.59076779312E+02  0.00000000000E+00 0. -1.
         22    1    1    2    0    0 -0.10962346191E+02  0.99744947067E+01  0.71609984710E+02  0.73127652012E+02  0.00000000000E+00 0.  1.
</event>
<event>
 6    1  0.2809573E-005  0.8455327E+02  0.7818608E-02  0.1401581E+00
          2   -1    0    0  502    0  0.00000000000E+00  0.00000000000E+00  0.22739396537E+02  0.22739396537E+02  0.00000000000E+00 0. -1.
          1   -1    0    0  501    0 -0.00000000000E+00 -0.00000000000E+00 -0.55227988985E+03  0.55227988985E+03  0.00000000000E+00 0. -1.
          2    1    1    2  501    0 -0.22350556231E+02 -0.13020531982E+02 -0.11616767535E+03  0.11901264813E+03  0.00000000000E+00 0. -1.
          1    1    1    2  502    0  0.48602969864E+01  0.55358531977E+02 -0.16700371644E+03  0.17600690570E+03  0.00000000000E+00 0. -1.
         22    1    1    2    0    0 -0.12547571129E+02  0.15834043751E+02  0.45257123422E+01  0.20703636274E+02  0.00000000000E+00 0. -1.
         22    1    1    2    0    0  0.30037830373E+02 -0.58172043746E+02 -0.25089481386E+03  0.25929609629E+03  0.00000000000E+00 0. -1.
</event>
<event>
 6    1  0.2809573E-005  0.6044294E+02  0.7818608E-02  0.1427592E+00
          2   -1    0    0  502    0  0.00000000000E+00  0.00000000000E+00  0.18943635271E+03  0.18943635271E+03  0.00000000000E+00 0. -1.
          1   -1    0    0  501    0 -0.00000000000E+00 -0.00000000000E+00 -0.40793092429E+03  0.40793092429E+03  0.00000000000E+00 0. -1.
          2    1    1    2  501    0 -0.18737410505E+02 -0.14475878270E+02 -0.17012742892E+03  0.17176723691E+03  0.00000000000E+00 0. -1.
          1    1    1    2  502    0  0.10175289138E+03  0.41780323253E+02 -0.18766125845E+03  0.21752239940E+03  0.00000000000E+00 0. -1.
         22    1    1    2    0    0 -0.74618810013E+02 -0.20196215252E+02  0.16384982306E+03  0.18117013671E+03  0.00000000000E+00 0. -1.
         22    1    1    2    0    0 -0.83966708574E+01 -0.71082297313E+01 -0.24555707266E+02  0.26907503985E+02  0.00000000000E+00 0. -1.
</event>
<event>
 6    1  0.2809573E-005  0.1744659E+03  0.7818608E-02  0.1306455E+00
          2   -1    0    0  502    0  0.00000000000E+00  0.00000000000E+00  0.10496553006E+03  0.10496553006E+03  0.00000000000E+00 0. -1.
          1   -1    0    0  501    0 -0.00000000000E+00 -0.00000000000E+00 -0.66829625601E+03  0.66829625601E+03  0.00000000000E+00 0.  1.
          2    1    1    2  501    0  0.10250391473E+03  0.51005831933E+01 -0.65205712899E+02  0.12159298285E+03  0.00000000000E+00 0. -1.
          1    1    1    2  502    0 -0.44742708025E+02 -0.18483945438E+00 -0.51446682273E+03  0.51640880683E+03  0.00000000000E+00 0.  1.
         22    1    1    2    0    0 -0.69171499307E+02 -0.30218909007E+01 -0.38493206113E+02  0.79218401005E+02  0.00000000000E+00 0. -1.
         22    1    1    2    0    0  0.11410292603E+02 -0.18938528383E+01  0.54835015793E+02  0.56041595382E+02  0.00000000000E+00 0. -1.
</event>
<event>
 6    1  0.2915847E-005  0.1060873E+03  0.7818608E-02  0.1269992E+00
          2   -1    0    0  502    0  0.00000000000E+00  0.00000000000E+00  0.21520687404E+03  0.21520687404E+03  0.00000000000E+00 0.  1.
          1   -1    0    0  501    0 -0.00000000000E+00 -0.00000000000E+00 -0.87210960626E+03  0.87210960626E+03  0.00000000000E+00 0.  1.
          2    1    1    2  501    0  0.64431170649E+02 -0.94844990826E+02 -0.11652090198E+03  0.16347497862E+03  0.00000000000E+00 0.  1.
          1    1    1    2  502    0  0.49336300071E+00  0.35251692598E+02 -0.70169795174E+03  0.70258304898E+03  0.00000000000E+00 0.  1.
         22    1    1    2    0    0 -0.58850682659E+00 -0.16891893158E+02 -0.12317639909E+02  0.20914268997E+02  0.00000000000E+00 0. -1.
         22    1    1    2    0    0 -0.64336026824E+02  0.76485191387E+02  0.17363376140E+03  0.20034418371E+03  0.00000000000E+00 0.  1.
</event>
<event>
 6    1  0.2809573E-005  0.1548926E+03  0.7818608E-02  0.1265941E+00
          2   -1    0    0  502    0  0.00000000000E+00  0.00000000000E+00  0.34984023444E+03  0.34984023444E+03  0.00000000000E+00 0. -1.
          1   -1    0    0  501    0 -0.00000000000E+00 -0.00000000000E+00 -0.16512725316E+03  0.16512725316E+03  0.00000000000E+00 0. -1.
          2    1    1    2  501    0  0.22067408166E+02 -0.13212330804E+03 -0.18924282477E+01  0.13396686275E+03  0.00000000000E+00 0. -1.
          1    1    1    2  502    0  0.37536320843E+01  0.15104736650E+03 -0.54184854809E+01  0.15119112627E+03  0.00000000000E+00 0. -1.
         22    1    1    2    0    0 -0.33424838759E+02 -0.11872320950E+02  0.20786834148E+03  0.21087299315E+03  0.00000000000E+00 0. -1.
         22    1    1    2    0    0  0.76037985087E+01 -0.70517375011E+01 -0.15844446468E+02  0.18936505418E+02  0.00000000000E+00 0.  1.
</event>
<event>
 6    1  0.2809573E-005  0.7450990E+02  0.7818608E-02  0.1415432E+00
          2   -1    0    0  502    0  0.00000000000E+00  0.00000000000E+00  0.95281997376E+02  0.95281997376E+02  0.00000000000E+00 0.  1.
          1   -1    0    0  501    0 -0.00000000000E+00 -0.00000000000E+00 -0.39733526050E+03  0.39733526050E+03  0.00000000000E+00 0.  1.
          2    1    1    2  501    0 -0.42487939532E+02 -0.25495078174E+02 -0.11485231878E+03  0.12508508763E+03  0.00000000000E+00 0.  1.
          1    1    1    2  502    0  0.72802923462E+02  0.53060645009E+01 -0.22452372257E+03  0.23609176602E+03  0.00000000000E+00 0.  1.
         22    1    1    2    0    0 -0.25150499787E+02 -0.30161111756E+01 -0.41770883880E+02  0.48851318368E+02  0.00000000000E+00 0.  1.
         22    1    1    2    0    0 -0.51644841428E+01  0.23205124849E+02  0.79093662115E+02  0.82589085856E+02  0.00000000000E+00 0.  1.
</event>
<event>
 6    1  0.2809573E-005  0.3769536E+03  0.7818608E-02  0.1167388E+00
          2   -1    0    0  502    0  0.00000000000E+00  0.00000000000E+00  0.15955672272E+03  0.15955672272E+03  0.00000000000E+00 0. -1.
          1   -1    0    0  501    0 -0.00000000000E+00 -0.00000000000E+00 -0.11514156440E+04  0.11514156440E+04  0.00000000000E+00 0. -1.
          2    1    1    2  501    0 -0.80776027982E+02 -0.16823854655E+03 -0.47823918351E+02  0.19265539808E+03  0.00000000000E+00 0. -1.
          1    1    1    2  502    0  0.21926427816E+03  0.46577336436E+02 -0.84866586196E+03  0.87776991131E+03  0.00000000000E+00 0. -1.
         22    1    1    2    0    0 -0.15825782616E+03  0.12247712356E+03 -0.80086737174E+02  0.21554598305E+03  0.00000000000E+00 0. -1.
         22    1    1    2    0    0  0.19769575977E+02 -0.81591344836E+00 -0.15282403768E+02  0.25001074257E+02  0.00000000000E+00 0. -1.
</event>
<event>
 6    1  0.2809573E-005  0.1250885E+03  0.7818608E-02  0.1254151E+00
          2   -1    0    0  502    0  0.00000000000E+00  0.00000000000E+00  0.28776586193E+03  0.28776586193E+03  0.00000000000E+00 0. -1.
          1   -1    0    0  501    0 -0.00000000000E+00 -0.00000000000E+00 -0.23058460273E+03  0.23058460273E+03  0.00000000000E+00 0. -1.
          2    1    1    2  501    0  0.96292740276E+00  0.61707422107E+02 -0.28623818683E+02  0.68029818229E+02  0.00000000000E+00 0. -1.
          1    1    1    2  502    0  0.63131507244E+02 -0.13704391100E+03 -0.11859024536E+03  0.19191213366E+03  0.00000000000E+00 0. -1.
         22    1    1    2    0    0  0.11697970968E+02  0.37062383913E+02  0.19904350809E+01  0.38915609437E+02  0.00000000000E+00 0.  1.
         22    1    1    2    0    0 -0.75792405615E+02  0.38274104983E+02  0.20240488817E+03  0.21949290334E+03  0.00000000000E+00 0. -1.
</event>
<event>
 6    1  0.2809573E-005  0.8930264E+02  0.7818608E-02  0.1316197E+00
          2   -1    0    0  502    0  0.00000000000E+00  0.00000000000E+00  0.40457564885E+03  0.40457564885E+03  0.00000000000E+00 0.  1.
          1   -1    0    0  501    0 -0.00000000000E+00 -0.00000000000E+00 -0.84434001012E+03  0.84434001012E+03  0.00000000000E+00 0.  1.
          2    1    1    2  501    0 -0.16477333005E+02  0.34037255016E+02  0.14808493280E+03  0.15283711773E+03  0.00000000000E+00 0.  1.
          1    1    1    2  502    0  0.82704399620E+02  0.33688916009E+02 -0.81406287587E+03  0.81894647361E+03  0.00000000000E+00 0.  1.
         22    1    1    2    0    0 -0.34850598272E+02  0.22446154690E+02  0.14804453266E+03  0.15373866694E+03  0.00000000000E+00 0.  1.
         22    1    1    2    0    0 -0.31376468343E+02 -0.90172325715E+02  0.78169049143E+02  0.12339340069E+03  0.00000000000E+00 0. -1.
</event>
<event>
 6    1  0.2809573E-005  0.3023301E+03  0.7818608E-02  0.1095954E+00
          2   -1    0    0  502    0  0.00000000000E+00  0.00000000000E+00  0.34825262098E+03  0.34825262098E+03  0.00000000000E+00 0. -1.
          1   -1    0    0  501    0 -0.00000000000E+00 -0.00000000000E+00 -0.12081187310E+04  0.12081187310E+04  0.00000000000E+00 0. -1.
          2    1    1    2  501    0 -0.23664563992E+03  0.18467695326E+03 -0.58038384416E+02  0.30573712569E+03  0.00000000000E+00 0. -1.
          1    1    1    2  502    0  0.56364332718E+02 -0.30524948138E+03 -0.92214874665E+03  0.97299151838E+03  0.00000000000E+00 0. -1.
         22    1    1    2    0    0  0.19221412229E+03  0.10884005687E+03  0.13191721864E+03  0.25728307243E+03  0.00000000000E+00 0. -1.
         22    1    1    2    0    0 -0.11932815089E+02  0.11732471246E+02 -0.11596197541E+02  0.20359635431E+02  0.00000000000E+00 0. -1.
</event>
<event>
 6    1  0.2809573E-005  0.1140820E+03  0.7818608E-02  0.1292609E+00
          2   -1    0    0  502    0  0.00000000000E+00  0.00000000000E+00  0.15198246740E+02  0.15198246740E+02  0.00000000000E+00 0. -1.
          1   -1    0    0  501    0 -0.00000000000E+00 -0.00000000000E+00 -0.16007268847E+04  0.16007268847E+04  0.00000000000E+00 0.  1.
          2    1    1    2  501    0  0.11986905031E+02 -0.26548812435E+02 -0.35087774219E+03  0.35208481265E+03  0.00000000000E+00 0. -1.
          1    1    1    2  502    0 -0.50760851208E+02  0.24044970370E+02 -0.92463677478E+03  0.92634118439E+03  0.00000000000E+00 0.  1.
         22    1    1    2    0    0 -0.68794861146E+01 -0.52965175003E+02 -0.77364414749E+02  0.94010051387E+02  0.00000000000E+00 0. -1.
         22    1    1    2    0    0  0.45653432291E+02  0.55469017068E+02 -0.23264970626E+03  0.24348908303E+03  0.00000000000E+00 0. -1.
</event>
<event>
 6    1  0.2809573E-005  0.8106183E+02  0.7818608E-02  0.1332389E+00
          2   -1    0    0  502    0  0.00000000000E+00  0.00000000000E+00  0.58143793710E+03  0.58143793710E+03  0.00000000000E+00 0.  1.
          1   -1    0    0  501    0 -0.00000000000E+00 -0.00000000000E+00 -0.40301576225E+03  0.40301576225E+03  0.00000000000E+00 0. -1.
          2    1    1    2  501    0  0.31812836708E+02  0.11045234521E+02  0.10708486879E+03  0.11225516874E+03  0.00000000000E+00 0.  1.
          1    1    1    2  502    0 -0.20636681832E+02 -0.28014203810E+01 -0.39240598743E+03  0.39295824150E+03  0.00000000000E+00 0. -1.
         22    1    1    2    0    0 -0.33733953633E+02 -0.56797823410E+02  0.22094566293E+03  0.23060997016E+03  0.00000000000E+00 0. -1.
         22    1    1    2    0    0  0.22557798757E+02  0.48554009271E+02  0.24279763056E+03  0.24863031896E+03  0.00000000000E+00 0.  1.
</event>
<event>
 6    1  0.2809573E-005  0.3402722E+03  0.7818608E-02  0.1066942E+00
          2   -1    0    0  502    0  0.00000000000E+00  0.00000000000E+00  0.21422822175E+04  0.21422822175E+04  0.00000000000E+00 0. -1.
          1   -1    0    0  501    0 -0.00000000000E+00 -0.00000000000E+00 -0.51146330886E+03  0.51146330886E+03  0.00000000000E+00 0. -1.
          2    1    1    2  501    0  0.27423282284E+03  0.15541375676E+03  0.10570162585E+04  0.11030142554E+04  0.00000000000E+00 0. -1.
          1    1    1    2  502    0  0.31956812032E+02  0.83097398888E+01 -0.45607940314E+03  0.45727312581E+03  0.00000000000E+00 0. -1.
         22    1    1    2    0    0  0.39980338048E+01  0.10636808766E+02  0.38983446456E+02  0.40605850227E+02  0.00000000000E+00 0. -1.
         22    1    1    2    0    0 -0.31018766868E+03 -0.17436030541E+03  0.99089860681E+03  0.10528522949E+04  0.00000000000E+00 0. -1.
</event>
<event>
 6    1  0.2809573E-005  0.9204371E+02  0.7818608E-02  0.1302105E+00
          2   -1    0    0  502    0  0.00000000000E+00  0.00000000000E+00  0.18663804685E+03  0.18663804685E+03  0.00000000000E+00 0.  1.
          1   -1    0    0  501    0 -0.00000000000E+00 -0.00000000000E+00 -0.25397797347E+03  0.25397797347E+03  0.00000000000E+00 0.  1.
          2    1    1    2  501    0  0.28830807974E+02 -0.94559851854E+02 -0.79217453185E+02  0.12668143495E+03  0.00000000000E+00 0.  1.
          1    1    1    2  502    0 -0.33249866278E+02  0.26014081525E+02 -0.11420165432E+03  0.12175509802E+03  0.00000000000E+00 0.  1.
         22    1    1    2    0    0  0.13024260534E+02  0.82536480219E+02  0.14485877887E+03  0.16723028357E+03  0.00000000000E+00 0.  1.
         22    1    1    2    0    0 -0.86052022300E+01 -0.13990709890E+02 -0.18779597985E+02  0.24949203778E+02  0.00000000000E+00 0. -1.
</event>
<event>
 6    1  0.2809573E-005  0.1052280E+03  0.7818608E-02  0.1277280E+00
          2   -1    0    0  502    0  0.00000000000E+00  0.00000000000E+00  0.65307659762E+02  0.65307659762E+02  0.00000000000E+00 0. -1.
          1   -1    0    0  501    0 -0.00000000000E+00 -0.00000000000E+00 -0.48916506657E+03  0.48916506657E+03  0.00000000000E+00 0.  1.
          2    1    1    2  501    0  0.66070386383E+02  0.36114787488E+02 -0.49634453088E+02  0.90183993954E+02  0.00000000000E+00 0. -1.
          1    1    1    2  502    0 -0.48271854812E+02 -0.22699776785E+02 -0.32333901785E+03  0.32770958530E+03  0.00000000000E+00 0.  1.
         22    1    1    2    0    0 -0.62947632571E+02 -0.21658738818E+02 -0.60194200020E+02  0.89748800156E+02  0.00000000000E+00 0.  1.
         22    1    1    2    0    0  0.45149101001E+02  0.82437281144E+01  0.93102641485E+01  0.46830346923E+02  0.00000000000E+00 0. -1.
</event>
<event>
 6    1  0.2809573E-005  0.1010413E+03  0.7818608E-02  0.1317948E+00
          2   -1    0    0  502    0  0.00000000000E+00  0.00000000000E+00  0.23448919172E+03  0.23448919172E+03  0.00000000000E+00 0.  1.
          1   -1    0    0  501    0 -0.00000000000E+00 -0.00000000000E+00 -0.14329861684E+03  0.14329861684E+03  0.00000000000E+00 0. -1.
          2    1    1    2  501    0 -0.20079198386E+01  0.20160042376E+02 -0.48726835219E+01  0.20837516536E+02  0.00000000000E+00 0.  1.
          1    1    1    2  502    0 -0.48322187395E+02 -0.38929677008E+02 -0.10175516759E+03  0.11918333641E+03  0.00000000000E+00 0. -1.
         22    1    1    2    0    0  0.40071478476E+02  0.66037351536E+02  0.15494836037E+03  0.17313477284E+03  0.00000000000E+00 0.  1.
         22    1    1    2    0    0  0.10258628758E+02 -0.47267716904E+02  0.42870065617E+02  0.64632182783E+02  0.00000000000E+00 0. -1.
</event>
<event>
 6    1  0.2809573E-005  0.7869370E+02  0.7818608E-02  0.1339995E+00
          2   -1    0    0  502    0  0.00000000000E+00  0.00000000000E+00  0.18390520180E+03  0.18390520180E+03  0.00000000000E+00 0. -1.
          1   -1    0    0  501    0 -0.00000000000E+00 -0.00000000000E+00 -0.82447750464E+03  0.82447750464E+03  0.00000000000E+00 0.  1.
          2    1    1    2  501    0  0.21515904708E+02  0.11708335462E+02  0.18137854992E+02  0.30479518671E+02  0.00000000000E+00 0. -1.
          1    1    1    2  502    0 -0.28142044511E+02 -0.34346005194E+02 -0.79089307896E+03  0.79213855170E+03  0.00000000000E+00 0.  1.
         22    1    1    2    0    0  0.20831408699E+02  0.72775207516E+02  0.96317951517E+02  0.12250439258E+03  0.00000000000E+00 0. -1.
         22    1    1    2    0    0 -0.14205268896E+02 -0.50137537784E+02  0.35864969623E+02  0.63260243483E+02  0.00000000000E+00 0. -1.
</event>
<event>
 6    1  0.2809573E-005  0.7503452E+02  0.7818608E-02  0.1346307E+00
          2   -1    0    0  502    0  0.00000000000E+00  0.00000000000E+00  0.11876529686E+03  0.11876529686E+03  0.00000000000E+00 0. -1.
          1   -1    0    0  501    0 -0.00000000000E+00 -0.00000000000E+00 -0.15782866725E+04  0.15782866725E+04  0.00000000000E+00 0.  1.
          2    1    1    2  501    0 -0.33572989066E+02  0.95771728530E+01  0.22700398358E+02  0.41643437902E+02  0.00000000000E+00 0. -1.
          1    1    1    2  502    0 -0.34706155472E+02  0.28577476668E+02 -0.15069067519E+04  0.15075772446E+04  0.00000000000E+00 0.  1.
         22    1    1    2    0    0 -0.18260024118E+02  0.23977501579E+02  0.28151156921E+02  0.41241201471E+02  0.00000000000E+00 0. -1.
         22    1    1    2    0    0  0.86539168656E+02 -0.62132151100E+02 -0.34661790171E+01  0.10659008542E+03  0.00000000000E+00 0.  1.
</event>
<event>
 6    1  0.2809573E-005  0.1398657E+03  0.7818608E-02  0.1226689E+00
          2   -1    0    0  502    0  0.00000000000E+00  0.00000000000E+00  0.86866174656E+03  0.86866174656E+03  0.00000000000E+00 0. -1.
          1   -1    0    0  501    0 -0.00000000000E+00 -0.00000000000E+00 -0.73477864363E+03  0.73477864363E+03  0.00000000000E+00 0.  1.
          2    1    1    2  501    0 -0.24303964678E+02  0.91444062306E+02  0.47949405746E+03  0.48874047343E+03  0.00000000000E+00 0. -1.
          1    1    1    2  502    0  0.21790804632E+02 -0.15057858014E+02 -0.71673437124E+03  0.71722363121E+03  0.00000000000E+00 0.  1.
         22    1    1    2    0    0  0.13624817253E+02 -0.98032223497E+02  0.35437689262E+03  0.36793876462E+03  0.00000000000E+00 0. -1.
         22    1    1    2    0    0 -0.11111657207E+02  0.21646019205E+02  0.16746524094E+02  0.29537520928E+02  0.00000000000E+00 0.  1.
</event>
<event>
 6    1  0.2809573E-005  0.5377913E+02  0.7818608E-02  0.1450804E+00
          2   -1    0    0  502    0  0.00000000000E+00  0.00000000000E+00  0.72974496812E+02  0.72974496812E+02  0.00000000000E+00 0. -1.
          1   -1    0    0  501    0 -0.00000000000E+00 -0.00000000000E+00 -0.41431259899E+03  0.41431259899E+03  0.00000000000E+00 0. -1.
          2    1    1    2  501    0  0.27664740334E+02  0.14936513511E+02 -0.87413888913E+02  0.92895776376E+02  0.00000000000E+00 0. -1.
          1    1    1    2  502    0 -0.20461864821E+02 -0.17032922787E+02 -0.26772345047E+03  0.26904396351E+03  0.00000000000E+00 0. -1.
         22    1    1    2    0    0  0.22259800117E+02 -0.20013946640E+02 -0.46136540882E+02  0.54996701409E+02  0.00000000000E+00 0.  1.
         22    1    1    2    0    0 -0.29462675631E+02  0.22110355916E+02  0.59935778088E+02  0.70350654504E+02  0.00000000000E+00 0. -1.
</event>
<event>
 6    1  0.2809573E-005  0.8461716E+02  0.7818608E-02  0.1383458E+00
          2   -1    0    0  502    0  0.00000000000E+00  0.00000000000E+00  0.40185256103E+02  0.40185256103E+02  0.00000000000E+00 0.  1.
          1   -1    0    0  501    0 -0.00000000000E+00 -0.00000000000E+00 -0.22538472373E+04  0.22538472373E+04  0.00000000000E+00 0. -1.
          2    1    1    2  501    0 -0.37909521140E+02  0.38766362120E+02 -0.50426168278E+03  0.50716842108E+03  0.00000000000E+00 0.  1.
          1    1    1    2  502    0  0.44204123154E+02 -0.67549230451E+02 -0.16401568948E+04  0.16421423637E+04  0.00000000000E+00 0. -1.
         22    1    1    2    0    0 -0.21908215218E+02  0.68246541283E+01 -0.10071279096E+03  0.10329381425E+03  0.00000000000E+00 0.  1.
         22    1    1    2    0    0  0.15613613204E+02  0.21958214203E+02  0.31469387383E+02  0.41427894353E+02  0.00000000000E+00 0.  1.
</event>
<event>
 6    1  0.2809573E-005  0.2530531E+03  0.7818608E-02  0.1188182E+00
          2   -1    0    0  502    0  0.00000000000E+00  0.00000000000E+00  0.13364034503E+03  0.13364034503E+03  0.00000000000E+00 0.  1.
          1   -1    0    0  501    0 -0.00000000000E+00 -0.00000000000E+00 -0.47257871298E+03  0.47257871298E+03  0.00000000000E+00 0.  1.
          2    1    1    2  501    0 -0.24216402703E+02  0.65836567388E+02 -0.12506488520E+03  0.14339495555E+03  0.00000000000E+00 0.  1.
          1    1    1    2  502    0 -0.10893456947E+02 -0.43824462524E+02 -0.30159340998E+03  0.30495546538E+03  0.00000000000E+00 0.  1.
         22    1    1    2    0    0  0.75634716387E+02 -0.27587968119E+02  0.84688702363E+02  0.11684982934E+03  0.00000000000E+00 0.  1.
         22    1    1    2    0    0 -0.40524856737E+02  0.55758632549E+01  0.30312248712E+01  0.41018807745E+02  0.00000000000E+00 0. -1.
</event>
<event>
 6    1  0.2809573E-005  0.2791812E+03  0.7818608E-02  0.1179494E+00
          2   -1    0    0  502    0  0.00000000000E+00  0.00000000000E+00  0.18210756856E+04  0.18210756856E+04  0.00000000000E+00 0.  1.
          1   -1    0    0  501    0 -0.00000000000E+00 -0.00000000000E+00 -0.35478814859E+03  0.35478814859E+03  0.00000000000E+00 0.  1.
          2    1    1    2  501    0 -0.97232776651E+02 -0.92504154344E+02  0.11911297181E+04  0.11986664410E+04  0.00000000000E+00 0.  1.
          1    1    1    2  502    0  0.18787608749E+03  0.58797493769E+02 -0.31222210806E+03  0.36910325694E+03  0.00000000000E+00 0.  1.
         22    1    1    2    0    0  0.72003676200E+01 -0.36277318364E+02  0.14664036135E+03  0.15123255171E+03  0.00000000000E+00 0.  1.
         22    1    1    2    0    0 -0.97843678455E+02  0.69983978939E+02  0.44073956558E+03  0.45686158450E+03  0.00000000000E+00 0.  1.
</event>
<event>
 6    1  0.2809573E-005  0.1301570E+03  0.7818608E-02  0.1285191E+00
          2   -1    0    0  502    0  0.00000000000E+00  0.00000000000E+00  0.17116972141E+03  0.17116972141E+03  0.00000000000E+00 0. -1.
          1   -1    0    0  501    0 -0.00000000000E+00 -0.00000000000E+00 -0.93604670039E+03  0.93604670039E+03  0.00000000000E+00 0.  1.
          2    1    1    2  501    0  0.57197773331E+02  0.14784894697E+02 -0.27332309271E+02  0.65094035943E+02  0.00000000000E+00 0. -1.
          1    1    1    2  502    0 -0.79695995404E+02 -0.97473008554E+02 -0.84563038431E+03  0.85495215418E+03  0.00000000000E+00 0.  1.
         22    1    1    2    0    0  0.57644676770E+01  0.40930603765E+02  0.13051437286E+03  0.13690341462E+03  0.00000000000E+00 0. -1.
         22    1    1    2    0    0  0.16733754396E+02  0.41757510092E+02 -0.22428658259E+02  0.50266817052E+02  0.00000000000E+00 0.  1.
</event>
<event>
 6    1  0.2809573E-005  0.5308934E+02  0.7818608E-02  0.1480597E+00
          2   -1    0    0  502    0  0.00000000000E+00  0.00000000000E+00  0.39215226420E+02  0.39215226420E+02  0.00000000000E+00 0.  1.
          1   -1    0    0  501    0 -0.00000000000E+00 -0.00000000000E+00 -0.72626116917E+03  0.72626116917E+03  0.00000000000E+00 0. -1.
          2    1    1    2  501    0  0.31597480461E+02  0.13721590716E+02 -0.94733910200E+02  0.10080276070E+03  0.00000000000E+00 0.  1.
          1    1    1    2  502    0 -0.30813482257E+02  0.27134351830E+01 -0.51263077353E+03  0.51356318344E+03  0.00000000000E+00 0. -1.
         22    1    1    2    0    0 -0.22840936764E+02  0.10356453761E+02  0.28227283844E+02  0.37759026470E+02  0.00000000000E+00 0.  1.
         22    1    1    2    0    0  0.22056938560E+02 -0.26791479661E+02 -0.10790854287E+03  0.11335142498E+03  0.00000000000E+00 0. -1.
</event>
<event>
 6    1  0.2809573E-005  0.1358732E+03  0.7818608E-02  0.1246875E+00
          2   -1    0    0  502    0  0.00000000000E+00  0.00000000000E+00  0.11408216305E+03  0.11408216305E+03  0.00000000000E+00 0.  1.
          1   -1    0    0  501    0 -0.00000000000E+00 -0.00000000000E+00 -0.12210943714E+04  0.12210943714E+04  0.00000000000E+00 0.  1.
          2    1    1    2  501    0  0.39133826824E+02  0.28921897191E+02  0.76885158567E+01  0.49265056735E+02  0.00000000000E+00 0.  1.
          1    1    1    2  502    0 -0.11696009707E+02 -0.13378841696E+03 -0.11103567060E+04  0.11184489938E+04  0.00000000000E+00 0.  1.
         22    1    1    2    0    0 -0.66710409462E+02  0.37662833232E+02 -0.34460654158E+02  0.84001812020E+02  0.00000000000E+00 0. -1.
         22    1    1    2    0    0  0.39272592345E+02  0.67203686534E+02  0.30116635951E+02  0.83460671901E+02  0.00000000000E+00 0. -1.
</event>
<event>
 6    1  0.2809573E-005  0.1403452E+03  0.7818608E-02  0.1257390E+00
          2   -1    0    0  502    0  0.00000000000E+00  0.00000000000E+00  0.26554659888E+03  0.26554659888E+03  0.00000000000E+00 0.  1.
          1   -1    0    0  501    0 -0.00000000000E+00 -0.00000000000E+00 -0.80774485237E+03  0.80774485237E+03  0.00000000000E+00 0. -1.
          2    1    1    2  501    0  0.10628105851E+03 -0.89449482943E+00 -0.58191474051E+03  0.59154140071E+03  0.00000000000E+00 0.  1.
          1    1    1    2  502    0 -0.14363643795E+03 -0.47928259033E+02 -0.17121765508E+03  0.22856952932E+03  0.00000000000E+00 0. -1.
         22    1    1    2    0    0  0.13887304075E+02 -0.24473704146E+01 -0.14840331302E+02  0.20471498958E+02  0.00000000000E+00 0.  1.
         22    1    1    2    0    0  0.23468075362E+02  0.51270124277E+02  0.22577447340E+03  0.23270902227E+03  0.00000000000E+00 0.  1.
</event>
<event>
 6    1  0.2809573E-005  0.1171163E+03  0.7818608E-02  0.1252795E+00
          2   -1    0    0  502    0  0.00000000000E+00  0.00000000000E+00  0.81880907342E+03  0.81880907342E+03  0.00000000000E+00 0. -1.
          1   -1    0    0  501    0 -0.00000000000E+00 -0.00000000000E+00 -0.59548853030E+03  0.59548853030E+03  0.00000000000E+00 0. -1.
          2    1    1    2  501    0  0.12702639923E+02  0.66965060064E+02  0.34687258032E+03  0.35350567648E+03  0.00000000000E+00 0. -1.
          1    1    1    2  502    0 -0.52905182804E+02  0.19244862983E+02 -0.57745053100E+03  0.58018827882E+03  0.00000000000E+00 0. -1.
         22    1    1    2    0    0  0.30062378704E+02  0.29041598541E+02  0.10458219231E+03  0.11262591179E+03  0.00000000000E+00 0.  1.
         22    1    1    2    0    0  0.10140164177E+02 -0.11525152159E+03  0.34931630150E+03  0.36797773662E+03  0.00000000000E+00 0.  1.
</event>
<event>
 6    1  0.2809573E-005  0.5910636E+03  0.7818608E-02  0.9924122E-01
          2   -1    0    0  502    0  0.00000000000E+00  0.00000000000E+00  0.32629376141E+03  0.32629376141E+03  0.00000000000E+00 0.  1.
          1   -1    0    0  501    0 -0.00000000000E+00 -0.00000000000E+00 -0.16339767289E+04  0.16339767289E+04  0.00000000000E+00 0.  1.
          2    1    1    2  501    0  0.21680062712E+03  0.26641610121E+02  0.54832616389E+02  0.22520857695E+03  0.00000000000E+00 0.  1.
          1    1    1    2  502    0 -0.52864713377E+03  0.76517716803E+02 -0.12584968093E+04  0.13671638425E+04  0.00000000000E+00 0.  1.
         22    1    1    2    0    0  0.27979777283E+02 -0.84295297859E+01  0.28313521626E+02  0.40688824216E+02  0.00000000000E+00 0. -1.
         22    1    1    2    0    0  0.28386672936E+03 -0.94729797138E+02 -0.13233229615E+03  0.32720924668E+03  0.00000000000E+00 0.  1.
</event>
<event>
 6    1  0.2809573E-005  0.8656382E+02  0.7818608E-02  0.1338394E+00
          2   -1    0    0  502    0  0.00000000000E+00  0.00000000000E+00  0.38333982857E+02  0.38333982857E+02  0.00000000000E+00 0. -1.
          1   -1    0    0  501    0 -0.00000000000E+00 -0.00000000000E+00 -0.62403169729E+03  0.62403169729E+03  0.00000000000E+00 0. -1.
          2    1    1    2  501    0 -0.18439716908E+02  0.33127868703E+02 -0.26846700505E+03  0.27113098614E+03  0.00000000000E+00 0. -1.
          1    1    1    2  502    0  0.24648950847E+02 -0.25178746577E+02 -0.24355231054E+03  0.24608792742E+03  0.00000000000E+00 0. -1.
         22    1    1    2    0    0 -0.28167678698E+02 -0.44988901169E+02  0.71554399842E+01  0.53559496572E+02  0.00000000000E+00 0. -1.
         22    1    1    2    0    0  0.21958444758E+02  0.37039779043E+02 -0.80833838836E+02  0.91587270014E+02  0.00000000000E+00 0.  1.
</event>
<event>
 6    1  0.2809573E-005  0.1139230E+03  0.7818608E-02  0.1322854E+00
          2   -1    0    0  502    0  0.00000000000E+00  0.00000000000E+00  0.11261782894E+03  0.11261782894E+03  0.00000000000E+00 0. -1.
          1   -1    0    0  501    0 -0.00000000000E+00 -0.00000000000E+00 -0.57755303108E+03  0.57755303108E+03  0.00000000000E+00 0. -1.
          2    1    1    2  501    0 -0.54798258468E+02 -0.13075379443E+02 -0.81349670096E+02  0.98952430508E+02  0.00000000000E+00 0. -1.
          1    1    1    2  502    0 -0.23271939060E+02 -0.12059077916E+02 -0.43312523037E+03  0.43391758398E+03  0.00000000000E+00 0. -1.
         22    1    1    2    0    0  0.30566192972E+02  0.71618863442E+01  0.88103215502E+02  0.93529467820E+02  0.00000000000E+00 0. -1.
         22    1    1    2    0    0  0.47504004556E+02  0.17972571015E+02 -0.38563517183E+02  0.63771377712E+02  0.00000000000E+00 0. -1.
</event>
<event>
 6    1  0.2809573E-005  0.5320584E+02  0.7818608E-02  0.1477464E+00
          2   -1    0    0  502    0  0.00000000000E+00  0.00000000000E+00  0.30319941439E+02  0.30319941439E+02  0.00000000000E+00 0. -1.
          1   -1    0    0  501    0 -0.00000000000E+00 -0.00000000000E+00 -0.56238739571E+03  0.56238739571E+03  0.00000000000E+00 0. -1.
          2    1    1    2  501    0  0.14251480198E+02 -0.20930326530E+02 -0.39025087220E+02  0.46520325547E+02  0.00000000000E+00 0. -1.
          1    1    1    2  502    0 -0.11663185397E+02  0.17004386036E+02 -0.38131511115E+03  0.38187222082E+03  0.00000000000E+00 0. -1.
         22    1    1    2    0    0  0.18040231194E+02  0.18560467441E+02  0.18397065146E+02  0.31755202710E+02  0.00000000000E+00 0. -1.
         22    1    1    2    0    0 -0.20628525994E+02 -0.14634526947E+02 -0.13012432105E+03  0.13255958808E+03  0.00000000000E+00 0.  1.
</event>
<event>
 6    1  0.2809573E-005  0.1354554E+03  0.7818608E-02  0.1264101E+00
          2   -1    0    0  502    0  0.00000000000E+00  0.00000000000E+00  0.13792516083E+03  0.13792516083E+03  0.00000000000E+00 0.  1.
          1   -1    0    0  501    0 -0.00000000000E+00 -0.00000000000E+00 -0.13110441146E+03  0.13110441146E+03  0.00000000000E+00 0.  1.
          2    1    1    2  501    0  0.31670141067E+02 -0.33093320405E+02 -0.31110781310E+02  0.55371891825E+02  0.00000000000E+00 0.  1.
          1    1    1    2  502    0  0.17384810975E+02 -0.44982526579E+02  0.32449077259E+02  0.58125742705E+02  0.00000000000E+00 0.  1.
         22    1    1    2    0    0 -0.52955688786E+02 -0.15313329892E+02  0.24203852244E+02  0.60204896069E+02  0.00000000000E+00 0.  1.
         22    1    1    2    0    0  0.39007367440E+01  0.93389176876E+02 -0.18721398821E+02  0.95327041696E+02  0.00000000000E+00 0.  1.
</event>
<event>
 6    1  0.2809573E-005  0.2348886E+03  0.7818608E-02  0.1233018E+00
          2   -1    0    0  502    0  0.00000000000E+00  0.00000000000E+00  0.61565585956E+03  0.61565585956E+03  0.00000000000E+00 0. -1.
          1   -1    0    0  501    0 -0.00000000000E+00 -0.00000000000E+00 -0.14570494243E+03  0.14570494243E+03  0.00000000000E+00 0. -1.
          2    1    1    2  501    0 -0.13279576463E+03 -0.82591437345E+02  0.37526621508E+02  0.16082384136E+03  0.00000000000E+00 0. -1.
          1    1    1    2  502    0  0.95619827545E+02  0.72636980593E+02  0.45003765952E+03  0.46578232830E+03  0.00000000000E+00 0. -1.
         22    1    1    2    0    0  0.16334524231E+02 -0.10919862563E+02  0.53914497133E+02  0.57383212539E+02  0.00000000000E+00 0. -1.
         22    1    1    2    0    0  0.20841412859E+02  0.20874319315E+02 -0.71527861034E+02  0.77371419794E+02  0.00000000000E+00 0. -1.
</event>
<event>
 6    1  0.2809573E-005  0.3572655E+03  0.7818608E-02  0.1129488E+00
          2   -1    0    0  502    0  0.00000000000E+00  0.00000000000E+00  0.70039006699E+03  0.70039006699E+03  0.00000000000E+00 0. -1.
          1   -1    0    0  501    0 -0.00000000000E+00 -0.00000000000E+00 -0.19982886720E+04  0.19982886720E+04  0.00000000000E+00 0. -1.
          2    1    1    2  501    0  0.20209388409E+03 -0.10106034878E+03  0.16222545651E+03  0.27815864326E+03  0.00000000000E+00 0. -1.
          1    1    1    2  502    0 -0.23772675832E+03  0.11420064764E+03 -0.19221772777E+04  0.19401858897E+04  0.00000000000E+00 0. -1.
         22    1    1    2    0    0  0.60342261410E+02  0.38455049392E+02  0.30211309530E+03  0.31047109638E+03  0.00000000000E+00 0. -1.
         22    1    1    2    0    0 -0.24709387178E+02 -0.51595348256E+02  0.15994012086E+03  0.16986310970E+03  0.00000000000E+00 0.  1.
</event>
<event>
 6    1  0.2809573E-005  0.1693370E+03  0.7818608E-02  0.1269996E+00
          2   -1    0    0  502    0  0.00000000000E+00  0.00000000000E+00  0.87327604782E+02  0.87327604782E+02  0.00000000000E+00 0. -1.
          1   -1    0    0  501    0 -0.00000000000E+00 -0.00000000000E+00 -0.76379219624E+03  0.76379219624E+03  0.00000000000E+00 0. -1.
          2    1    1    2  501    0  0.64270636365E+02  0.13961907309E+02 -0.25050568132E+02  0.70378835726E+02  0.00000000000E+00 0. -1.
          1    1    1    2  502    0  0.23214561285E+02  0.73013870712E+01 -0.62424944239E+03  0.62472361283E+03  0.00000000000E+00 0. -1.
         22    1    1    2    0    0  0.10780444442E+02  0.22007060231E+02  0.26405580300E+02  0.36024760282E+02  0.00000000000E+00 0. -1.
         22    1    1    2    0    0 -0.98265642091E+02 -0.43270354612E+02 -0.53570161241E+02  0.11999259218E+03  0.00000000000E+00 0. -1.
</event>
<event>
 6    1  0.2809573E-005  0.1209754E+03  0.7818608E-02  0.1243803E+00
          2   -1    0    0  502    0  0.00000000000E+00  0.00000000000E+00  0.91625145803E+03  0.91625145803E+03  0.00000000000E+00 0. -1.
          1   -1    0    0  501    0 -0.00000000000E+00 -0.00000000000E+00 -0.43966597871E+02  0.43966597871E+02  0.00000000000E+00 0. -1.
          2    1    1    2  501    0 -0.31651944010E+02  0.44599036293E+02  0.91919879828E+00  0.54697024821E+02  0.00000000000E+00 0. -1.
          1    1    1    2  502    0  0.78823607737E+02  0.34860586434E+02  0.24285426712E+03  0.25769481306E+03  0.00000000000E+00 0. -1.
         22    1    1    2    0    0  0.16209243357E+02  0.27918841183E+02  0.12355591087E+03  0.12770381503E+03  0.00000000000E+00 0. -1.
         22    1    1    2    0    0 -0.63380907085E+02 -0.10737846391E+03  0.50495548338E+03  0.52012240299E+03  0.00000000000E+00 0. -1.
</event>
<event>
 6    1  0.2809573E-005  0.3808743E+02  0.7818608E-02  0.1534286E+00
          2   -1    0    0  502    0  0.00000000000E+00  0.00000000000E+00  0.25480946368E+03  0.25480946368E+03  0.00000000000E+00 0. -1.
          1   -1    0    0  501    0 -0.00000000000E+00 -0.00000000000E+00 -0.10038062593E+04  0.10038062593E+04  0.00000000000E+00 0. -1.
          2    1    1    2  501    0 -0.30041865135E+02 -0.11061407448E+02  0.93105126963E+02  0.98455233799E+02  0.00000000000E+00 0. -1.
          1    1    1    2  502    0  0.34257544910E+02 -0.22146939365E+01 -0.97693614847E+03  0.97753911555E+03  0.00000000000E+00 0. -1.
         22    1    1    2    0    0 -0.26776962273E+02 -0.10409971047E+02  0.14542695092E+03  0.14823755010E+03  0.00000000000E+00 0. -1.
         22    1    1    2    0    0  0.22561282498E+02  0.23686072431E+02 -0.10592725002E+02  0.34383823495E+02  0.00000000000E+00 0. -1.
</event>
<event>
 6    1  0.2809573E-005  0.1166856E+03  0.7818608E-02  0.1249637E+00
          2   -1    0    0  502    0  0.00000000000E+00  0.00000000000E+00  0.27812818031E+03  0.27812818031E+03  0.00000000000E+00 0.  1.
          1   -1    0    0  501    0 -0.00000000000E+00 -0.00000000000E+00 -0.11616319245E+03  0.11616319245E+03  0.00000000000E+00 0. -1.
          2    1    1    2  501    0  0.83742314681E+02  0.32224993339E+02  0.10900711897E+03  0.14118703003E+03  0.00000000000E+00 0.  1.
          1    1    1    2  502    0 -0.43577810528E+01  0.52789194241E+02 -0.34408845577E+02  0.63163739109E+02  0.00000000000E+00 0. -1.
         22    1    1    2    0    0  0.19342332500E+02  0.55718742165E+01  0.45191221422E+02  0.49471386704E+02  0.00000000000E+00 0.  1.
         22    1    1    2    0    0 -0.98726866128E+02 -0.90586061797E+02  0.42175493041E+02  0.14046921691E+03  0.00000000000E+00 0. -1.
</event>
<event>
 6    1  0.2809573E-005  0.5346689E+02  0.7818608E-02  0.1441712E+00
          2   -1    0    0  502    0  0.00000000000E+00  0.00000000000E+00  0.19704802609E+02  0.19704802609E+02  0.00000000000E+00 0.  1.
          1   -1    0    0  501    0 -0.00000000000E+00 -0.00000000000E+00 -0.11208118456E+04  0.11208118456E+04  0.00000000000E+00 0.  1.
          2    1    1    2  501    0 -0.17365725842E+02 -0.12009623967E+02 -0.75714262201E+02  0.78603110641E+02  0.00000000000E+00 0.  1.
          1    1    1    2  502    0  0.30988527104E+02  0.15324208523E+01 -0.80620880899E+03  0.80680560286E+03  0.00000000000E+00 0.  1.
         22    1    1    2    0    0 -0.53102672645E+02  0.19059116428E+02 -0.20446843169E+03  0.21210960213E+03  0.00000000000E+00 0.  1.
         22    1    1    2    0    0  0.39479871382E+02 -0.85819133128E+01 -0.14715540075E+02  0.42998332528E+02  0.00000000000E+00 0.  1.
</event>
<event>
 6    1  0.2809573E-005  0.8513665E+02  0.7818608E-02  0.1325333E+00
          2   -1    0    0  502    0  0.00000000000E+00  0.00000000000E+00  0.63909236356E+02  0.63909236356E+02  0.00000000000E+00 0. -1.
          1   -1    0    0  501    0 -0.00000000000E+00 -0.00000000000E+00 -0.21561139499E+04  0.21561139499E+04  0.00000000000E+00 0. -1.
          2    1    1    2  501    0  0.27584491563E+02  0.12600152947E+02  0.14666730162E+02  0.33686510694E+02  0.00000000000E+00 0. -1.
          1    1    1    2  502    0 -0.33246225423E+02  0.78376892381E+02 -0.19877582601E+04  0.19895806466E+04  0.00000000000E+00 0. -1.
         22    1    1    2    0    0  0.39421308194E+02  0.91133183625E+01 -0.42131766373E+01  0.40679761168E+02  0.00000000000E+00 0. -1.
         22    1    1    2    0    0 -0.33759574335E+02 -0.10009036369E+03 -0.11490000695E+03  0.15607626777E+03  0.00000000000E+00 0. -1.
</event>
<event>
 6    1  0.2809573E-005  0.2130295E+03  0.7818608E-02  0.1230270E+00
          2   -1    0    0  502    0  0.00000000000E+00  0.00000000000E+00  0.93151973755E+02  0.93151973755E+02  0.00000000000E+00 0. -1.
          1   -1    0    0  501    0 -0.00000000000E+00 -0.00000000000E+00 -0.74248534579E+03  0.74248534579E+03  0.00000000000E+00 0. -1.
          2    1    1    2  501    0 -0.13796464283E+02 -0.55506635369E+02 -0.89679087032E+02  0.10636572591E+03  0.00000000000E+00 0. -1.
          1    1    1    2  502    0 -0.75515188683E+02  0.41570824265E+01 -0.56317500415E+03  0.56823050812E+03  0.00000000000E+00 0. -1.
         22    1    1    2    0    0 -0.27588021377E+02  0.39678772291E+01 -0.17862253902E+02  0.33104427010E+02  0.00000000000E+00 0. -1.
         22    1    1    2    0    0  0.11689967434E+03  0.47381675714E+02  0.21382973047E+02  0.12793665851E+03  0.00000000000E+00 0. -1.
</event>
<event>
 6    1  0.2809573E-005  0.1059664E+03  0.7818608E-02  0.1289583E+00
          2   -1    0    0  502    0  0.00000000000E+00  0.00000000000E+00  0.40250177422E+02  0.40250177422E+02  0.00000000000E+00 0.  1.
          1   -1    0    0  501    0 -0.00000000000E+00 -0.00000000000E+00 -0.79704075776E+03  0.79704075776E+03  0.00000000000E+00 0.  1.
          2    1    1    2  501    0  0.38534591240E+02  0.27480002041E+02 -0.10662201433E+03  0.11665470061E+03  0.00000000000E+00 0.  1.
          1    1    1    2  502    0 -0.95431835110E+02 -0.28692284882E+02 -0.52320307619E+03  0.53260861925E+03  0.00000000000E+00 0.  1.
         22    1    1    2    0    0 -0.34412345384E+01 -0.35298993796E+02 -0.10988046179E+03  0.11546244819E+03  0.00000000000E+00 0.  1.
         22    1    1    2    0    0  0.60338478408E+02  0.36511276638E+02 -0.17085028024E+02  0.72565167132E+02  0.00000000000E+00 0.  1.
</event>
<event>
 6    1  0.2809573E-005  0.2098972E+03  0.7818608E-02  0.1207208E+00
          2   -1    0    0  502    0  0.00000000000E+00  0.00000000000E+00  0.13171196644E+03  0.13171196644E+03  0.00000000000E+00 0. -1.
          1   -1    0    0  501    0 -0.00000000000E+00 -0.00000000000E+00 -0.31118734796E+03  0.31118734796E+03  0.00000000000E+00 0. -1.
          2    1    1    2  501    0 -0.31022872031E+02 -0.60232913930E+02 -0.66243766209E+02  0.94755786478E+02  0.00000000000E+00 0. -1.
          1    1    1    2  502    0 -0.37981141721E+02  0.50709369455E+02 -0.18197617435E+03  0.19268973846E+03  0.00000000000E+00 0. -1.
         22    1    1    2    0    0  0.54034905986E+02  0.54435285094E+02  0.75509707304E+02  0.10763218490E+03  0.00000000000E+00 0. -1.
         22    1    1    2    0    0  0.14969107766E+02 -0.44911740620E+02 -0.67651482629E+01  0.47821604572E+02  0.00000000000E+00 0.  1.
</event>
<event>
 6    1  0.2809573E-005  0.1387864E+03  0.7818608E-02  0.1263311E+00
          2   -1    0    0  502    0  0.00000000000E+00  0.00000000000E+00  0.42506975220E+03  0.42506975220E+03  0.00000000000E+00 0.  1.
          1   -1    0    0  501    0 -0.00000000000E+00 -0.00000000000E+00 -0.52490094996E+02  0.52490094996E+02  0.00000000000E+00 0.  1.
          2    1    1    2  501    0 -0.31639075711E+02  0.80989245045E+01  0.17892345236E+02  0.37239222710E+02  0.00000000000E+00 0.  1.
          1    1    1    2  502    0 -0.36621224570E+02 -0.22254403758E+02 -0.13414845625E+02  0.44903570668E+02  0.00000000000E+00 0.  1.
         22    1    1    2    0    0  0.75919893015E+02  0.56963453904E+02  0.29961595377E+03  0.31429028777E+03  0.00000000000E+00 0.  1.
         22    1    1    2    0    0 -0.76595927336E+01 -0.42807974650E+02  0.68486203825E+02  0.81126766045E+02  0.00000000000E+00 0.  1.
</event>
<event>
 6    1  0.2809573E-005  0.3689498E+03  0.7818608E-02  0.1147923E+00
          2   -1    0    0  502    0  0.00000000000E+00  0.00000000000E+00  0.10788801416E+03  0.10788801416E+03  0.00000000000E+00 0. -1.
          1   -1    0    0  501    0 -0.00000000000E+00 -0.00000000000E+00 -0.22642706365E+04  0.22642706365E+04  0.00000000000E+00 0. -1.
          2    1    1    2  501    0 -0.25680696630E+03 -0.14367977204E+03 -0.35983147146E+03  0.46483586640E+03  0.00000000000E+00 0. -1.
          1    1    1    2  502    0  0.25529394656E+03  0.20442068950E+03 -0.17170921434E+04  0.17479611684E+04  0.00000000000E+00 0. -1.
         22    1    1    2    0    0 -0.65127766510E+01 -0.93019830383E+02 -0.84355258201E+02  0.12574145971E+03  0.00000000000E+00 0.  1.
         22    1    1    2    0    0  0.80257963929E+01  0.32278912926E+02  0.48962506957E+01  0.33620156132E+02  0.00000000000E+00 0. -1.
</event>
<event>
 6    1  0.2809573E-005  0.9176238E+02  0.7818608E-02  0.1305713E+00
          2   -1    0    0  502    0  0.00000000000E+00  0.00000000000E+00  0.33261514535E+03  0.33261514535E+03  0.00000000000E+00 0.  1.
          1   -1    0    0  501    0 -0.00000000000E+00 -0.00000000000E+00 -0.13664219193E+03  0.13664219193E+03  0.00000000000E+00 0. -1.
          2    1    1    2  501    0  0.40125572742E+02 -0.24984669937E+02  0.12077218798E+03  0.12969277817E+03  0.00000000000E+00 0.  1.
          1    1    1    2  502    0 -0.21242959244E+02  0.27938548950E+02 -0.10912945260E+03  0.11463447675E+03  0.00000000000E+00 0. -1.
         22    1    1    2    0    0  0.83315511945E+01 -0.56697346619E+02  0.13639523404E+03  0.14794479960E+03  0.00000000000E+00 0. -1.
         22    1    1    2    0    0 -0.27214164693E+02  0.53743467606E+02  0.47934984011E+02  0.76985282765E+02  0.00000000000E+00 0.  1.
</event>
<event>
 6    1  0.2809573E-005  0.9812947E+02  0.7818608E-02  0.1289404E+00
          2   -1    0    0  502    0  0.00000000000E+00  0.00000000000E+00  0.34247157270E+03  0.34247157270E+03  0.00000000000E+00 0.  1.
          1   -1    0    0  501    0 -0.00000000000E+00 -0.00000000000E+00 -0.50290967657E+03  0.50290967657E+03  0.00000000000E+00 0.  1.
          2    1    1    2  501    0  0.40033733895E+02  0.25634921621E+02  0.95222461755E+02  0.10642916085E+03  0.00000000000E+00 0.  1.
          1    1    1    2  502    0  0.35799923171E+02 -0.18512893424E+02 -0.47500986697E+03  0.47671661964E+03  0.00000000000E+00 0.  1.
         22    1    1    2    0    0 -0.97771667568E+02 -0.26134129687E+02  0.20752992500E+03  0.23089166612E+03  0.00000000000E+00 0.  1.
         22    1    1    2    0    0  0.21938010501E+02  0.19012101490E+02  0.11819376353E+02  0.31343802660E+02  0.00000000000E+00 0.  1.
</event>
<event>
 6    1  0.2809573E-005  0.6735853E+02  0.7818608E-02  0.1375736E+00
          2   -1    0    0  502    0  0.00000000000E+00  0.00000000000E+00  0.51365519708E+03  0.51365519708E+03  0.00000000000E+00 0. -1.
          1   -1    0    0  501    0 -0.00000000000E+00 -0.00000000000E+00 -0.26382744321E+02  0.26382744321E+02  0.00000000000E+00 0. -1.
          2    1    1    2  501    0  0.19448320344E+02  0.19214139092E+02  0.34344277474E+02  0.43897035213E+02  0.00000000000E+00 0. -1.
          1    1    1    2  502    0 -0.35131416450E+02  0.23642401533E+02  0.25918842929E+02  0.49648423850E+02  0.00000000000E+00 0. -1.
         22    1    1    2    0    0  0.53757283241E+02  0.26153727903E+01  0.94640783234E+02  0.10887407188E+03  0.00000000000E+00 0. -1.
         22    1    1    2    0    0 -0.38074187135E+02 -0.45471913415E+02  0.33236854912E+03  0.33761841046E+03  0.00000000000E+00 0. -1.
</event>
<event>
 6    1  0.2809573E-005  0.5004328E+02  0.7818608E-02  0.1448710E+00
          2   -1    0    0  502    0  0.00000000000E+00  0.00000000000E+00  0.15091532237E+03  0.15091532237E+03  0.00000000000E+00 0.  1.
          1   -1    0    0  501    0 -0.00000000000E+00 -0.00000000000E+00 -0.43321163410E+03  0.43321163410E+03  0.00000000000E+00 0.  1.
          2    1    1    2  501    0 -0.83887906971E+01 -0.22295262402E+02  0.40070164810E+02  0.46616184345E+02  0.00000000000E+00 0.  1.
          1    1    1    2  502    0  0.12475454279E+02 -0.28991801188E+02 -0.38454663257E+03  0.38583970003E+03  0.00000000000E+00 0.  1.
         22    1    1    2    0    0 -0.75636096863E+01 -0.19947008571E+02  0.76076544113E+02  0.79010960674E+02  0.00000000000E+00 0.  1.
         22    1    1    2    0    0  0.34769461042E+01  0.71234072161E+02 -0.13896388080E+02  0.72660111426E+02  0.00000000000E+00 0.  1.
</event>
<event>
 6    1  0.2809573E-005  0.1739818E+03  0.7818608E-02  0.1196838E+00
          2   -1    0    0  502    0  0.00000000000E+00  0.00000000000E+00  0.72669359359E+03  0.72669359359E+03  0.00000000000E+00 0.  1.
          1   -1    0    0  501    0 -0.00000000000E+00 -0.00000000000E+00 -0.25007335258E+03  0.25007335258E+03  0.00000000000E+00 0.  1.
          2    1    1    2  501    0 -0.96783814984E+02  0.13170185321E+03  0.25518807286E+02  0.16541975247E+03  0.00000000000E+00 0.  1.
          1    1    1    2  502    0  0.16320387213E+03 -0.34938839989E+02 -0.12668772425E+03  0.20953760019E+03  0.00000000000E+00 0.  1.
         22    1    1    2    0    0 -0.56122040447E+02 -0.87609054828E+02  0.57872152748E+03  0.58799969072E+03  0.00000000000E+00 0.  1.
         22    1    1    2    0    0 -0.10298016700E+02 -0.91539583924E+01 -0.93236950552E+00  0.13809902791E+02  0.00000000000E+00 0. -1.
</event>
<event>
 6    1  0.2809573E-005  0.9695011E+02  0.7818608E-02  0.1324571E+00
          2   -1    0    0  502    0  0.00000000000E+00  0.00000000000E+00  0.23515021341E+02  0.23515021341E+02  0.00000000000E+00 0. -1.
          1   -1    0    0  501    0 -0.00000000000E+00 -0.00000000000E+00 -0.14246002321E+04  0.14246002321E+04  0.00000000000E+00 0. -1.
          2    1    1    2  501    0 -0.30891759401E+02 -0.32253835244E+02 -0.28422249423E+03  0.28770998751E+03  0.00000000000E+00 0. -1.
          1    1    1    2  502    0  0.31891386666E+02  0.45442439030E+02 -0.93973147528E+03  0.94136991743E+03  0.00000000000E+00 0. -1.
         22    1    1    2    0    0  0.34317920324E+02 -0.46653284684E+02 -0.15522424595E+03  0.16567683953E+03  0.00000000000E+00 0.  1.
         22    1    1    2    0    0 -0.35317547588E+02  0.33464680898E+02 -0.21906995283E+02  0.53358508952E+02  0.00000000000E+00 0. -1.
</event>
<event>
 6    1  0.2809573E-005  0.7998831E+03  0.7818608E-02  0.1092901E+00
          2   -1    0    0  502    0  0.00000000000E+00  0.00000000000E+00  0.13502458013E+03  0.13502458013E+03  0.00000000000E+00 0.  1.
          1   -1    0    0  501    0 -0.00000000000E+00 -0.00000000000E+00 -0.16543772449E+04  0.16543772449E+04  0.00000000000E+00 0.  1.
          2    1    1    2  501    0  0.79014878457E+02 -0.37519408680E+02 -0.12058320452E+04  0.12090004046E+04  0.00000000000E+00 0.  1.
          1    1    1    2  502    0  0.51639898101E+02  0.66438507256E+02 -0.37942930911E+03  0.38864811197E+03  0.00000000000E+00 0.  1.
         22    1    1    2    0    0  0.11904140999E+02  0.50247799061E+01 -0.18554699649E+02  0.22610481310E+02  0.00000000000E+00 0. -1.
         22    1    1    2    0    0 -0.14255891756E+03 -0.33943878482E+02  0.84463389208E+02  0.16914282715E+03  0.00000000000E+00 0.  1.
</event>
<event>
 6    1  0.2809573E-005  0.1071962E+03  0.7818608E-02  0.1320659E+00
          2   -1    0    0  502    0  0.00000000000E+00  0.00000000000E+00  0.31837195714E+02  0.31837195714E+02  0.00000000000E+00 0. -1.
          1   -1    0    0  501    0 -0.00000000000E+00 -0.00000000000E+00 -0.60981706338E+03  0.60981706338E+03  0.00000000000E+00 0. -1.
          2    1    1    2  501    0 -0.14358790835E+02  0.30956692673E+02 -0.30780631565E+03  0.30969213688E+03  0.00000000000E+00 0. -1.
          1    1    1    2  502    0  0.30200384905E+02  0.14587938318E+02 -0.13680906132E+03  0.14086018050E+03  0.00000000000E+00 0. -1.
         22    1    1    2    0    0 -0.52486278890E+02 -0.36750734731E+02 -0.13894397598E+03  0.15300606013E+03  0.00000000000E+00 0. -1.
         22    1    1    2    0    0  0.36644684820E+02 -0.87938962606E+01  0.55794852805E+01  0.38095881575E+02  0.00000000000E+00 0. -1.
</event>
<event>
 6    1  0.2809573E-005  0.1398719E+03  0.7818608E-02  0.1329784E+00
          2   -1    0    0  502    0  0.00000000000E+00  0.00000000000E+00  0.82238907831E+02  0.82238907831E+02  0.00000000000E+00 0. -1.
          1   -1    0    0  501    0 -0.00000000000E+00 -0.00000000000E+00 -0.61962933028E+03  0.61962933028E+03  0.00000000000E+00 0.  1.
          2    1    1    2  501    0 -0.43726644736E+02  0.35391488714E+02 -0.19440364899E+03  0.20237923726E+03  0.00000000000E+00 0. -1.
          1    1    1    2  502    0  0.94853499181E+02  0.17400290355E+01 -0.34291155093E+03  0.35579284109E+03  0.00000000000E+00 0.  1.
         22    1    1    2    0    0  0.10131883676E+02 -0.10755586520E+02  0.55155691376E+02  0.57100683003E+02  0.00000000000E+00 0. -1.
         22    1    1    2    0    0 -0.61258738121E+02 -0.26375931229E+02 -0.55230913905E+02  0.86595476760E+02  0.00000000000E+00 0. -1.
</event>
<event>
 6    1  0.2809573E-005  0.1420781E+03  0.7818608E-02  0.1296873E+00
          2   -1    0    0  502    0  0.00000000000E+00  0.00000000000E+00  0.48840530432E+03  0.48840530432E+03  0.00000000000E+00 0. -1.
          1   -1    0    0  501    0 -0.00000000000E+00 -0.00000000000E+00 -0.62782956084E+02  0.62782956084E+02  0.00000000000E+00 0. -1.
          2    1    1    2  501    0  0.38128771039E+02  0.41514427371E+02  0.29389850308E+01  0.56443675411E+02  0.00000000000E+00 0. -1.
          1    1    1    2  502    0 -0.87111443892E+02 -0.80323371065E+02  0.20291349950E+03  0.23497688370E+03  0.00000000000E+00 0. -1.
         22    1    1    2    0    0  0.54049633433E+02  0.63843943635E+02  0.73713871171E+02  0.11149505288E+03  0.00000000000E+00 0. -1.
         22    1    1    2    0    0 -0.50669605799E+01 -0.25034999942E+02  0.14605599254E+03  0.14827264841E+03  0.00000000000E+00 0. -1.
</event>
<event>
 6    1  0.2809573E-005  0.1656973E+03  0.7818608E-02  0.1202936E+00
          2   -1    0    0  502    0  0.00000000000E+00  0.00000000000E+00  0.58474324057E+03  0.58474324057E+03  0.00000000000E+00 0. -1.
          1   -1    0    0  501    0 -0.00000000000E+00 -0.00000000000E+00 -0.20902138387E+03  0.20902138387E+03  0.00000000000E+00 0.  1.
          2    1    1    2  501    0  0.87479687786E+02 -0.88129425276E+02  0.53469716759E+02  0.13519801028E+03  0.00000000000E+00 0. -1.
          1    1    1    2  502    0 -0.46866902265E+02  0.16273548306E+03 -0.10834022738E+03  0.20103966982E+03  0.00000000000E+00 0.  1.
         22    1    1    2    0    0 -0.61368743202E+02 -0.85815553949E+02  0.41734281052E+03  0.43047119931E+03  0.00000000000E+00 0. -1.
         22    1    1    2    0    0  0.20755957681E+02  0.11209496165E+02  0.13249556793E+02  0.27055745022E+02  0.00000000000E+00 0. -1.
</event>
<event>
 6    1  0.2809573E-005  0.3195835E+03  0.7818608E-02  0.1177043E+00
          2   -1    0    0  502    0  0.00000000000E+00  0.00000000000E+00  0.10788314955E+03  0.10788314955E+03  0.00000000000E+00 0.  1.
          1   -1    0    0  501    0 -0.00000000000E+00 -0.00000000000E+00 -0.16037474715E+04  0.16037474715E+04  0.00000000000E+00 0. -1.
          2    1    1    2  501    0 -0.46600196397E+02  0.42517900473E+02 -0.22801781322E+03  0.23658291002E+03  0.00000000000E+00 0.  1.
          1    1    1    2  502    0 -0.35988917970E+02 -0.28235753770E+02 -0.13184695965E+04  0.13192628763E+04  0.00000000000E+00 0. -1.
         22    1    1    2    0    0  0.10819780091E+03 -0.94656056947E+01  0.64441762123E+02  0.12628975619E+03  0.00000000000E+00 0.  1.
         22    1    1    2    0    0 -0.25608686546E+02 -0.48165410085E+01 -0.13818674321E+02  0.29495078469E+02  0.00000000000E+00 0. -1.
</event>
<event>
 6    1  0.2809573E-005  0.1611586E+03  0.7818608E-02  0.1237361E+00
          2   -1    0    0  502    0  0.00000000000E+00  0.00000000000E+00  0.61898598163E+03  0.61898598163E+03  0.00000000000E+00 0. -1.
          1   -1    0    0  501    0 -0.00000000000E+00 -0.00000000000E+00 -0.19682107747E+03  0.19682107747E+03  0.00000000000E+00 0. -1.
          2    1    1    2  501    0 -0.14104040534E+03 -0.55005977056E+01 -0.12505536008E+03  0.18857755858E+03  0.00000000000E+00 0. -1.
          1    1    1    2  502    0  0.14930120114E+03 -0.68285312995E+02  0.31650214943E+03  0.35654921571E+03  0.00000000000E+00 0. -1.
         22    1    1    2    0    0 -0.40472024386E+01  0.18286366254E+02 -0.11614501581E+02  0.22037869346E+02  0.00000000000E+00 0. -1.
         22    1    1    2    0    0 -0.42135933559E+01  0.55499544447E+02  0.24233261639E+03  0.24864241547E+03  0.00000000000E+00 0. -1.
</event>
<event>
 6    1  0.2809573E-005  0.8570577E+02  0.7818608E-02  0.1318680E+00
          2   -1    0    0  502    0  0.00000000000E+00  0.00000000000E+00  0.14133988332E+03  0.14133988332E+03  0.00000000000E+00 0. -1.
          1   -1    0    0  501    0 -0.00000000000E+00 -0.00000000000E+00 -0.22561886515E+03  0.22561886515E+03  0.00000000000E+00 0. -1.
          2    1    1    2  501    0 -0.23392507395E+02  0.42604603077E+01 -0.44687122734E+01  0.24193600675E+02  0.00000000000E+00 0. -1.
          1    1    1    2  502    0 -0.95659322019E+01  0.18941695568E+02 -0.17640252694E+03  0.17767427051E+03  0.00000000000E+00 0. -1.
         22    1    1    2    0    0  0.77528899949E+02 -0.37813399953E+02  0.54239463680E+02  0.10189456788E+03  0.00000000000E+00 0.  1.
         22    1    1    2    0    0 -0.44570460352E+02  0.14611244078E+02  0.42352793701E+02  0.63196309416E+02  0.00000000000E+00 0. -1.
</event>
<event>
 6    1  0.2809573E-005  0.4791382E+03  0.7818608E-02  0.1137466E+00
          2   -1    0    0  502    0  0.00000000000E+00  0.00000000000E+00  0.54989539439E+03  0.54989539439E+03  0.00000000000E+00 0. -1.
          1   -1    0    0  501    0 -0.00000000000E+00 -0.00000000000E+00 -0.33499618279E+03  0.33499618279E+03  0.00000000000E+00 0. -1.
          2    1    1    2  501    0  0.17149502762E+03  0.57739767215E+02  0.13032067520E+02  0.18142287618E+03  0.00000000000E+00 0. -1.
          1    1    1    2  502    0  0.21446234675E+02 -0.22343273687E+02 -0.21907042140E+03  0.22124875681E+03  0.00000000000E+00 0. -1.
         22    1    1    2    0    0 -0.21197675496E+03 -0.39719346960E+02  0.38924435275E+03  0.44499768237E+03  0.00000000000E+00 0. -1.
         22    1    1    2    0    0  0.19035492662E+02  0.43228534318E+01  0.31693212722E+02  0.37222261824E+02  0.00000000000E+00 0.  1.
</event>
<event>
 6    1  0.2809573E-005  0.8581592E+02  0.7818608E-02  0.1333832E+00
          2   -1    0    0  502    0  0.00000000000E+00  0.00000000000E+00  0.63699368765E+03  0.63699368765E+03  0.00000000000E+00 0. -1.
          1   -1    0    0  501    0 -0.00000000000E+00 -0.00000000000E+00 -0.21388201225E+02  0.21388201225E+02  0.00000000000E+00 0.  1.
          2    1    1    2  501    0  0.29583061046E+01  0.19994190895E+02  0.13078521157E+02  0.24074196979E+02  0.00000000000E+00 0. -1.
          1    1    1    2  502    0 -0.99818249397E+01 -0.35042107346E+02  0.25127153467E+02  0.44260139604E+02  0.00000000000E+00 0.  1.
         22    1    1    2    0    0  0.28637477216E+02 -0.46373405123E+02  0.31561614102E+03  0.32028759932E+03  0.00000000000E+00 0. -1.
         22    1    1    2    0    0 -0.21613958381E+02  0.61421321574E+02  0.26178367078E+03  0.26975995297E+03  0.00000000000E+00 0. -1.
</event>
<event>
 6    1  0.2809573E-005  0.1819021E+03  0.7818608E-02  0.1194001E+00
          2   -1    0    0  502    0  0.00000000000E+00  0.00000000000E+00  0.14148171679E+03  0.14148171679E+03  0.00000000000E+00 0.  1.
          1   -1    0    0  501    0 -0.00000000000E+00 -0.00000000000E+00 -0.26641397816E+03  0.26641397816E+03  0.00000000000E+00 0.  1.
          2    1    1    2  501    0 -0.23795405239E+02 -0.88545674704E+02 -0.10839892283E+03  0.14197494247E+03  0.00000000000E+00 0.  1.
          1    1    1    2  502    0  0.53896924283E+02  0.11685188848E+02 -0.83505440939E+02  0.10007287720E+03  0.00000000000E+00 0.  1.
         22    1    1    2    0    0  0.28070116480E+02  0.86711618313E+02  0.28831306425E+02  0.95593307400E+02  0.00000000000E+00 0.  1.
         22    1    1    2    0    0 -0.58171635524E+02 -0.98511324561E+01  0.38140795968E+02  0.70254567874E+02  0.00000000000E+00 0.  1.
</event>
<event>
 6    1  0.2809573E-005  0.8490395E+02  0.7818608E-02  0.1344754E+00
          2   -1    0    0  502    0  0.00000000000E+00  0.00000000000E+00  0.18609812453E+02  0.18609812453E+02  0.00000000000E+00 0. -1.
          1   -1    0    0  501    0 -0.00000000000E+00 -0.00000000000E+00 -0.13139540364E+04  0.13139540364E+04  0.00000000000E+00 0. -1.
          2    1    1    2  501    0 -0.40863537833E+02  0.12155282934E+02 -0.58195056474E+03  0.58351010225E+03  0.00000000000E+00 0. -1.
          1    1    1    2  502    0  0.39645919499E+02  0.24825829725E+02 -0.46689259123E+03  0.46923002089E+03  0.00000000000E+00 0. -1.
         22    1    1    2    0    0 -0.46118239499E+02 -0.23435334130E+02 -0.21554280301E+03  0.22166372466E+03  0.00000000000E+00 0. -1.
         22    1    1    2    0    0  0.47335857833E+02 -0.13545778530E+02 -0.30958264954E+02  0.58160001047E+02  0.00000000000E+00 0. -1.
</event>
<event>
 6    1  0.2809573E-005  0.2215914E+03  0.7818608E-02  0.1257442E+00
          2   -1    0    0  502    0  0.00000000000E+00  0.00000000000E+00  0.19400297563E+02  0.19400297563E+02  0.00000000000E+00 0.  1.
          1   -1    0    0  501    0 -0.00000000000E+00 -0.00000000000E+00 -0.12184650826E+04  0.12184650826E+04  0.00000000000E+00 0.  1.
          2    1    1    2  501    0 -0.26600606666E+02 -0.11245562273E+03 -0.43912669462E+03  0.45407721071E+03  0.00000000000E+00 0.  1.
          1    1    1    2  502    0 -0.16584359267E+02  0.33918572777E+02 -0.20394596926E+03  0.20741135198E+03  0.00000000000E+00 0.  1.
         22    1    1    2    0    0  0.54423133844E+02  0.87396854281E+02 -0.55200056158E+03  0.56151999753E+03  0.00000000000E+00 0.  1.
         22    1    1    2    0    0 -0.11238167912E+02 -0.88598043251E+01 -0.39915595537E+01  0.14856819927E+02  0.00000000000E+00 0. -1.
</event>
<event>
 6    1  0.2809573E-005  0.1518911E+03  0.7818608E-02  0.1261493E+00
          2   -1    0    0  502    0  0.00000000000E+00  0.00000000000E+00  0.48289378604E+02  0.48289378604E+02  0.00000000000E+00 0. -1.
          1   -1    0    0  501    0 -0.00000000000E+00 -0.00000000000E+00 -0.84938144204E+03  0.84938144204E+03  0.00000000000E+00 0. -1.
          2    1    1    2  501    0 -0.92013760069E+02 -0.83954053273E+02 -0.27050180689E+03  0.29780201919E+03  0.00000000000E+00 0. -1.
          1    1    1    2  502    0  0.88926522766E+02  0.83904566707E+02 -0.41293501136E+03  0.43065441640E+03  0.00000000000E+00 0. -1.
         22    1    1    2    0    0 -0.83330812501E+01  0.40175525498E+02  0.34005524279E+01  0.41171310994E+02  0.00000000000E+00 0. -1.
         22    1    1    2    0    0  0.11420318553E+02 -0.40126038932E+02 -0.12105579762E+03  0.12804307405E+03  0.00000000000E+00 0.  1.
</event>
<event>
 6    1  0.2809573E-005  0.7975222E+02  0.7818608E-02  0.1358837E+00
          2   -1    0    0  502    0  0.00000000000E+00  0.00000000000E+00  0.20204761818E+03  0.20204761818E+03  0.00000000000E+00 0. -1.
          1   -1    0    0  501    0 -0.00000000000E+00 -0.00000000000E+00 -0.96703322694E+03  0.96703322694E+03  0.00000000000E+00 0.  1.
          2    1    1    2  501    0  0.31850800365E+02 -0.55616220002E+01  0.87605565789E+02  0.93381691355E+02  0.00000000000E+00 0. -1.
          1    1    1    2  502    0  0.76276144401E+02 -0.23288750273E+02 -0.90089056444E+03  0.90441374668E+03  0.00000000000E+00 0.  1.
         22    1    1    2    0    0 -0.11560861220E+03  0.41584733814E+02  0.22022602270E+01  0.12287998719E+03  0.00000000000E+00 0. -1.
         22    1    1    2    0    0  0.74816674374E+01 -0.12734361541E+02  0.46097129661E+02  0.48405419887E+02  0.00000000000E+00 0. -1.
</event>
<event>
 6    1  0.2809573E-005  0.8308662E+02  0.7818608E-02  0.1322879E+00
          2   -1    0    0  502    0  0.00000000000E+00  0.00000000000E+00  0.91885971859E+01  0.91885971859E+01  0.00000000000E+00 0. -1.
          1   -1    0    0  501    0 -0.00000000000E+00 -0.00000000000E+00 -0.17853973417E+04  0.17853973417E+04  0.00000000000E+00 0. -1.
          2    1    1    2  501    0 -0.68733256539E+01  0.34790449398E+02 -0.20845148549E+03  0.21144654119E+03  0.00000000000E+00 0. -1.
          1    1    1    2  502    0  0.40323655403E+02 -0.22354884560E+02 -0.95159861620E+03  0.95271489145E+03  0.00000000000E+00 0. -1.
         22    1    1    2    0    0 -0.48949617386E+02 -0.63391860796E+02 -0.37198814213E+03  0.38051251089E+03  0.00000000000E+00 0. -1.
         22    1    1    2    0    0  0.15499287638E+02  0.50956295958E+02 -0.24417050069E+03  0.24991199535E+03  0.00000000000E+00 0. -1.
</event>
<event>
 6    1  0.2809573E-005  0.1008972E+03  0.7818608E-02  0.1341169E+00
          2   -1    0    0  502    0  0.00000000000E+00  0.00000000000E+00  0.12688717291E+03  0.12688717291E+03  0.00000000000E+00 0. -1.
          1   -1    0    0  501    0 -0.00000000000E+00 -0.00000000000E+00 -0.12078345428E+04  0.12078345428E+04  0.00000000000E+00 0.  1.
          2    1    1    2  501    0 -0.55644770755E+02  0.17979817101E+02  0.20428776700E+02  0.61943113038E+02  0.00000000000E+00 0. -1.
          1    1    1    2  502    0  0.29700257545E+02 -0.62442721164E+02 -0.11300766303E+04  0.11321900852E+04  0.00000000000E+00 0.  1.
         22    1    1    2    0    0  0.32131697823E+02 -0.30327152171E+01 -0.43365504321E+02  0.54057472486E+02  0.00000000000E+00 0.  1.
         22    1    1    2    0    0 -0.61871846135E+01  0.47495619279E+02  0.72065988054E+02  0.86531044939E+02  0.00000000000E+00 0. -1.
</event>
<event>
 6    1  0.2809573E-005  0.9975501E+02  0.7818608E-02  0.1283255E+00
          2   -1    0    0  502    0  0.00000000000E+00  0.00000000000E+00  0.10028649896E+04  0.10028649896E+04  0.00000000000E+00 0. -1.
          1   -1    0    0  501    0 -0.00000000000E+00 -0.00000000000E+00 -0.47922483487E+02  0.47922483487E+02  0.00000000000E+00 0. -1.
          2    1    1    2  501    0 -0.47402328945E+02  0.31605778663E+02  0.15558462102E+03  0.16568790038E+03  0.00000000000E+00 0. -1.
          1    1    1    2  502    0 -0.20591691607E+02 -0.80747573603E+02  0.12564428267E+02  0.84273680729E+02  0.00000000000E+00 0. -1.
         22    1    1    2    0    0  0.10316311333E+03  0.23879558832E+02  0.56910667924E+03  0.57887414318E+03  0.00000000000E+00 0. -1.
         22    1    1    2    0    0 -0.35169092781E+02  0.25262236107E+02  0.21768677757E+03  0.22195174878E+03  0.00000000000E+00 0.  1.
</event>
<event>
 6    1  0.2809573E-005  0.1727372E+03  0.7818608E-02  0.1176232E+00
          2   -1    0    0  502    0  0.00000000000E+00  0.00000000000E+00  0.48963763340E+03  0.48963763340E+03  0.00000000000E+00 0. -1.
          1   -1    0    0  501    0 -0.00000000000E+00 -0.00000000000E+00 -0.33264492791E+03  0.33264492791E+03  0.00000000000E+00 0. -1.
          2    1    1    2  501    0  0.15920487830E+03  0.72166701455E+02 -0.66346389177E+02  0.18696542308E+03  0.00000000000E+00 0. -1.
          1    1    1    2  502    0  0.74160661868E+01 -0.87966773232E+02 -0.16849759742E+03  0.19022247913E+03  0.00000000000E+00 0. -1.
         22    1    1    2    0    0  0.22205809233E+01  0.10419322329E+02 -0.64575977307E+01  0.12457681401E+02  0.00000000000E+00 0.  1.
         22    1    1    2    0    0 -0.16884152541E+03  0.53807494482E+01  0.39829428982E+03  0.43263697769E+03  0.00000000000E+00 0. -1.
</event>
<event>
 6    1  0.2809573E-005  0.9290563E+02  0.7818608E-02  0.1329024E+00
          2   -1    0    0  502    0  0.00000000000E+00  0.00000000000E+00  0.52482654983E+02  0.52482654983E+02  0.00000000000E+00 0.  1.
          1   -1    0    0  501    0 -0.00000000000E+00 -0.00000000000E+00 -0.30120765950E+03  0.30120765950E+03  0.00000000000E+00 0.  1.
          2    1    1    2  501    0 -0.16349066963E+02 -0.59919370675E+02 -0.14181613290E+03  0.15482066568E+03  0.00000000000E+00 0.  1.
          1    1    1    2  502    0  0.11558533968E+02  0.38765511360E+02 -0.19431403373E+02  0.44876987595E+02  0.00000000000E+00 0.  1.
         22    1    1    2    0    0  0.49070738317E+02  0.72691170868E+01  0.56663211367E+01  0.49928795474E+02  0.00000000000E+00 0.  1.
         22    1    1    2    0    0 -0.44280205322E+02  0.13884742228E+02 -0.93143789387E+02  0.10406386573E+03  0.00000000000E+00 0.  1.
</event>
<event>
 6    1  0.2809573E-005  0.5875841E+02  0.7818608E-02  0.1498875E+00
          2   -1    0    0  502    0  0.00000000000E+00  0.00000000000E+00  0.67312792972E+02  0.67312792972E+02  0.00000000000E+00 0.  1.
          1   -1    0    0  501    0 -0.00000000000E+00 -0.00000000000E+00 -0.10376612075E+04  0.10376612075E+04  0.00000000000E+00 0. -1.
          2    1    1    2  501    0  0.22607809090E+02  0.42350706109E+01 -0.90213199926E+01  0.24706943747E+02  0.00000000000E+00 0.  1.
          1    1    1    2  502    0 -0.37490686798E+02 -0.13085565908E+02 -0.95167305974E+03  0.95250112665E+03  0.00000000000E+00 0. -1.
         22    1    1    2    0    0  0.34364205203E+01  0.17484896583E+02 -0.66651680225E+02  0.68992587075E+02  0.00000000000E+00 0. -1.
         22    1    1    2    0    0  0.11446457188E+02 -0.86344012859E+01  0.56997645409E+02  0.58773343022E+02  0.00000000000E+00 0.  1.
</event>
<event>
 6    1  0.2809573E-005  0.1250294E+03  0.7818608E-02  0.1317676E+00
          2   -1    0    0  502    0  0.00000000000E+00  0.00000000000E+00  0.10419111647E+03  0.10419111647E+03  0.00000000000E+00 0. -1.
          1   -1    0    0  501    0 -0.00000000000E+00 -0.00000000000E+00 -0.85073261635E+03  0.85073261635E+03  0.00000000000E+00 0. -1.
          2    1    1    2  501    0 -0.37455110831E+02  0.37956232877E+02 -0.46608067756E+02  0.70822827687E+02  0.00000000000E+00 0. -1.
          1    1    1    2  502    0  0.81062627099E+02 -0.88516088041E+02 -0.72951228015E+03  0.73932023795E+03  0.00000000000E+00 0. -1.
         22    1    1    2    0    0 -0.66185976807E+02  0.38382609958E+02 -0.28216946192E+02  0.81547558673E+02  0.00000000000E+00 0.  1.
         22    1    1    2    0    0  0.22578460539E+02  0.12177245206E+02  0.57795794221E+02  0.63233108501E+02  0.00000000000E+00 0. -1.
</event>
<event>
 6    1  0.2809573E-005  0.1157643E+03  0.7818608E-02  0.1291424E+00
          2   -1    0    0  502    0  0.00000000000E+00  0.00000000000E+00  0.43382407811E+03  0.43382407811E+03  0.00000000000E+00 0. -1.
          1   -1    0    0  501    0 -0.00000000000E+00 -0.00000000000E+00 -0.74628503608E+02  0.74628503608E+02  0.00000000000E+00 0. -1.
          2    1    1    2  501    0 -0.28338237828E+02 -0.59350925044E+01  0.26637391937E+02  0.39342492237E+02  0.00000000000E+00 0. -1.
          1    1    1    2  502    0 -0.95448036441E+00 -0.35199222370E+02 -0.52015129014E+02  0.62812975845E+02  0.00000000000E+00 0. -1.
         22    1    1    2    0    0  0.72415239715E+02  0.15980983641E+01  0.22199299732E+03  0.23351105267E+03  0.00000000000E+00 0. -1.
         22    1    1    2    0    0 -0.43122521522E+02  0.39536216510E+02  0.16258031426E+03  0.17278606097E+03  0.00000000000E+00 0. -1.
</event>
<event>
 6    1  0.2809573E-005  0.1572688E+03  0.7818608E-02  0.1217664E+00
          2   -1    0    0  502    0  0.00000000000E+00  0.00000000000E+00  0.21574491541E+03  0.21574491541E+03  0.00000000000E+00 0. -1.
          1   -1    0    0  501    0 -0.00000000000E+00 -0.00000000000E+00 -0.24829943256E+04  0.24829943256E+04  0.00000000000E+00 0. -1.
          2    1    1    2  501    0  0.30615281141E+02  0.42814623329E+02  0.44003676489E+02  0.68605473213E+02  0.00000000000E+00 0. -1.
          1    1    1    2  502    0 -0.13454913836E+03 -0.71680475961E+02 -0.24254637987E+04  0.24302502340E+04  0.00000000000E+00 0. -1.
         22    1    1    2    0    0  0.87324156291E+02 -0.22220071857E+02  0.11507820569E+03  0.14615824742E+03  0.00000000000E+00 0.  1.
         22    1    1    2    0    0  0.16609700927E+02  0.51085924489E+02 -0.86749367395E+00  0.53725286328E+02  0.00000000000E+00 0. -1.
</event>
<event>
 6    1  0.2809573E-005  0.1677794E+03  0.7818608E-02  0.1240485E+00
          2   -1    0    0  502    0  0.00000000000E+00  0.00000000000E+00  0.82036357432E+02  0.82036357432E+02  0.00000000000E+00 0. -1.
          1   -1    0    0  501    0 -0.00000000000E+00 -0.00000000000E+00 -0.59784383834E+03  0.59784383834E+03  0.00000000000E+00 0. -1.
          2    1    1    2  501    0  0.26325034654E+02  0.30891680494E+02 -0.10652308103E+03  0.11399329000E+03  0.00000000000E+00 0. -1.
          1    1    1    2  502    0 -0.14005716896E+03 -0.12098741295E+03 -0.26866240454E+03  0.32624140186E+03  0.00000000000E+00 0. -1.
         22    1    1    2    0    0  0.97253288511E+02  0.46838986311E+02 -0.15701360368E+03  0.19053966648E+03  0.00000000000E+00 0.  1.
         22    1    1    2    0    0  0.16478845794E+02  0.43256746149E+02  0.16391608336E+02  0.49105837433E+02  0.00000000000E+00 0.  1.
</event>
<event>
 6    1  0.2809573E-005  0.1574691E+03  0.7818608E-02  0.1197809E+00
          2   -1    0    0  502    0  0.00000000000E+00  0.00000000000E+00  0.20229838439E+03  0.20229838439E+03  0.00000000000E+00 0. -1.
          1   -1    0    0  501    0 -0.00000000000E+00 -0.00000000000E+00 -0.11378251090E+04  0.11378251090E+04  0.00000000000E+00 0. -1.
          2    1    1    2  501    0 -0.94830028463E+02  0.17495980991E+03 -0.10257513487E+04  0.10448777434E+04  0.00000000000E+00 0. -1.
          1    1    1    2  502    0  0.26345757386E+02 -0.70959882874E+02 -0.30977927771E+02  0.81786526511E+02  0.00000000000E+00 0. -1.
         22    1    1    2    0    0  0.68083331180E+02 -0.11711801475E+03  0.13717091168E+03  0.19278959613E+03  0.00000000000E+00 0. -1.
         22    1    1    2    0    0  0.40093989650E+00  0.13118087713E+02 -0.15968359878E+02  0.20669627361E+02  0.00000000000E+00 0. -1.
</event>
<event>
 6    1  0.2809573E-005  0.1228631E+03  0.7818608E-02  0.1340860E+00
          2   -1    0    0  502    0  0.00000000000E+00  0.00000000000E+00  0.12078537290E+03  0.12078537290E+03  0.00000000000E+00 0.  1.
          1   -1    0    0  501    0 -0.00000000000E+00 -0.00000000000E+00 -0.84225768770E+03  0.84225768770E+03  0.00000000000E+00 0.  1.
          2    1    1    2  501    0 -0.31122169145E+02  0.26039799752E+02 -0.89897210869E+01  0.41562912177E+02  0.00000000000E+00 0.  1.
          1    1    1    2  502    0  0.62273632659E+02 -0.10524492175E+03 -0.75648783233E+03  0.76630825347E+03  0.00000000000E+00 0.  1.
         22    1    1    2    0    0 -0.34843154335E+02  0.61618000618E+02 -0.31556614580E+02  0.77502537557E+02  0.00000000000E+00 0.  1.
         22    1    1    2    0    0  0.36916908203E+01  0.17587121379E+02  0.75561853191E+02  0.77669357389E+02  0.00000000000E+00 0.  1.
</event>
<event>
 6    1  0.2809573E-005  0.8177406E+02  0.7818608E-02  0.1330050E+00
          2   -1    0    0  502    0  0.00000000000E+00  0.00000000000E+00  0.60110092987E+03  0.60110092987E+03  0.00000000000E+00 0. -1.
          1   -1    0    0  501    0 -0.00000000000E+00 -0.00000000000E+00 -0.24949395256E+02  0.24949395256E+02  0.00000000000E+00 0.  1.
          2    1    1    2  501    0 -0.20612520879E+02  0.54730576678E+02  0.27703196651E+03  0.28313781540E+03  0.00000000000E+00 0. -1.
          1    1    1    2  502    0  0.29047615563E+02 -0.20393957081E+02  0.77491128961E+02  0.85232344348E+02  0.00000000000E+00 0.  1.
         22    1    1    2    0    0  0.53591296152E+02 -0.10388780790E+02  0.51611338741E+02  0.75124457244E+02  0.00000000000E+00 0.  1.
         22    1    1    2    0    0 -0.62026390836E+02 -0.23947838806E+02  0.17001710040E+03  0.18255570813E+03  0.00000000000E+00 0. -1.
</event>
<event>
 6    1  0.2809573E-005  0.8104759E+02  0.7818608E-02  0.1329523E+00
          2   -1    0    0  502    0  0.00000000000E+00  0.00000000000E+00  0.56234177467E+03  0.56234177467E+03  0.00000000000E+00 0. -1.
          1   -1    0    0  501    0 -0.00000000000E+00 -0.00000000000E+00 -0.16192405953E+04  0.16192405953E+04  0.00000000000E+00 0.  1.
          2    1    1    2  501    0  0.40303389717E+02  0.27135279395E+02  0.17221368400E+03  0.17893641208E+03  0.00000000000E+00 0. -1.
          1    1    1    2  502    0 -0.31489462184E+02 -0.33147104049E+02 -0.16059277936E+04  0.16065784746E+04  0.00000000000E+00 0.  1.
         22    1    1    2    0    0 -0.64313360914E+02 -0.28299320431E+01  0.23081895622E+03  0.23962806066E+03  0.00000000000E+00 0.  1.
         22    1    1    2    0    0  0.55499433382E+02  0.88417566969E+01  0.14599633278E+03  0.15643942263E+03  0.00000000000E+00 0. -1.
</event>
<event>
 6    1  0.2809573E-005  0.9318131E+02  0.7818608E-02  0.1335235E+00
          2   -1    0    0  502    0  0.00000000000E+00  0.00000000000E+00  0.13681921601E+03  0.13681921601E+03  0.00000000000E+00 0.  1.
          1   -1    0    0  501    0 -0.00000000000E+00 -0.00000000000E+00 -0.77006079998E+03  0.77006079998E+03  0.00000000000E+00 0.  1.
          2    1    1    2  501    0 -0.24011578163E+02  0.63143635578E+02 -0.37270215199E+02  0.77154024787E+02  0.00000000000E+00 0.  1.
          1    1    1    2  502    0  0.75078666796E+02 -0.50874055805E+02 -0.67051454513E+03  0.67662007877E+03  0.00000000000E+00 0.  1.
         22    1    1    2    0    0 -0.24303410779E+02  0.24432655454E+02 -0.25740852655E+02  0.43013973584E+02  0.00000000000E+00 0.  1.
         22    1    1    2    0    0 -0.26763677854E+02 -0.36702235228E+02  0.10028402902E+03  0.11009193885E+03  0.00000000000E+00 0.  1.
</event>
<event>
 6    1  0.2809573E-005  0.1925153E+03  0.7818608E-02  0.1157112E+00
          2   -1    0    0  502    0  0.00000000000E+00  0.00000000000E+00  0.50754277006E+03  0.50754277006E+03  0.00000000000E+00 0. -1.
          1   -1    0    0  501    0 -0.00000000000E+00 -0.00000000000E+00 -0.52416172606E+03  0.52416172606E+03  0.00000000000E+00 0. -1.
          2    1    1    2  501    0 -0.14751652449E+03  0.72777075151E+02  0.23450951943E+03  0.28644780043E+03  0.00000000000E+00 0. -1.
          1    1    1    2  502    0 -0.76697269881E+02 -0.83664427972E+02 -0.42109454813E+03  0.43612248988E+03  0.00000000000E+00 0. -1.
         22    1    1    2    0    0 -0.80006119049E+01  0.14343575962E+02  0.39450207926E+02  0.42732503643E+02  0.00000000000E+00 0.  1.
         22    1    1    2    0    0  0.23221440628E+03 -0.34562231411E+01  0.13051586477E+03  0.26640170217E+03  0.00000000000E+00 0.  1.
</event>
<event>
 6    1  0.2809573E-005  0.1937810E+03  0.7818608E-02  0.1277572E+00
          2   -1    0    0  502    0  0.00000000000E+00  0.00000000000E+00  0.16236488844E+03  0.16236488844E+03  0.00000000000E+00 0.  1.
          1   -1    0    0  501    0 -0.00000000000E+00 -0.00000000000E+00 -0.12287719313E+03  0.12287719313E+03  0.00000000000E+00 0.  1.
          2    1    1    2  501    0  0.33623701494E+02 -0.61569595228E+02  0.10664171847E+02  0.70958388650E+02  0.00000000000E+00 0.  1.
          1    1    1    2  502    0  0.35103564101E+02 -0.27455471108E+02  0.53807258459E+01  0.44888921985E+02  0.00000000000E+00 0.  1.
         22    1    1    2    0    0  0.13771942261E+02 -0.44560533627E+01  0.41005133230E+02  0.43484983113E+02  0.00000000000E+00 0.  1.
         22    1    1    2    0    0 -0.82499207855E+02  0.93481119698E+02 -0.17562335613E+02  0.12590978782E+03  0.00000000000E+00 0.  1.
</event>
<event>
 6    1  0.2809573E-005  0.8289721E+02  0.7818608E-02  0.1433305E+00
          2   -1    0    0  502    0  0.00000000000E+00  0.00000000000E+00  0.67711537433E+02  0.67711537433E+02  0.00000000000E+00 0. -1.
          1   -1    0    0  501    0 -0.00000000000E+00 -0.00000000000E+00 -0.10541729834E+04  0.10541729834E+04  0.00000000000E+00 0. -1.
          2    1    1    2  501    0 -0.22060014215E+02 -0.24684304634E+02 -0.34104356713E+02  0.47529635694E+02  0.00000000000E+00 0. -1.
          1    1    1    2  502    0  0.69446521591E+02  0.48968785070E+01 -0.93962556581E+03  0.94220114769E+03  0.00000000000E+00 0. -1.
         22    1    1    2    0    0  0.10315491832E+02  0.81328765291E+01  0.46694409287E+02  0.48506916115E+02  0.00000000000E+00 0. -1.
         22    1    1    2    0    0 -0.57701999208E+02  0.11654549598E+02 -0.59425932734E+02  0.83646821340E+02  0.00000000000E+00 0. -1.
</event>
<event>
 6    1  0.2809573E-005  0.1548536E+03  0.7818608E-02  0.1197512E+00
          2   -1    0    0  502    0  0.00000000000E+00  0.00000000000E+00  0.22599251751E+03  0.22599251751E+03  0.00000000000E+00 0.  1.
          1   -1    0    0  501    0 -0.00000000000E+00 -0.00000000000E+00 -0.18345697510E+04  0.18345697510E+04  0.00000000000E+00 0.  1.
          2    1    1    2  501    0 -0.93409417913E+02  0.55960514493E+01 -0.31039777198E+02  0.98590582284E+02  0.00000000000E+00 0.  1.
          1    1    1    2  502    0 -0.10004719714E+02  0.12031214456E+03 -0.17125669908E+04  0.17168170563E+04  0.00000000000E+00 0.  1.
         22    1    1    2    0    0  0.11337618364E+03 -0.14403972173E+03  0.12680057188E+03  0.22289007488E+03  0.00000000000E+00 0.  1.
         22    1    1    2    0    0 -0.99620460115E+01  0.18131525712E+02  0.82289626949E+01  0.22264555069E+02  0.00000000000E+00 0. -1.
</event>
<event>
 6    1  0.2809573E-005  0.1714819E+03  0.7818608E-02  0.1257404E+00
          2   -1    0    0  502    0  0.00000000000E+00  0.00000000000E+00  0.38292319360E+02  0.38292319360E+02  0.00000000000E+00 0. -1.
          1   -1    0    0  501    0 -0.00000000000E+00 -0.00000000000E+00 -0.15516254110E+04  0.15516254110E+04  0.00000000000E+00 0.  1.
          2    1    1    2  501    0 -0.14407145839E+02 -0.19474233644E+02 -0.12682700754E+03  0.12911971758E+03  0.00000000000E+00 0. -1.
          1    1    1    2  502    0  0.13029823705E+03  0.49112228510E+02 -0.11869906672E+04  0.11951303216E+04  0.00000000000E+00 0.  1.
         22    1    1    2    0    0  0.26528355885E+02 -0.15847818327E+02 -0.23448235102E+02  0.38790807430E+02  0.00000000000E+00 0. -1.
         22    1    1    2    0    0 -0.14241944710E+03 -0.13790176539E+02 -0.17606718184E+03  0.22687688380E+03  0.00000000000E+00 0. -1.
</event>
<event>
 6    1  0.2809573E-005  0.7877366E+02  0.7818608E-02  0.1366776E+00
          2   -1    0    0  502    0  0.00000000000E+00  0.00000000000E+00  0.43547487249E+02  0.43547487249E+02  0.00000000000E+00 0. -1.
          1   -1    0    0  501    0 -0.00000000000E+00 -0.00000000000E+00 -0.10130970684E+04  0.10130970684E+04  0.00000000000E+00 0.  1.
          2    1    1    2  501    0 -0.22796070133E+02  0.12693471059E+02  0.41869488373E+01  0.26425661044E+02  0.00000000000E+00 0. -1.
          1    1    1    2  502    0  0.59613219218E+02 -0.49034105640E+02 -0.82880367162E+03  0.83239029638E+03  0.00000000000E+00 0.  1.
         22    1    1    2    0    0 -0.13739496317E+02  0.41721878146E+02 -0.16249886589E+03  0.16833113286E+03  0.00000000000E+00 0.  1.
         22    1    1    2    0    0 -0.23077652768E+02 -0.53812435648E+01  0.17566007552E+02  0.29497465330E+02  0.00000000000E+00 0. -1.
</event>
<event>
 6    1  0.2809573E-005  0.2736278E+03  0.7818608E-02  0.1188999E+00
          2   -1    0    0  502    0  0.00000000000E+00  0.00000000000E+00  0.23089382753E+03  0.23089382753E+03  0.00000000000E+00 0.  1.
          1   -1    0    0  501    0 -0.00000000000E+00 -0.00000000000E+00 -0.19932454195E+04  0.19932454195E+04  0.00000000000E+00 0. -1.
          2    1    1    2  501    0 -0.16318538640E+02 -0.13690948502E+03  0.59128701096E+02  0.15002234862E+03  0.00000000000E+00 0.  1.
          1    1    1    2  502    0  0.78602953069E+02  0.24122604943E+03 -0.18737157738E+04  0.18908144362E+04  0.00000000000E+00 0. -1.
         22    1    1    2    0    0 -0.73659650846E+02 -0.74646761883E+02 -0.17823129241E+02  0.10637456067E+03  0.00000000000E+00 0.  1.
         22    1    1    2    0    0  0.11375236417E+02 -0.29669802526E+02  0.70058610033E+02  0.76927901475E+02  0.00000000000E+00 0. -1.
</event>
<event>
 6    1  0.5244974E-005  0.4283564E+02  0.7818608E-02  0.1537640E+00
          2   -1    0    0  502    0  0.00000000000E+00  0.00000000000E+00  0.53396602974E+02  0.53396602974E+02  0.00000000000E+00 0. -1.
          1   -1    0    0  501    0 -0.00000000000E+00 -0.00000000000E+00 -0.20016938044E+04  0.20016938044E+04  0.00000000000E+00 0. -1.
          2    1    1    2  501    0 -0.20705509051E+02 -0.39223881168E+02 -0.15345553242E+03  0.15973675654E+03  0.00000000000E+00 0. -1.
          1    1    1    2  502    0  0.17228528709E+02  0.34785122222E+02 -0.17644440465E+04  0.17648709925E+04  0.00000000000E+00 0. -1.
         22    1    1    2    0    0  0.29082288682E+01  0.21814412671E+02  0.46606118660E+02  0.51540825487E+02  0.00000000000E+00 0. -1.
         22    1    1    2    0    0  0.56875147426E+00 -0.17375653725E+02 -0.77003741160E+02  0.78941832847E+02  0.00000000000E+00 0. -1.
</event>
<event>
 6    1  0.2809573E-005  0.1330409E+03  0.7818608E-02  0.1314237E+00
          2   -1    0    0  502    0  0.00000000000E+00  0.00000000000E+00  0.73911016709E+02  0.73911016709E+02  0.00000000000E+00 0. -1.
          1   -1    0    0  501    0 -0.00000000000E+00 -0.00000000000E+00 -0.30697107962E+03  0.30697107962E+03  0.00000000000E+00 0. -1.
          2    1    1    2  501    0 -0.63834145399E+02 -0.23702939069E+02 -0.30740942395E+02  0.74710327122E+02  0.00000000000E+00 0. -1.
          1    1    1    2  502    0  0.59222613301E+01  0.22483804972E+02 -0.15730240324E+03  0.15901144842E+03  0.00000000000E+00 0. -1.
         22    1    1    2    0    0  0.60074069810E+02 -0.21327478111E+02 -0.81956243506E+02  0.10382957688E+03  0.00000000000E+00 0. -1.
         22    1    1    2    0    0 -0.21621857408E+01  0.22546612208E+02  0.36939526227E+02  0.43330743902E+02  0.00000000000E+00 0. -1.
</event>
<event>
 6    1  0.2809573E-005  0.6384833E+02  0.7818608E-02  0.1383128E+00
          2   -1    0    0  502    0  0.00000000000E+00  0.00000000000E+00  0.29182330253E+03  0.29182330253E+03  0.00000000000E+00 0. -1.
          1   -1    0    0  501    0 -0.00000000000E+00 -0.00000000000E+00 -0.20530600627E+03  0.20530600627E+03  0.00000000000E+00 0. -1.
          2    1    1    2  501    0  0.43803629107E+01  0.23004773765E+02  0.24947291736E+01  0.23550602303E+02  0.00000000000E+00 0. -1.
          1    1    1    2  502    0 -0.38730510412E+02  0.20218093461E+02 -0.17605668551E+03  0.18139674818E+03  0.00000000000E+00 0. -1.
         22    1    1    2    0    0  0.19593000805E+02 -0.65021389504E+02  0.25683221849E+03  0.26565853125E+03  0.00000000000E+00 0. -1.
         22    1    1    2    0    0  0.14757146696E+02  0.21798522278E+02  0.32470341052E+01  0.26523427052E+02  0.00000000000E+00 0. -1.
</event>
<event>
 6    1  0.2809573E-005  0.7706649E+03  0.7818608E-02  0.1103743E+00
          2   -1    0    0  502    0  0.00000000000E+00  0.00000000000E+00  0.22063653313E+03  0.22063653313E+03  0.00000000000E+00 0. -1.
          1   -1    0    0  501    0 -0.00000000000E+00 -0.00000000000E+00 -0.15556995190E+04  0.15556995190E+04  0.00000000000E+00 0. -1.
          2    1    1    2  501    0 -0.26290443566E+03 -0.24392278046E+03 -0.42181242328E+03  0.55366306139E+03  0.00000000000E+00 0. -1.
          1    1    1    2  502    0  0.19587749808E+02 -0.62361520479E+01 -0.84406445014E+03  0.84431473132E+03  0.00000000000E+00 0. -1.
         22    1    1    2    0    0  0.25419114333E+03  0.24948777651E+03 -0.77680693370E+02  0.36454297154E+03  0.00000000000E+00 0. -1.
         22    1    1    2    0    0 -0.10874457474E+02  0.67115599179E+00  0.84945808859E+01  0.13815287914E+02  0.00000000000E+00 0.  1.
</event>
<event>
 6    1  0.2809573E-005  0.1055857E+03  0.7818608E-02  0.1270508E+00
          2   -1    0    0  502    0  0.00000000000E+00  0.00000000000E+00  0.67151501617E+03  0.67151501617E+03  0.00000000000E+00 0. -1.
          1   -1    0    0  501    0 -0.00000000000E+00 -0.00000000000E+00 -0.15584442655E+03  0.15584442655E+03  0.00000000000E+00 0.  1.
          2    1    1    2  501    0  0.65125825783E+02  0.46557248267E+02  0.26029154741E+03  0.27232451267E+03  0.00000000000E+00 0. -1.
          1    1    1    2  502    0 -0.43037850660E+02 -0.78287775187E+01 -0.13538701676E+03  0.14227856709E+03  0.00000000000E+00 0.  1.
         22    1    1    2    0    0 -0.55729513001E+02 -0.61666947011E+02  0.18234691211E+03  0.20039707416E+03  0.00000000000E+00 0. -1.
         22    1    1    2    0    0  0.33641537877E+02  0.22938476263E+02  0.20841914685E+03  0.21235928880E+03  0.00000000000E+00 0. -1.
</event>
<event>
 6    1  0.2809573E-005  0.8138228E+02  0.7818608E-02  0.1389941E+00
          2   -1    0    0  502    0  0.00000000000E+00  0.00000000000E+00  0.12112530771E+03  0.12112530771E+03  0.00000000000E+00 0.  1.
          1   -1    0    0  501    0 -0.00000000000E+00 -0.00000000000E+00 -0.37099315503E+03  0.37099315503E+03  0.00000000000E+00 0. -1.
          2    1    1    2  501    0  0.15769479671E+02  0.16248347168E+02 -0.28929301653E+02  0.36736763180E+02  0.00000000000E+00 0.  1.
          1    1    1    2  502    0  0.30967153632E+02 -0.27401837130E+02 -0.29844406664E+03  0.30129501521E+03  0.00000000000E+00 0. -1.
         22    1    1    2    0    0 -0.48664550557E+02 -0.16053920995E+02 -0.18346507233E+02  0.54429414730E+02  0.00000000000E+00 0.  1.
         22    1    1    2    0    0  0.19279172543E+01  0.27207410957E+02  0.95852028204E+02  0.99657269613E+02  0.00000000000E+00 0.  1.
</event>
<event>
 6    1  0.2809573E-005  0.1579708E+03  0.7818608E-02  0.1230534E+00
          2   -1    0    0  502    0  0.00000000000E+00  0.00000000000E+00  0.13787017287E+03  0.13787017287E+03  0.00000000000E+00 0. -1.
          1   -1    0    0  501    0 -0.00000000000E+00 -0.00000000000E+00 -0.22261343565E+03  0.22261343565E+03  0.00000000000E+00 0. -1.
          2    1    1    2  501    0 -0.36208997880E+02 -0.53388111171E+02 -0.32361278269E+02  0.72170868590E+02  0.00000000000E+00 0. -1.
          1    1    1    2  502    0 -0.42552284539E+02  0.32676960848E+02 -0.11424684646E+03  0.12621736257E+03  0.00000000000E+00 0. -1.
         22    1    1    2    0    0  0.69758310887E+02 -0.45207488337E+02  0.30532785672E+02  0.88556140049E+02  0.00000000000E+00 0. -1.
         22    1    1    2    0    0  0.90029715322E+01  0.65918638660E+02  0.31332076275E+02  0.73539237302E+02  0.00000000000E+00 0. -1.
</event>
<event>
 6    1  0.2809573E-005  0.4414441E+03  0.7818608E-02  0.1102609E+00
          2   -1    0    0  502    0  0.00000000000E+00  0.00000000000E+00  0.52169916593E+03  0.52169916593E+03  0.00000000000E+00 0. -1.
          1   -1    0    0  501    0 -0.00000000000E+00 -0.00000000000E+00 -0.38814312598E+04  0.38814312598E+04  0.00000000000E+00 0.  1.
          2    1    1    2  501    0 -0.25054271046E+03  0.16769374622E+03  0.11773072425E+03  0.32365624622E+03  0.00000000000E+00 0. -1.
          1    1    1    2  502    0  0.27549719240E+03 -0.20657318991E+03 -0.37551791604E+04  0.37709337984E+04  0.00000000000E+00 0.  1.
         22    1    1    2    0    0  0.28364696278E+02  0.65712379039E+02  0.18398904996E+03  0.19741996672E+03  0.00000000000E+00 0. -1.
         22    1    1    2    0    0 -0.53319178213E+02 -0.26832935351E+02  0.93727292232E+02  0.11112041439E+03  0.00000000000E+00 0. -1.
</event>
<event>
 6    1  0.2809573E-005  0.2463447E+03  0.7818608E-02  0.1249206E+00
          2   -1    0    0  502    0  0.00000000000E+00  0.00000000000E+00  0.62937683831E+02  0.62937683831E+02  0.00000000000E+00 0. -1.
          1   -1    0    0  501    0 -0.00000000000E+00 -0.00000000000E+00 -0.13993216161E+04  0.13993216161E+04  0.00000000000E+00 0.  1.
          2    1    1    2  501    0 -0.85286908251E+02  0.19610828589E+02 -0.32780797714E+03  0.33928824205E+03  0.00000000000E+00 0. -1.
          1    1    1    2  502    0  0.14844152512E+03 -0.12066151813E+03 -0.89689838048E+03  0.91707185828E+03  0.00000000000E+00 0.  1.
         22    1    1    2    0    0 -0.33348480733E+01 -0.11805570189E+02  0.19352635998E+02  0.22913254227E+02  0.00000000000E+00 0.  1.
         22    1    1    2    0    0 -0.59819768800E+02  0.11285625973E+03 -0.13103021062E+03  0.18298594535E+03  0.00000000000E+00 0. -1.
</event>
<event>
 6    1  0.2809573E-005  0.9178685E+02  0.7818608E-02  0.1322565E+00
          2   -1    0    0  502    0  0.00000000000E+00  0.00000000000E+00  0.33666023709E+03  0.33666023709E+03  0.00000000000E+00 0. -1.
          1   -1    0    0  501    0 -0.00000000000E+00 -0.00000000000E+00 -0.37157136690E+03  0.37157136690E+03  0.00000000000E+00 0.  1.
          2    1    1    2  501    0  0.17200746772E+01  0.26059397568E+02  0.29841058851E+02  0.39655260078E+02  0.00000000000E+00 0. -1.
          1    1    1    2  502    0 -0.10384792289E+02 -0.20229066700E+02 -0.35377911608E+03  0.35450912827E+03  0.00000000000E+00 0.  1.
         22    1    1    2    0    0 -0.54881953247E+02  0.38223893036E+01  0.96327243572E+02  0.11093050665E+03  0.00000000000E+00 0. -1.
         22    1    1    2    0    0  0.63546670858E+02 -0.96527201715E+01  0.19269968384E+03  0.20313670899E+03  0.00000000000E+00 0. -1.
</event>
<event>
 6    1  0.2809573E-005  0.1635367E+03  0.7818608E-02  0.1198197E+00
          2   -1    0    0  502    0  0.00000000000E+00  0.00000000000E+00  0.45175546421E+02  0.45175546421E+02  0.00000000000E+00 0. -1.
          1   -1    0    0  501    0 -0.00000000000E+00 -0.00000000000E+00 -0.11966856750E+04  0.11966856750E+04  0.00000000000E+00 0. -1.
          2    1    1    2  501    0  0.86514650326E+02 -0.27099829689E+02 -0.22492174321E+03  0.24250562068E+03  0.00000000000E+00 0. -1.
          1    1    1    2  502    0 -0.13394898913E+03 -0.11434069817E+03 -0.49173600417E+03  0.52232214652E+03  0.00000000000E+00 0. -1.
         22    1    1    2    0    0  0.70959683826E+02  0.22114460480E+02 -0.17479876505E+03  0.18994455600E+03  0.00000000000E+00 0. -1.
         22    1    1    2    0    0 -0.23525345025E+02  0.11932606738E+03 -0.26005361613E+03  0.28708889821E+03  0.00000000000E+00 0.  1.
</event>
<event>
 6    1  0.2809573E-005  0.1567210E+03  0.7818608E-02  0.1315951E+00
          2   -1    0    0  502    0  0.00000000000E+00  0.00000000000E+00  0.69318247137E+02  0.69318247137E+02  0.00000000000E+00 0.  1.
          1   -1    0    0  501    0 -0.00000000000E+00 -0.00000000000E+00 -0.39917426493E+04  0.39917426493E+04  0.00000000000E+00 0.  1.
          2    1    1    2  501    0  0.89865795607E+02 -0.10106826764E+03 -0.25463431951E+04  0.25499322193E+04  0.00000000000E+00 0.  1.
          1    1    1    2  502    0 -0.72112332028E+02  0.10850356861E+03 -0.13826021543E+04  0.13887267298E+04  0.00000000000E+00 0.  1.
         22    1    1    2    0    0 -0.49690145634E+01 -0.11565882402E+02 -0.56540680240E+02  0.57925031407E+02  0.00000000000E+00 0.  1.
         22    1    1    2    0    0 -0.12784449016E+02  0.41305814255E+01  0.63061627444E+02  0.64476915989E+02  0.00000000000E+00 0.  1.
</event>
<event>
 6    1  0.2809573E-005  0.1405772E+03  0.7818608E-02  0.1268942E+00
          2   -1    0    0  502    0  0.00000000000E+00  0.00000000000E+00  0.17217713057E+03  0.17217713057E+03  0.00000000000E+00 0.  1.
          1   -1    0    0  501    0 -0.00000000000E+00 -0.00000000000E+00 -0.26075451150E+03  0.26075451150E+03  0.00000000000E+00 0.  1.
          2    1    1    2  501    0 -0.14257929650E+02  0.23562800392E+02 -0.19072790287E+02  0.33500230590E+02  0.00000000000E+00 0.  1.
          1    1    1    2  502    0 -0.51899182150E+01 -0.93208901408E+02 -0.19060878184E+03  0.21224170718E+03  0.00000000000E+00 0.  1.
         22    1    1    2    0    0 -0.44656462833E+02 -0.30741779540E+01  0.28113337614E+02  0.52858395687E+02  0.00000000000E+00 0. -1.
         22    1    1    2    0    0  0.64104310697E+02  0.72720278970E+02  0.92990853585E+02  0.13433130861E+03  0.00000000000E+00 0.  1.
</event>
<event>
 6    1  0.2809573E-005  0.7739659E+02  0.7818608E-02  0.1346490E+00
          2   -1    0    0  502    0  0.00000000000E+00  0.00000000000E+00  0.26120556332E+03  0.26120556332E+03  0.00000000000E+00 0.  1.
          1   -1    0    0  501    0 -0.00000000000E+00 -0.00000000000E+00 -0.11717430799E+04  0.11717430799E+04  0.00000000000E+00 0. -1.
          2    1    1    2  501    0 -0.86085137734E+02 -0.10044758051E+02  0.82433514732E+02  0.11961117195E+03  0.00000000000E+00 0.  1.
          1    1    1    2  502    0  0.68090707543E+02  0.21583553072E+02 -0.11275133976E+04  0.11297737190E+04  0.00000000000E+00 0. -1.
         22    1    1    2    0    0  0.65117311074E+02 -0.40389589903E+01  0.11455428615E+03  0.13183042845E+03  0.00000000000E+00 0.  1.
         22    1    1    2    0    0 -0.47122880883E+02 -0.74998360306E+01  0.19988080219E+02  0.51733323826E+02  0.00000000000E+00 0.  1.
</event>
<event>
 6    1  0.2809573E-005  0.1046389E+03  0.7818608E-02  0.1404937E+00
          2   -1    0    0  502    0  0.00000000000E+00  0.00000000000E+00  0.42726012869E+02  0.42726012869E+02  0.00000000000E+00 0. -1.
          1   -1    0    0  501    0 -0.00000000000E+00 -0.00000000000E+00 -0.11771032361E+04  0.11771032361E+04  0.00000000000E+00 0.  1.
          2    1    1    2  501    0  0.39501136367E+02 -0.31226432595E+02 -0.37967101918E+03  0.38299544733E+03  0.00000000000E+00 0. -1.
          1    1    1    2  502    0 -0.77047017757E+02  0.45158418890E+02 -0.67664771828E+03  0.68251568509E+03  0.00000000000E+00 0.  1.
         22    1    1    2    0    0  0.41828668156E+02 -0.47738017529E+01 -0.11160480027E+03  0.11928142398E+03  0.00000000000E+00 0. -1.
         22    1    1    2    0    0 -0.42827867665E+01 -0.91581845423E+01  0.33546314525E+02  0.35036692549E+02  0.00000000000E+00 0. -1.
</event>
<event>
 6    1  0.2809573E-005  0.1191916E+03  0.7818608E-02  0.1303531E+00
          2   -1    0    0  502    0  0.00000000000E+00  0.00000000000E+00  0.32435853360E+03  0.32435853360E+03  0.00000000000E+00 0. -1.
          1   -1    0    0  501    0 -0.00000000000E+00 -0.00000000000E+00 -0.98705852155E+03  0.98705852155E+03  0.00000000000E+00 0.  1.
          2    1    1    2  501    0  0.29858074651E+02  0.66068763325E+01 -0.15280661241E+01  0.30618465389E+02  0.00000000000E+00 0. -1.
          1    1    1    2  502    0  0.36484055684E+01  0.35936172724E+02 -0.95469862722E+03  0.95538169764E+03  0.00000000000E+00 0.  1.
         22    1    1    2    0    0  0.37696690144E+02 -0.73123999208E+01  0.19552778400E+03  0.19926270588E+03  0.00000000000E+00 0. -1.
         22    1    1    2    0    0 -0.71203170363E+02 -0.35230649136E+02  0.97998921402E+02  0.12615418623E+03  0.00000000000E+00 0. -1.
</event>
<event>
 6    1  0.2809573E-005  0.2809173E+03  0.7818608E-02  0.1098518E+00
          2   -1    0    0  502    0  0.00000000000E+00  0.00000000000E+00  0.45176827704E+03  0.45176827704E+03  0.00000000000E+00 0. -1.
          1   -1    0    0  501    0 -0.00000000000E+00 -0.00000000000E+00 -0.21511194479E+03  0.21511194479E+03  0.00000000000E+00 0. -1.
          2    1    1    2  501    0  0.21600525904E+03 -0.15567039478E+03  0.36707699037E+02  0.26877313652E+03  0.00000000000E+00 0. -1.
          1    1    1    2  502    0 -0.24496917170E+02  0.17245621828E+02 -0.31541311406E+02  0.43501318926E+02  0.00000000000E+00 0. -1.
         22    1    1    2    0    0 -0.20708465252E+03  0.13544006307E+03  0.19576485005E+03  0.31551852641E+03  0.00000000000E+00 0. -1.
         22    1    1    2    0    0  0.15576310650E+02  0.29847098882E+01  0.35725094574E+02  0.39087239975E+02  0.00000000000E+00 0.  1.
</event>
<event>
 6    1  0.2809573E-005  0.8239809E+02  0.7818608E-02  0.1323411E+00
          2   -1    0    0  502    0  0.00000000000E+00  0.00000000000E+00  0.22998960653E+03  0.22998960653E+03  0.00000000000E+00 0. -1.
          1   -1    0    0  501    0 -0.00000000000E+00 -0.00000000000E+00 -0.25036468440E+04  0.25036468440E+04  0.00000000000E+00 0. -1.
          2    1    1    2  501    0  0.15871903157E+02 -0.19949416027E+02  0.15047969356E+02  0.29603004770E+02  0.00000000000E+00 0. -1.
          1    1    1    2  502    0  0.30950950775E+00 -0.52399084596E+02 -0.24703782619E+04  0.24709339362E+04  0.00000000000E+00 0. -1.
         22    1    1    2    0    0 -0.48022581131E+02  0.86429040028E+02  0.16947512005E+03  0.19620897934E+03  0.00000000000E+00 0. -1.
         22    1    1    2    0    0  0.31841168466E+02 -0.14080539406E+02  0.12197935094E+02  0.36890530219E+02  0.00000000000E+00 0.  1.
</event>
<event>
 6    1  0.2809573E-005  0.1268163E+03  0.7818608E-02  0.1270006E+00
          2   -1    0    0  502    0  0.00000000000E+00  0.00000000000E+00  0.20594483753E+03  0.20594483753E+03  0.00000000000E+00 0. -1.
          1   -1    0    0  501    0 -0.00000000000E+00 -0.00000000000E+00 -0.14611294159E+03  0.14611294159E+03  0.00000000000E+00 0. -1.
          2    1    1    2  501    0 -0.43594183029E+02  0.37930728026E+01  0.35292971036E+02  0.56217737413E+02  0.00000000000E+00 0. -1.
          1    1    1    2  502    0  0.11679497264E+03  0.45930850439E+01 -0.59965052068E+02  0.13136959135E+03  0.00000000000E+00 0. -1.
         22    1    1    2    0    0 -0.22922680481E+02  0.55155082617E+02  0.41575920290E+02  0.72774236973E+02  0.00000000000E+00 0. -1.
         22    1    1    2    0    0 -0.50278109126E+02 -0.63541240464E+02  0.42928056680E+02  0.91696213375E+02  0.00000000000E+00 0. -1.
</event>
<event>
 6    1  0.2809573E-005  0.2914904E+03  0.7818608E-02  0.1176780E+00
          2   -1    0    0  502    0  0.00000000000E+00  0.00000000000E+00  0.19756353982E+03  0.19756353982E+03  0.00000000000E+00 0.  1.
          1   -1    0    0  501    0 -0.00000000000E+00 -0.00000000000E+00 -0.95483746075E+03  0.95483746075E+03  0.00000000000E+00 0. -1.
          2    1    1    2  501    0  0.12075015858E+03 -0.93383198686E+02 -0.83783360239E+02  0.17412832638E+03  0.00000000000E+00 0.  1.
          1    1    1    2  502    0 -0.17577761134E+03  0.13807136840E+03 -0.77038642974E+03  0.80215754222E+03  0.00000000000E+00 0. -1.
         22    1    1    2    0    0  0.74077257230E+02 -0.73506951647E+02  0.95627139537E+02  0.14154597061E+03  0.00000000000E+00 0.  1.
         22    1    1    2    0    0 -0.19049804470E+02  0.28818781930E+02  0.12687295077E+01  0.34569161356E+02  0.00000000000E+00 0.  1.
</event>
<event>
 6    1  0.2809573E-005  0.2021071E+03  0.7818608E-02  0.1172980E+00
          2   -1    0    0  502    0  0.00000000000E+00  0.00000000000E+00  0.39208580320E+03  0.39208580320E+03  0.00000000000E+00 0. -1.
          1   -1    0    0  501    0 -0.00000000000E+00 -0.00000000000E+00 -0.92725907677E+02  0.92725907677E+02  0.00000000000E+00 0. -1.
          2    1    1    2  501    0 -0.16253083501E+03  0.60020957016E+01  0.11348423265E+03  0.19832036845E+03  0.00000000000E+00 0. -1.
          1    1    1    2  502    0  0.40041122325E+02  0.63499849374E+01  0.17920430353E+02  0.44325563841E+02  0.00000000000E+00 0. -1.
         22    1    1    2    0    0  0.31063297819E+02  0.42058165176E+02  0.12449046250E+02  0.53747525356E+02  0.00000000000E+00 0.  1.
         22    1    1    2    0    0  0.91426414861E+02 -0.54410245815E+02  0.15550618627E+03  0.18841825323E+03  0.00000000000E+00 0. -1.
</event>
<event>
 6    1  0.2809573E-005  0.1053739E+03  0.7818608E-02  0.1271936E+00
          2   -1    0    0  502    0  0.00000000000E+00  0.00000000000E+00  0.20232195951E+03  0.20232195951E+03  0.00000000000E+00 0. -1.
          1   -1    0    0  501    0 -0.00000000000E+00 -0.00000000000E+00 -0.42328465214E+03  0.42328465214E+03  0.00000000000E+00 0. -1.
          2    1    1    2  501    0  0.68144414603E+02 -0.27897322028E+02 -0.47287556341E+01  0.73785384378E+02  0.00000000000E+00 0. -1.
          1    1    1    2  502    0 -0.57751594280E+01 -0.24434035884E+02 -0.35059945926E+03  0.35149730498E+03  0.00000000000E+00 0. -1.
         22    1    1    2    0    0 -0.91707055504E+02  0.43140761044E+02  0.13591510490E+03  0.16954121927E+03  0.00000000000E+00 0. -1.
         22    1    1    2    0    0  0.29337800329E+02  0.91905968676E+01 -0.15495826274E+01  0.30782703021E+02  0.00000000000E+00 0. -1.
</event>
<event>
 6    1  0.2809573E-005  0.3826557E+03  0.7818608E-02  0.1112169E+00
          2   -1    0    0  502    0  0.00000000000E+00  0.00000000000E+00  0.46719568537E+03  0.46719568537E+03  0.00000000000E+00 0. -1.
          1   -1    0    0  501    0 -0.00000000000E+00 -0.00000000000E+00 -0.83266406088E+03  0.83266406088E+03  0.00000000000E+00 0. -1.
          2    1    1    2  501    0  0.17071647840E+01 -0.48811120103E+02 -0.17012940698E+03  0.17700128524E+03  0.00000000000E+00 0. -1.
          1    1    1    2  502    0  0.12114056142E+02  0.71794947099E+02 -0.64871739877E+03  0.65279056997E+03  0.00000000000E+00 0. -1.
         22    1    1    2    0    0 -0.65842273863E+02 -0.28517800769E+02  0.25399020024E+03  0.26393084663E+03  0.00000000000E+00 0. -1.
         22    1    1    2    0    0  0.52021052937E+02  0.55339737733E+01  0.19938823000E+03  0.20613704441E+03  0.00000000000E+00 0. -1.
</event>
<event>
 6    1  0.2809573E-005  0.1141007E+03  0.7818608E-02  0.1359139E+00
          2   -1    0    0  502    0  0.00000000000E+00  0.00000000000E+00  0.48643303159E+02  0.48643303159E+02  0.00000000000E+00 0. -1.
          1   -1    0    0  501    0 -0.00000000000E+00 -0.00000000000E+00 -0.40939523515E+03  0.40939523515E+03  0.00000000000E+00 0. -1.
          2    1    1    2  501    0  0.44697259388E+02  0.16375520381E+02 -0.91989245575E+02  0.10357617470E+03  0.00000000000E+00 0. -1.
          1    1    1    2  502    0 -0.18300488830E+02  0.29208431816E+02  0.16858367018E+02  0.38369843876E+02  0.00000000000E+00 0. -1.
         22    1    1    2    0    0  0.13100118737E+02 -0.99071218087E+01  0.75874821572E+01  0.18092375713E+02  0.00000000000E+00 0. -1.
         22    1    1    2    0    0 -0.39496889294E+02 -0.35676830388E+02 -0.29320853559E+03  0.29800014402E+03  0.00000000000E+00 0. -1.
</event>
<event>
 6    1  0.2809573E-005  0.1416402E+03  0.7818608E-02  0.1216946E+00
          2   -1    0    0  502    0  0.00000000000E+00  0.00000000000E+00  0.10231548473E+04  0.10231548473E+04  0.00000000000E+00 0. -1.
          1   -1    0    0  501    0 -0.00000000000E+00 -0.00000000000E+00 -0.57486928374E+02  0.57486928374E+02  0.00000000000E+00 0. -1.
          2    1    1    2  501    0  0.43636923047E+02 -0.43903308391E+02  0.15471143516E+03  0.16663525951E+03  0.00000000000E+00 0. -1.
          1    1    1    2  502    0 -0.14474547410E+03  0.65609624635E+02  0.10692988317E+03  0.19154601283E+03  0.00000000000E+00 0. -1.
         22    1    1    2    0    0 -0.23965301188E+02 -0.27894739600E+02  0.14687097979E+03  0.15140520751E+03  0.00000000000E+00 0. -1.
         22    1    1    2    0    0  0.12507385224E+03  0.61884233562E+01  0.55715562083E+03  0.57105529585E+03  0.00000000000E+00 0. -1.
</event>
<event>
 6    1  0.2809573E-005  0.4123763E+03  0.7818608E-02  0.1152401E+00
          2   -1    0    0  502    0  0.00000000000E+00  0.00000000000E+00  0.12741001075E+04  0.12741001075E+04  0.00000000000E+00 0. -1.
          1   -1    0    0  501    0 -0.00000000000E+00 -0.00000000000E+00 -0.12599829995E+03  0.12599829995E+03  0.00000000000E+00 0. -1.
          2    1    1    2  501    0  0.14730611318E+03  0.14788817111E+03  0.16575841697E+03  0.26654428325E+03  0.00000000000E+00 0. -1.
          1    1    1    2  502    0 -0.77771738323E+02 -0.31979952019E+03  0.69107556436E+03  0.76544471521E+03  0.00000000000E+00 0. -1.
         22    1    1    2    0    0 -0.89626303278E+02  0.17934792843E+03  0.24119335705E+03  0.31364436733E+03  0.00000000000E+00 0. -1.
         22    1    1    2    0    0  0.20091928421E+02 -0.74365793527E+01  0.50074469211E+02  0.54465041696E+02  0.00000000000E+00 0.  1.
</event>
<event>
 6    1  0.2809573E-005  0.6198780E+03  0.7818608E-02  0.1073570E+00
          2   -1    0    0  502    0  0.00000000000E+00  0.00000000000E+00  0.79175290797E+03  0.79175290797E+03  0.00000000000E+00 0. -1.
          1   -1    0    0  501    0 -0.00000000000E+00 -0.00000000000E+00 -0.92545095880E+03  0.92545095880E+03  0.00000000000E+00 0.  1.
          2    1    1    2  501    0  0.12281000438E+03 -0.72595586776E+02 -0.35568082004E+02  0.14702892523E+03  0.00000000000E+00 0. -1.
          1    1    1    2  502    0  0.15915566088E+03  0.25833215873E+03 -0.75899353339E+03  0.81739660652E+03  0.00000000000E+00 0.  1.
         22    1    1    2    0    0 -0.12287020484E+02 -0.44936982379E+02  0.40066154144E+02  0.61445910894E+02  0.00000000000E+00 0. -1.
         22    1    1    2    0    0 -0.26967864478E+03 -0.14079958957E+03  0.62079741042E+03  0.69133242413E+03  0.00000000000E+00 0. -1.
</event>
<event>
 6    1  0.2809573E-005  0.8543117E+02  0.7818608E-02  0.1334814E+00
          2   -1    0    0  502    0  0.00000000000E+00  0.00000000000E+00  0.20915506198E+03  0.20915506198E+03  0.00000000000E+00 0.  1.
          1   -1    0    0  501    0 -0.00000000000E+00 -0.00000000000E+00 -0.59528804769E+03  0.59528804769E+03  0.00000000000E+00 0.  1.
          2    1    1    2  501    0  0.19881963365E+02 -0.31694943006E+01  0.69884610783E+01  0.21311422985E+02  0.00000000000E+00 0.  1.
          1    1    1    2  502    0 -0.13078583669E+02 -0.23374734296E+02 -0.56683866273E+03  0.56747114210E+03  0.00000000000E+00 0.  1.
         22    1    1    2    0    0  0.35344915540E+02  0.46451541466E+02  0.15464974319E+03  0.16529837213E+03  0.00000000000E+00 0.  1.
         22    1    1    2    0    0 -0.42148295237E+02 -0.19907312870E+02  0.19067472750E+02  0.50362172453E+02  0.00000000000E+00 0.  1.
</event>
<event>
 6    1  0.2809573E-005  0.9047295E+02  0.7818608E-02  0.1388605E+00
          2   -1    0    0  502    0  0.00000000000E+00  0.00000000000E+00  0.13072016285E+03  0.13072016285E+03  0.00000000000E+00 0.  1.
          1   -1    0    0  501    0 -0.00000000000E+00 -0.00000000000E+00 -0.13961733321E+03  0.13961733321E+03  0.00000000000E+00 0. -1.
          2    1    1    2  501    0  0.14904507847E+02  0.32354044061E+02 -0.39979665077E+02  0.53547195453E+02  0.00000000000E+00 0.  1.
          1    1    1    2  502    0 -0.27251833791E+01 -0.68860378698E+02 -0.29461726266E+02  0.74947793119E+02  0.00000000000E+00 0. -1.
         22    1    1    2    0    0  0.12876031073E+02 -0.15672343733E+02  0.78627047682E+02  0.81201152464E+02  0.00000000000E+00 0.  1.
         22    1    1    2    0    0 -0.25055355541E+02  0.52178678370E+02 -0.18082826691E+02  0.60641355022E+02  0.00000000000E+00 0.  1.
</event>
<event>
 6    1  0.2809573E-005  0.3704176E+03  0.7818608E-02  0.1194079E+00
          2   -1    0    0  502    0  0.00000000000E+00  0.00000000000E+00  0.82054347893E+02  0.82054347893E+02  0.00000000000E+00 0.  1.
          1   -1    0    0  501    0 -0.00000000000E+00 -0.00000000000E+00 -0.21006606190E+04  0.21006606190E+04  0.00000000000E+00 0. -1.
          2    1    1    2  501    0  0.27337911687E+02  0.57030804711E+02 -0.18454168231E+03  0.19507820640E+03  0.00000000000E+00 0.  1.
          1    1    1    2  502    0  0.13523077441E+03  0.16952985823E+03 -0.15630756054E+04  0.15780472374E+04  0.00000000000E+00 0. -1.
         22    1    1    2    0    0 -0.17342348498E+03 -0.23021094512E+03 -0.27407284996E+03  0.39772944508E+03  0.00000000000E+00 0.  1.
         22    1    1    2    0    0  0.10854798883E+02  0.36502821814E+01  0.30838665459E+01  0.11860078063E+02  0.00000000000E+00 0.  1.
</event>
<event>
 6    1  0.2809573E-005  0.1277719E+03  0.7818608E-02  0.1324635E+00
          2   -1    0    0  502    0  0.00000000000E+00  0.00000000000E+00  0.86705179706E+02  0.86705179706E+02  0.00000000000E+00 0.  1.
          1   -1    0    0  501    0 -0.00000000000E+00 -0.00000000000E+00 -0.90908813037E+03  0.90908813037E+03  0.00000000000E+00 0. -1.
          2    1    1    2  501    0  0.47987435388E+02 -0.69761485524E+02 -0.70963618969E+02  0.11047757254E+03  0.00000000000E+00 0.  1.
          1    1    1    2  502    0 -0.79982145183E+02  0.74128520481E+02 -0.75263586875E+03  0.76049518869E+03  0.00000000000E+00 0. -1.
         22    1    1    2    0    0  0.52139299275E+02  0.23359023208E+01 -0.48195487585E+02  0.71040608050E+02  0.00000000000E+00 0.  1.
         22    1    1    2    0    0 -0.20144589481E+02 -0.67029372774E+01  0.49412024635E+02  0.53779940796E+02  0.00000000000E+00 0.  1.
</event>
<event>
 6    1  0.2809573E-005  0.6115218E+02  0.7818608E-02  0.1440060E+00
          2   -1    0    0  502    0  0.00000000000E+00  0.00000000000E+00  0.70537525769E+02  0.70537525769E+02  0.00000000000E+00 0. -1.
          1   -1    0    0  501    0 -0.00000000000E+00 -0.00000000000E+00 -0.28356210534E+03  0.28356210534E+03  0.00000000000E+00 0. -1.
          2    1    1    2  501    0 -0.36622917622E+02 -0.39544885552E+01 -0.85282823221E+02  0.92897987122E+02  0.00000000000E+00 0. -1.
          1    1    1    2  502    0  0.27198787507E+02  0.48706785199E+02 -0.11530827471E+03  0.12809419652E+03  0.00000000000E+00 0. -1.
         22    1    1    2    0    0 -0.10660673370E+02 -0.23055694538E+02 -0.66664919891E+02  0.71340216929E+02  0.00000000000E+00 0. -1.
         22    1    1    2    0    0  0.20084803485E+02 -0.21696602106E+02  0.54231438248E+02  0.61767230539E+02  0.00000000000E+00 0. -1.
</event>
<event>
 6    1  0.2809573E-005  0.8887203E+02  0.7818608E-02  0.1345295E+00
          2   -1    0    0  502    0  0.00000000000E+00  0.00000000000E+00  0.34691320320E+03  0.34691320320E+03  0.00000000000E+00 0. -1.
          1   -1    0    0  501    0 -0.00000000000E+00 -0.00000000000E+00 -0.50619187002E+02  0.50619187002E+02  0.00000000000E+00 0. -1.
          2    1    1    2  501    0 -0.25269362103E+02 -0.20190972453E+02  0.19066692278E+01  0.32401410729E+02  0.00000000000E+00 0. -1.
          1    1    1    2  502    0  0.70045668954E+02  0.24022474561E+02  0.61995418823E+02  0.96575913034E+02  0.00000000000E+00 0. -1.
         22    1    1    2    0    0 -0.43201051308E+02 -0.47788609467E+02  0.51742577542E+02  0.82627939340E+02  0.00000000000E+00 0. -1.
         22    1    1    2    0    0 -0.15752555434E+01  0.43957107359E+02  0.18064935061E+03  0.18592712710E+03  0.00000000000E+00 0. -1.
</event>
<event>
 6    1  0.2809573E-005  0.5403614E+02  0.7818608E-02  0.1426130E+00
          2   -1    0    0  502    0  0.00000000000E+00  0.00000000000E+00  0.69570551386E+02  0.69570551386E+02  0.00000000000E+00 0.  1.
          1   -1    0    0  501    0 -0.00000000000E+00 -0.00000000000E+00 -0.48509629978E+03  0.48509629978E+03  0.00000000000E+00 0.  1.
          2    1    1    2  501    0 -0.40106793399E+02 -0.19839945125E+02 -0.14371118626E+03  0.15051605680E+03  0.00000000000E+00 0.  1.
          1    1    1    2  502    0  0.28278584474E+02 -0.22522296505E+02 -0.27233832929E+03  0.27472731532E+03  0.00000000000E+00 0.  1.
         22    1    1    2    0    0 -0.78580024634E+01 -0.72753666515E+01 -0.52849873593E+02  0.53923912149E+02  0.00000000000E+00 0. -1.
         22    1    1    2    0    0  0.19686211389E+02  0.49637608281E+02  0.53373640751E+02  0.75499566897E+02  0.00000000000E+00 0.  1.
</event>
<event>
 6    1  0.2809573E-005  0.9597334E+02  0.7818608E-02  0.1391048E+00
          2   -1    0    0  502    0  0.00000000000E+00  0.00000000000E+00  0.10424515722E+03  0.10424515722E+03  0.00000000000E+00 0.  1.
          1   -1    0    0  501    0 -0.00000000000E+00 -0.00000000000E+00 -0.43849996904E+03  0.43849996904E+03  0.00000000000E+00 0.  1.
          2    1    1    2  501    0 -0.99043363661E+01 -0.23202049110E+02 -0.18308064892E+02  0.31170758763E+02  0.00000000000E+00 0.  1.
          1    1    1    2  502    0  0.27804036459E+01 -0.48160983203E+02 -0.35785413504E+03  0.36109111441E+03  0.00000000000E+00 0.  1.
         22    1    1    2    0    0 -0.14721754333E+02  0.70844208596E+01  0.73720826871E+02  0.75509465526E+02  0.00000000000E+00 0.  1.
         22    1    1    2    0    0  0.21845687053E+02  0.64278611453E+02 -0.31813438765E+02  0.74973787548E+02  0.00000000000E+00 0.  1.
</event>
<event>
 6    1  0.2809573E-005  0.1621927E+03  0.7818608E-02  0.1244315E+00
          2   -1    0    0  502    0  0.00000000000E+00  0.00000000000E+00  0.32377163135E+03  0.32377163135E+03  0.00000000000E+00 0. -1.
          1   -1    0    0  501    0 -0.00000000000E+00 -0.00000000000E+00 -0.21230148621E+03  0.21230148621E+03  0.00000000000E+00 0. -1.
          2    1    1    2  501    0 -0.60958944231E+02 -0.75784089804E+01 -0.65890434691E+01  0.61780584801E+02  0.00000000000E+00 0. -1.
          1    1    1    2  502    0  0.70047825844E+02 -0.39400935429E+02 -0.15223965713E+03  0.17215122660E+03  0.00000000000E+00 0. -1.
         22    1    1    2    0    0  0.36024623657E+02  0.61585768546E+02  0.85517059192E+02  0.11137211415E+03  0.00000000000E+00 0. -1.
         22    1    1    2    0    0 -0.45113505270E+02 -0.14606424136E+02  0.18478178654E+03  0.19076919201E+03  0.00000000000E+00 0. -1.
</event>
<event>
 6    1  0.2809573E-005  0.1016091E+03  0.7818608E-02  0.1277797E+00
          2   -1    0    0  502    0  0.00000000000E+00  0.00000000000E+00  0.74431221721E+03  0.74431221721E+03  0.00000000000E+00 0. -1.
          1   -1    0    0  501    0 -0.00000000000E+00 -0.00000000000E+00 -0.47909288382E+02  0.47909288382E+02  0.00000000000E+00 0. -1.
          2    1    1    2  501    0 -0.10019267632E+03 -0.14094209613E+02  0.71756388274E+02  0.12404111572E+03  0.00000000000E+00 0. -1.
          1    1    1    2  502    0  0.28415234857E+02  0.71349616090E+02  0.13145647629E+03  0.15224650553E+03  0.00000000000E+00 0. -1.
         22    1    1    2    0    0 -0.15958902506E+02 -0.74912726502E+01  0.63249723991E+01  0.18729949572E+02  0.00000000000E+00 0. -1.
         22    1    1    2    0    0  0.87736343965E+02 -0.49764133827E+02  0.48686509187E+03  0.49720393477E+03  0.00000000000E+00 0. -1.
</event>
<event>
 6    1  0.2809573E-005  0.1458773E+03  0.7818608E-02  0.1311159E+00
          2   -1    0    0  502    0  0.00000000000E+00  0.00000000000E+00  0.15715965912E+03  0.15715965912E+03  0.00000000000E+00 0. -1.
          1   -1    0    0  501    0 -0.00000000000E+00 -0.00000000000E+00 -0.22173381416E+03  0.22173381416E+03  0.00000000000E+00 0.  1.
          2    1    1    2  501    0 -0.85886284379E+02 -0.53461589806E+02 -0.63064236429E+02  0.11921280697E+03  0.00000000000E+00 0. -1.
          1    1    1    2  502    0  0.93118516715E+02  0.89684719924E+02 -0.23863224332E+01  0.12930623217E+03  0.00000000000E+00 0.  1.
         22    1    1    2    0    0  0.10393271836E+02 -0.31831136995E+02 -0.58980071566E+02  0.67822490545E+02  0.00000000000E+00 0.  1.
         22    1    1    2    0    0 -0.17625504172E+02 -0.43919931225E+01  0.59856475394E+02  0.62551943595E+02  0.00000000000E+00 0.  1.
</event>
<event>
 6    1  0.2809573E-005  0.1110205E+03  0.7818608E-02  0.1260220E+00
          2   -1    0    0  502    0  0.00000000000E+00  0.00000000000E+00  0.32290517353E+03  0.32290517353E+03  0.00000000000E+00 0.  1.
          1   -1    0    0  501    0 -0.00000000000E+00 -0.00000000000E+00 -0.62338751329E+02  0.62338751329E+02  0.00000000000E+00 0.  1.
          2    1    1    2  501    0 -0.38110945993E+02  0.81905517743E+02  0.86489811356E+02  0.12506576474E+03  0.00000000000E+00 0.  1.
          1    1    1    2  502    0  0.34800496541E+02 -0.18268564655E+02  0.80702955892E+01  0.40124116003E+02  0.00000000000E+00 0.  1.
         22    1    1    2    0    0  0.30362137820E+02 -0.93343233616E+02  0.14391893929E+03  0.17420528052E+03  0.00000000000E+00 0.  1.
         22    1    1    2    0    0 -0.27051688369E+02  0.29706280528E+02  0.22087375966E+02  0.45848763599E+02  0.00000000000E+00 0.  1.
</event>
<event>
 6    1  0.2809573E-005  0.1603635E+03  0.7818608E-02  0.1284304E+00
          2   -1    0    0  502    0  0.00000000000E+00  0.00000000000E+00  0.14829064541E+03  0.14829064541E+03  0.00000000000E+00 0.  1.
          1   -1    0    0  501    0 -0.00000000000E+00 -0.00000000000E+00 -0.31906608472E+03  0.31906608472E+03  0.00000000000E+00 0.  1.
          2    1    1    2  501    0  0.11620344908E+03 -0.72236411415E+02 -0.11193513277E+03  0.17677899949E+03  0.00000000000E+00 0.  1.
          1    1    1    2  502    0 -0.12510605171E+03  0.72832864432E+02 -0.81152423680E+02  0.16595742281E+03  0.00000000000E+00 0.  1.
         22    1    1    2    0    0  0.80329431764E+01 -0.23053574816E+02 -0.46343195391E+02  0.52380218088E+02  0.00000000000E+00 0. -1.
         22    1    1    2    0    0  0.86965945247E+00  0.22457121799E+02  0.68655312535E+02  0.72240089745E+02  0.00000000000E+00 0.  1.
</event>
<event>
 6    1  0.2809573E-005  0.9782293E+02  0.7818608E-02  0.1302820E+00
          2   -1    0    0  502    0  0.00000000000E+00  0.00000000000E+00  0.26671367706E+04  0.26671367706E+04  0.00000000000E+00 0.  1.
          1   -1    0    0  501    0 -0.00000000000E+00 -0.00000000000E+00 -0.10433351468E+02  0.10433351468E+02  0.00000000000E+00 0.  1.
          2    1    1    2  501    0  0.33034278652E+02 -0.13965233861E+02  0.88837145459E+03  0.88909512014E+03  0.00000000000E+00 0.  1.
          1    1    1    2  502    0  0.40633249266E+02  0.14217000192E+02  0.12178805095E+04  0.12186410954E+04  0.00000000000E+00 0.  1.
         22    1    1    2    0    0 -0.10180990036E+03 -0.24582291170E+02  0.32868151131E+03  0.34496533264E+03  0.00000000000E+00 0.  1.
         22    1    1    2    0    0  0.28142372444E+02  0.24330524840E+02  0.22176994380E+03  0.22486857392E+03  0.00000000000E+00 0.  1.
</event>
<event>
 6    1  0.2809573E-005  0.9317539E+02  0.7818608E-02  0.1387477E+00
          2   -1    0    0  502    0  0.00000000000E+00  0.00000000000E+00  0.14062417397E+03  0.14062417397E+03  0.00000000000E+00 0. -1.
          1   -1    0    0  501    0 -0.00000000000E+00 -0.00000000000E+00 -0.20993420614E+03  0.20993420614E+03  0.00000000000E+00 0. -1.
          2    1    1    2  501    0 -0.57277544947E+02 -0.21771502905E+02 -0.62980397723E+02  0.87870620751E+02  0.00000000000E+00 0. -1.
          1    1    1    2  502    0  0.67309219552E+02  0.62035535118E+02 -0.67348130214E+02  0.11364290254E+03  0.00000000000E+00 0. -1.
         22    1    1    2    0    0  0.10262295991E+02 -0.15882963319E+02  0.98295196948E+02  0.10009759730E+03  0.00000000000E+00 0. -1.
         22    1    1    2    0    0 -0.20293970596E+02 -0.24381068895E+02 -0.37276701179E+02  0.48947259512E+02  0.00000000000E+00 0. -1.
</event>
<event>
 6    1  0.2809573E-005  0.8654278E+02  0.7818608E-02  0.1319271E+00
          2   -1    0    0  502    0  0.00000000000E+00  0.00000000000E+00  0.28752262650E+03  0.28752262650E+03  0.00000000000E+00 0. -1.
          1   -1    0    0  501    0 -0.00000000000E+00 -0.00000000000E+00 -0.17490354891E+03  0.17490354891E+03  0.00000000000E+00 0. -1.
          2    1    1    2  501    0 -0.83985954188E+01 -0.42294025566E+02  0.96010067208E+02  0.10524853447E+03  0.00000000000E+00 0. -1.
          1    1    1    2  502    0 -0.16861451927E+02  0.30411987092E+02 -0.14564483523E+03  0.14973849054E+03  0.00000000000E+00 0. -1.
         22    1    1    2    0    0 -0.10028623443E+02  0.52590508746E+02  0.23265828848E+02  0.58374940602E+02  0.00000000000E+00 0.  1.
         22    1    1    2    0    0  0.35288670789E+02 -0.40708470271E+02  0.13898801676E+03  0.14906420979E+03  0.00000000000E+00 0. -1.
</event>
<event>
 6    1  0.2809573E-005  0.8841967E+02  0.7818608E-02  0.1313203E+00
          2   -1    0    0  502    0  0.00000000000E+00  0.00000000000E+00  0.19596626596E+03  0.19596626596E+03  0.00000000000E+00 0. -1.
          1   -1    0    0  501    0 -0.00000000000E+00 -0.00000000000E+00 -0.10676224716E+03  0.10676224716E+03  0.00000000000E+00 0. -1.
          2    1    1    2  501    0  0.16137661052E+02 -0.21062656815E+02  0.76583445393E+00  0.26545171289E+02  0.00000000000E+00 0. -1.
          1    1    1    2  502    0  0.46631100860E+00 -0.23313584474E+02 -0.67289610573E+02  0.71215394109E+02  0.00000000000E+00 0. -1.
         22    1    1    2    0    0  0.47200340914E+02 -0.11012017184E+02  0.50142553272E+02  0.69738169989E+02  0.00000000000E+00 0. -1.
         22    1    1    2    0    0 -0.63804312974E+02  0.55388258473E+02  0.10558524165E+03  0.13522977773E+03  0.00000000000E+00 0. -1.
</event>
<event>
 6    1  0.2809573E-005  0.8573177E+02  0.7818608E-02  0.1398096E+00
          2   -1    0    0  502    0  0.00000000000E+00  0.00000000000E+00  0.10167047035E+03  0.10167047035E+03  0.00000000000E+00 0. -1.
          1   -1    0    0  501    0 -0.00000000000E+00 -0.00000000000E+00 -0.12248499242E+04  0.12248499242E+04  0.00000000000E+00 0. -1.
          2    1    1    2  501    0 -0.24196210054E+02  0.52980207575E+02 -0.29579848981E+02  0.65324776627E+02  0.00000000000E+00 0. -1.
          1    1    1    2  502    0  0.24364636303E+02 -0.78268332933E+02 -0.11230212243E+04  0.11260089865E+04  0.00000000000E+00 0. -1.
         22    1    1    2    0    0 -0.17538219323E+02  0.36140695493E+02 -0.43636583511E+02  0.59311806820E+02  0.00000000000E+00 0. -1.
         22    1    1    2    0    0  0.17369793074E+02 -0.10852570134E+02  0.73058202951E+02  0.75874824602E+02  0.00000000000E+00 0. -1.
</event>
<event>
 6    1  0.2809573E-005  0.1086641E+03  0.7818608E-02  0.1292190E+00
          2   -1    0    0  502    0  0.00000000000E+00  0.00000000000E+00  0.19151524789E+03  0.19151524789E+03  0.00000000000E+00 0.  1.
          1   -1    0    0  501    0 -0.00000000000E+00 -0.00000000000E+00 -0.57293101217E+03  0.57293101217E+03  0.00000000000E+00 0. -1.
          2    1    1    2  501    0  0.14025063550E+02  0.36390219860E+02  0.42451495922E+01  0.39229731124E+02  0.00000000000E+00 0.  1.
          1    1    1    2  502    0 -0.19122745773E+02  0.10424550222E+02 -0.52729363667E+03  0.52774324242E+03  0.00000000000E+00 0. -1.
         22    1    1    2    0    0  0.31584129860E+02  0.89479230692E+01  0.13072494846E+03  0.13478365901E+03  0.00000000000E+00 0.  1.
         22    1    1    2    0    0 -0.26486447637E+02 -0.55762693150E+02  0.10907774338E+02  0.62689627506E+02  0.00000000000E+00 0.  1.
</event>
<event>
 6    1  0.2809573E-005  0.5934761E+02  0.7818608E-02  0.1436604E+00
          2   -1    0    0  502    0  0.00000000000E+00  0.00000000000E+00  0.53947714293E+02  0.53947714293E+02  0.00000000000E+00 0.  1.
          1   -1    0    0  501    0 -0.00000000000E+00 -0.00000000000E+00 -0.11254601539E+04  0.11254601539E+04  0.00000000000E+00 0.  1.
          2    1    1    2  501    0  0.28230107845E+02 -0.99746571923E+01 -0.47500802778E+02  0.56149434900E+02  0.00000000000E+00 0.  1.
          1    1    1    2  502    0 -0.51328129942E+02  0.11722001894E+02 -0.99297310384E+03  0.99436792346E+03  0.00000000000E+00 0.  1.
         22    1    1    2    0    0  0.54592979461E+02  0.11232647462E+02 -0.61637390628E+02  0.83100744274E+02  0.00000000000E+00 0.  1.
         22    1    1    2    0    0 -0.31494957365E+02 -0.12979992164E+02  0.30598857674E+02  0.45789765526E+02  0.00000000000E+00 0.  1.
</event>
<event>
 6    1  0.2809573E-005  0.1030642E+03  0.7818608E-02  0.1307624E+00
          2   -1    0    0  502    0  0.00000000000E+00  0.00000000000E+00  0.15633577914E+03  0.15633577914E+03  0.00000000000E+00 0. -1.
          1   -1    0    0  501    0 -0.00000000000E+00 -0.00000000000E+00 -0.74319098813E+03  0.74319098813E+03  0.00000000000E+00 0. -1.
          2    1    1    2  501    0  0.27623178850E+02 -0.12798804423E+02 -0.58027345417E+01  0.30992275370E+02  0.00000000000E+00 0. -1.
          1    1    1    2  502    0 -0.20715758044E+02 -0.22040351863E+01 -0.69803242272E+03  0.69834322763E+03  0.00000000000E+00 0. -1.
         22    1    1    2    0    0  0.36971494338E+00  0.68199980025E+02  0.51203588666E+02  0.85282949392E+02  0.00000000000E+00 0.  1.
         22    1    1    2    0    0 -0.72771357491E+01 -0.53197140416E+02  0.65776359602E+02  0.84908314879E+02  0.00000000000E+00 0. -1.
</event>
<event>
 6    1  0.2809573E-005  0.6930930E+02  0.7818608E-02  0.1363789E+00
          2   -1    0    0  502    0  0.00000000000E+00  0.00000000000E+00  0.47238842033E+02  0.47238842033E+02  0.00000000000E+00 0.  1.
          1   -1    0    0  501    0 -0.00000000000E+00 -0.00000000000E+00 -0.13751910414E+04  0.13751910414E+04  0.00000000000E+00 0.  1.
          2    1    1    2  501    0  0.37851241744E+02 -0.19852462539E+02 -0.21267765778E+03  0.21692999537E+03  0.00000000000E+00 0.  1.
          1    1    1    2  502    0 -0.10051971099E+02 -0.22963560844E+02 -0.10556739224E+04  0.10559714948E+04  0.00000000000E+00 0.  1.
         22    1    1    2    0    0 -0.49672060536E+02  0.47131505051E+02  0.16328404932E+02  0.70393956941E+02  0.00000000000E+00 0.  1.
         22    1    1    2    0    0  0.21872789891E+02 -0.43154816678E+01 -0.75929024076E+02  0.79134436352E+02  0.00000000000E+00 0. -1.
</event>
<event>
 6    1  0.2885174E-005  0.2085315E+03  0.7818608E-02  0.1153696E+00
          2   -1    0    0  502    0  0.00000000000E+00  0.00000000000E+00  0.15761697036E+04  0.15761697036E+04  0.00000000000E+00 0.  1.
          1   -1    0    0  501    0 -0.00000000000E+00 -0.00000000000E+00 -0.70411348902E+03  0.70411348902E+03  0.00000000000E+00 0.  1.
          2    1    1    2  501    0 -0.19764226792E+03 -0.22000759524E+03  0.95422356897E+03  0.99900371751E+03  0.00000000000E+00 0.  1.
          1    1    1    2  502    0  0.18731828166E+03  0.79228778014E+02 -0.65045555491E+03  0.68151138422E+03  0.00000000000E+00 0.  1.
         22    1    1    2    0    0  0.31625862660E+02  0.15755656117E+03  0.43462759479E+03  0.46338473357E+03  0.00000000000E+00 0. -1.
         22    1    1    2    0    0 -0.21301876395E+02 -0.16777743943E+02  0.13366060576E+03  0.13638335734E+03  0.00000000000E+00 0. -1.
</event>
<event>
 6    1  0.2809573E-005  0.1950952E+03  0.7818608E-02  0.1249163E+00
          2   -1    0    0  502    0  0.00000000000E+00  0.00000000000E+00  0.43459656059E+03  0.43459656059E+03  0.00000000000E+00 0. -1.
          1   -1    0    0  501    0 -0.00000000000E+00 -0.00000000000E+00 -0.12832100766E+03  0.12832100766E+03  0.00000000000E+00 0.  1.
          2    1    1    2  501    0  0.10855792738E+03  0.19456393902E+02  0.13848741505E+03  0.17703711189E+03  0.00000000000E+00 0. -1.
          1    1    1    2  502    0 -0.14877904096E+03  0.41189190664E+02 -0.11874333344E+02  0.15483136713E+03  0.00000000000E+00 0.  1.
         22    1    1    2    0    0 -0.19711853169E+02  0.14914305091E+02  0.10827275910E+03  0.11105847116E+03  0.00000000000E+00 0. -1.
         22    1    1    2    0    0  0.59932966752E+02 -0.75559889657E+02  0.71389712117E+02  0.11999061807E+03  0.00000000000E+00 0. -1.
</event>
<event>
 6    1  0.2809573E-005  0.1299635E+03  0.7818608E-02  0.1277563E+00
          2   -1    0    0  502    0  0.00000000000E+00  0.00000000000E+00  0.10008111782E+04  0.10008111782E+04  0.00000000000E+00 0. -1.
          1   -1    0    0  501    0 -0.00000000000E+00 -0.00000000000E+00 -0.80438499649E+02  0.80438499649E+02  0.00000000000E+00 0. -1.
          2    1    1    2  501    0 -0.61592685807E+02 -0.63258042993E+02  0.29645965743E+03  0.30932760535E+03  0.00000000000E+00 0. -1.
          1    1    1    2  502    0  0.69154313633E+02  0.98812968067E+02 -0.13732233106E+02  0.12138737982E+03  0.00000000000E+00 0. -1.
         22    1    1    2    0    0 -0.41922667249E+02 -0.69058394472E+02  0.41084092504E+03  0.41870853534E+03  0.00000000000E+00 0.  1.
         22    1    1    2    0    0  0.34361039423E+02  0.33503469397E+02  0.22680432917E+03  0.23182615733E+03  0.00000000000E+00 0. -1.
</event>
<event>
 6    1  0.2809573E-005  0.1659087E+03  0.7818608E-02  0.1253340E+00
          2   -1    0    0  502    0  0.00000000000E+00  0.00000000000E+00  0.66330500185E+02  0.66330500185E+02  0.00000000000E+00 0. -1.
          1   -1    0    0  501    0 -0.00000000000E+00 -0.00000000000E+00 -0.44214194748E+03  0.44214194748E+03  0.00000000000E+00 0. -1.
          2    1    1    2  501    0 -0.74089251428E+02  0.49762924354E+01 -0.43462544887E+02  0.86040533887E+02  0.00000000000E+00 0. -1.
          1    1    1    2  502    0  0.12457796384E+02 -0.86837093467E+02 -0.18166094128E+03  0.20173392149E+03  0.00000000000E+00 0. -1.
         22    1    1    2    0    0  0.34519132545E+02  0.13269380515E+02  0.14554270791E+02  0.39742593891E+02  0.00000000000E+00 0. -1.
         22    1    1    2    0    0  0.27112322500E+02  0.68591420517E+02 -0.16524223191E+03  0.18095539839E+03  0.00000000000E+00 0. -1.
</event>
<event>
 6    1  0.2809573E-005  0.7674998E+02  0.7818608E-02  0.1422062E+00
          2   -1    0    0  502    0  0.00000000000E+00  0.00000000000E+00  0.10474737434E+03  0.10474737434E+03  0.00000000000E+00 0.  1.
          1   -1    0    0  501    0 -0.00000000000E+00 -0.00000000000E+00 -0.27721512881E+04  0.27721512881E+04  0.00000000000E+00 0. -1.
          2    1    1    2  501    0  0.21281655619E+02 -0.84285079765E+01 -0.20805321503E+01  0.22984282165E+02  0.00000000000E+00 0.  1.
          1    1    1    2  502    0 -0.75031165809E+01 -0.36045896138E+02 -0.27134070972E+04  0.27136568830E+04  0.00000000000E+00 0. -1.
         22    1    1    2    0    0 -0.32018959152E+02  0.37195027301E+02 -0.31479361719E+02  0.58306380572E+02  0.00000000000E+00 0. -1.
         22    1    1    2    0    0  0.18240420114E+02  0.72793768128E+01  0.79563077336E+02  0.81951116697E+02  0.00000000000E+00 0.  1.
</event>
<event>
 6    1  0.2809573E-005  0.1005981E+03  0.7818608E-02  0.1388814E+00
          2   -1    0    0  502    0  0.00000000000E+00  0.00000000000E+00  0.62682093439E+02  0.62682093439E+02  0.00000000000E+00 0. -1.
          1   -1    0    0  501    0 -0.00000000000E+00 -0.00000000000E+00 -0.63947732135E+03  0.63947732135E+03  0.00000000000E+00 0. -1.
          2    1    1    2  501    0  0.78729476871E+02  0.16641423903E+02 -0.34967412112E+03  0.35881368216E+03  0.00000000000E+00 0. -1.
          1    1    1    2  502    0 -0.99669035935E+02 -0.19654277994E+02 -0.17514143081E+03  0.20247154899E+03  0.00000000000E+00 0. -1.
         22    1    1    2    0    0  0.93653758709E+01 -0.11337070339E+02  0.42313374438E+02  0.44795770843E+02  0.00000000000E+00 0. -1.
         22    1    1    2    0    0  0.11574183193E+02  0.14349924429E+02 -0.94293050418E+02  0.96078412793E+02  0.00000000000E+00 0.  1.
</event>
<event>
 6    1  0.2809573E-005  0.1087230E+03  0.7818608E-02  0.1264214E+00
          2   -1    0    0  502    0  0.00000000000E+00  0.00000000000E+00  0.66792466629E+03  0.66792466629E+03  0.00000000000E+00 0. -1.
          1   -1    0    0  501    0 -0.00000000000E+00 -0.00000000000E+00 -0.53021746175E+03  0.53021746175E+03  0.00000000000E+00 0.  1.
          2    1    1    2  501    0 -0.93268897649E+02 -0.21584518473E+02  0.38546342906E+02  0.10320270955E+03  0.00000000000E+00 0. -1.
          1    1    1    2  502    0  0.17488137638E+02 -0.99473296598E+01 -0.48825778448E+03  0.48867212774E+03  0.00000000000E+00 0.  1.
         22    1    1    2    0    0  0.97504882613E+02  0.37869674323E+02  0.56431387323E+03  0.57392635580E+03  0.00000000000E+00 0. -1.
         22    1    1    2    0    0 -0.21724122603E+02 -0.63378261898E+01  0.23104772884E+02  0.32340934954E+02  0.00000000000E+00 0. -1.
</event>
<event>
 6    1  0.2809573E-005  0.8756333E+02  0.7818608E-02  0.1342337E+00
          2   -1    0    0  502    0  0.00000000000E+00  0.00000000000E+00  0.31227182966E+03  0.31227182966E+03  0.00000000000E+00 0. -1.
          1   -1    0    0  501    0 -0.00000000000E+00 -0.00000000000E+00 -0.27895898147E+04  0.27895898147E+04  0.00000000000E+00 0.  1.
          2    1    1    2  501    0  0.28800952501E+02  0.60197856166E+02  0.99081211270E+02  0.11945862538E+03  0.00000000000E+00 0. -1.
          1    1    1    2  502    0 -0.54612184881E+02 -0.51494470363E+02 -0.27600855904E+04  0.27611060533E+04  0.00000000000E+00 0.  1.
         22    1    1    2    0    0  0.28940526406E+01 -0.48304810873E+02  0.21811271127E+02  0.53079768673E+02  0.00000000000E+00 0. -1.
         22    1    1    2    0    0  0.22917179739E+02  0.39601425070E+02  0.16187512287E+03  0.16821719710E+03  0.00000000000E+00 0. -1.
</event>
<event>
 6    1  0.2809573E-005  0.9692932E+02  0.7818608E-02  0.1387996E+00
          2   -1    0    0  502    0  0.00000000000E+00  0.00000000000E+00  0.11863155057E+03  0.11863155057E+03  0.00000000000E+00 0.  1.
          1   -1    0    0  501    0 -0.00000000000E+00 -0.00000000000E+00 -0.19230937270E+03  0.19230937270E+03  0.00000000000E+00 0.  1.
          2    1    1    2  501    0 -0.18296334252E+02  0.25757849994E+02 -0.78056741586E+02  0.84208536327E+02  0.00000000000E+00 0.  1.
          1    1    1    2  502    0  0.42768620039E+02  0.72185478221E+01 -0.67281719125E+02  0.80050559156E+02  0.00000000000E+00 0.  1.
         22    1    1    2    0    0 -0.40997793061E+02 -0.35064121875E+02 -0.16927983493E+02  0.56540855175E+02  0.00000000000E+00 0.  1.
         22    1    1    2    0    0  0.16525507273E+02  0.20877240594E+01  0.88588622076E+02  0.90140972613E+02  0.00000000000E+00 0.  1.
</event>
<event>
 6    1  0.2809573E-005  0.2556275E+03  0.7818608E-02  0.1218835E+00
          2   -1    0    0  502    0  0.00000000000E+00  0.00000000000E+00  0.10793400603E+03  0.10793400603E+03  0.00000000000E+00 0.  1.
          1   -1    0    0  501    0 -0.00000000000E+00 -0.00000000000E+00 -0.15639459204E+04  0.15639459204E+04  0.00000000000E+00 0.  1.
          2    1    1    2  501    0 -0.21279323113E+02  0.14251927826E+03 -0.46867687361E+02  0.15152931857E+03  0.00000000000E+00 0.  1.
          1    1    1    2  502    0  0.67200618094E+01 -0.23255570223E+03 -0.13199680577E+04  0.13403145106E+04  0.00000000000E+00 0.  1.
         22    1    1    2    0    0  0.29189431127E+02  0.75717419373E+02 -0.11889525031E+03  0.14394870973E+03  0.00000000000E+00 0.  1.
         22    1    1    2    0    0 -0.14630169823E+02  0.14319004599E+02  0.29719081041E+02  0.36087387543E+02  0.00000000000E+00 0. -1.
</event>
<event>
 6    1  0.2809573E-005  0.1487858E+03  0.7818608E-02  0.1337499E+00
          2   -1    0    0  502    0  0.00000000000E+00  0.00000000000E+00  0.38932796637E+03  0.38932796637E+03  0.00000000000E+00 0.  1.
          1   -1    0    0  501    0 -0.00000000000E+00 -0.00000000000E+00 -0.26675973776E+03  0.26675973776E+03  0.00000000000E+00 0. -1.
          2    1    1    2  501    0 -0.50298882626E+02 -0.11908945718E+01  0.64004369162E+02  0.81412253962E+02  0.00000000000E+00 0.  1.
          1    1    1    2  502    0  0.13784860633E+03  0.15155807036E+02 -0.21713165831E+03  0.25763946475E+03  0.00000000000E+00 0. -1.
         22    1    1    2    0    0 -0.98064011887E+02 -0.11842576824E+02  0.28574595182E+03  0.30233680894E+03  0.00000000000E+00 0.  1.
         22    1    1    2    0    0  0.10514288180E+02 -0.21223356403E+01 -0.10050434058E+02  0.14699176482E+02  0.00000000000E+00 0. -1.
</event>
<event>
 6    1  0.2809573E-005  0.4183702E+02  0.7818608E-02  0.1569523E+00
          2   -1    0    0  502    0  0.00000000000E+00  0.00000000000E+00  0.50271069655E+02  0.50271069655E+02  0.00000000000E+00 0. -1.
          1   -1    0    0  501    0 -0.00000000000E+00 -0.00000000000E+00 -0.30758209878E+03  0.30758209878E+03  0.00000000000E+00 0. -1.
          2    1    1    2  501    0  0.21894252828E+02  0.48156092830E+01 -0.10834227164E+03  0.11063722802E+03  0.00000000000E+00 0. -1.
          1    1    1    2  502    0 -0.36156011451E+02 -0.36147746388E+01 -0.11488187042E+03  0.12049136032E+03  0.00000000000E+00 0. -1.
         22    1    1    2    0    0  0.18540051628E+02  0.13918250125E+02 -0.77322080012E+02  0.80722705965E+02  0.00000000000E+00 0.  1.
         22    1    1    2    0    0 -0.42782930043E+01 -0.15119084769E+02  0.43235192944E+02  0.46001874138E+02  0.00000000000E+00 0. -1.
</event>
<event>
 6    1  0.2809573E-005  0.1059250E+03  0.7818608E-02  0.1272026E+00
          2   -1    0    0  502    0  0.00000000000E+00  0.00000000000E+00  0.13246834714E+04  0.13246834714E+04  0.00000000000E+00 0. -1.
          1   -1    0    0  501    0 -0.00000000000E+00 -0.00000000000E+00 -0.21560867812E+02  0.21560867812E+02  0.00000000000E+00 0. -1.
          2    1    1    2  501    0  0.77083677603E+02 -0.22836269472E+02  0.13687581618E+03  0.15873996854E+03  0.00000000000E+00 0. -1.
          1    1    1    2  502    0 -0.59804634459E+02  0.71062474537E+02  0.47609881362E+03  0.48507375719E+03  0.00000000000E+00 0. -1.
         22    1    1    2    0    0 -0.31747471512E+01  0.40405805795E+02  0.24433627237E+03  0.24767503337E+03  0.00000000000E+00 0. -1.
         22    1    1    2    0    0 -0.14104295993E+02 -0.88632010860E+02  0.44581170142E+03  0.45475558011E+03  0.00000000000E+00 0. -1.
</event>
<event>
 6    1  0.2809573E-005  0.2727618E+03  0.7818608E-02  0.1224351E+00
          2   -1    0    0  502    0  0.00000000000E+00  0.00000000000E+00  0.28207409410E+03  0.28207409410E+03  0.00000000000E+00 0.  1.
          1   -1    0    0  501    0 -0.00000000000E+00 -0.00000000000E+00 -0.13582407088E+04  0.13582407088E+04  0.00000000000E+00 0. -1.
          2    1    1    2  501    0 -0.20860455719E+02 -0.12355247996E+03  0.44129221340E+02  0.13284487981E+03  0.00000000000E+00 0.  1.
          1    1    1    2  502    0 -0.46793006882E+02  0.10221633884E+02 -0.12707985702E+04  0.12717008584E+04  0.00000000000E+00 0. -1.
         22    1    1    2    0    0 -0.73442314213E+01 -0.13093636481E+02  0.62861638230E+02  0.64629456229E+02  0.00000000000E+00 0. -1.
         22    1    1    2    0    0  0.74997694023E+02  0.12642448256E+03  0.87641095896E+02  0.17113960847E+03  0.00000000000E+00 0.  1.
</event>
<event>
 6    1  0.2809573E-005  0.1271387E+03  0.7818608E-02  0.1305328E+00
          2   -1    0    0  502    0  0.00000000000E+00  0.00000000000E+00  0.77728986632E+02  0.77728986632E+02  0.00000000000E+00 0. -1.
          1   -1    0    0  501    0 -0.00000000000E+00 -0.00000000000E+00 -0.62164065765E+03  0.62164065765E+03  0.00000000000E+00 0. -1.
          2    1    1    2  501    0 -0.84614372774E+02  0.12884358827E+02 -0.41532389868E+03  0.42405134076E+03  0.00000000000E+00 0. -1.
          1    1    1    2  502    0  0.74536378023E+02  0.51127354510E+02 -0.16519758584E+02  0.91883515669E+02  0.00000000000E+00 0. -1.
         22    1    1    2    0    0 -0.77011536716E+01 -0.29521479132E+02  0.25958105688E+02  0.40058067214E+02  0.00000000000E+00 0.  1.
         22    1    1    2    0    0  0.17779148422E+02 -0.34490234206E+02 -0.13802611944E+03  0.14337672065E+03  0.00000000000E+00 0. -1.
</event>
<event>
 6    1  0.2809573E-005  0.6286128E+02  0.7818608E-02  0.1409565E+00
          2   -1    0    0  502    0  0.00000000000E+00  0.00000000000E+00  0.25497887999E+03  0.25497887999E+03  0.00000000000E+00 0. -1.
          1   -1    0    0  501    0 -0.00000000000E+00 -0.00000000000E+00 -0.13481423517E+04  0.13481423517E+04  0.00000000000E+00 0. -1.
          2    1    1    2  501    0 -0.22987172121E+02 -0.40825731075E+02  0.46611944219E+02  0.66089513115E+02  0.00000000000E+00 0. -1.
          1    1    1    2  502    0 -0.48906293715E+01  0.43968219266E+02 -0.13170452873E+04  0.13177880753E+04  0.00000000000E+00 0. -1.
         22    1    1    2    0    0 -0.80432459321E+01 -0.27447171557E+02 -0.74048559607E+01  0.29544422881E+02  0.00000000000E+00 0. -1.
         22    1    1    2    0    0  0.35921047424E+02  0.24304683365E+02  0.18467472736E+03  0.18969922037E+03  0.00000000000E+00 0. -1.
</event>
<event>
 6    1  0.2809573E-005  0.1065209E+03  0.7818608E-02  0.1329277E+00
          2   -1    0    0  502    0  0.00000000000E+00  0.00000000000E+00  0.46696266218E+02  0.46696266218E+02  0.00000000000E+00 0. -1.
          1   -1    0    0  501    0 -0.00000000000E+00 -0.00000000000E+00 -0.50764969838E+03  0.50764969838E+03  0.00000000000E+00 0. -1.
          2    1    1    2  501    0 -0.38179872982E+02 -0.32031353777E+01 -0.12210502176E+03  0.12797499411E+03  0.00000000000E+00 0. -1.
          1    1    1    2  502    0  0.21118112805E+01  0.86093215231E+02 -0.21282334557E+03  0.22958719014E+03  0.00000000000E+00 0. -1.
         22    1    1    2    0    0  0.29496779384E+02 -0.49781567578E+02 -0.14635587705E+03  0.15737950061E+03  0.00000000000E+00 0. -1.
         22    1    1    2    0    0  0.65712823182E+01 -0.33108512276E+02  0.20330812222E+02  0.39404279742E+02  0.00000000000E+00 0. -1.
</event>
<event>
 6    1  0.2809573E-005  0.1346563E+03  0.7818608E-02  0.1259280E+00
          2   -1    0    0  502    0  0.00000000000E+00  0.00000000000E+00  0.12375832527E+03  0.12375832527E+03  0.00000000000E+00 0. -1.
          1   -1    0    0  501    0 -0.00000000000E+00 -0.00000000000E+00 -0.43985062229E+03  0.43985062229E+03  0.00000000000E+00 0. -1.
          2    1    1    2  501    0  0.40401281330E+02 -0.93120038403E+01  0.42363636763E+01  0.41676416903E+02  0.00000000000E+00 0. -1.
          1    1    1    2  502    0 -0.92084706832E+02 -0.87715778962E+02 -0.33333602330E+03  0.35677241421E+03  0.00000000000E+00 0. -1.
         22    1    1    2    0    0 -0.36657193039E+02  0.49385805818E+02 -0.96764507160E+01  0.62260270770E+02  0.00000000000E+00 0.  1.
         22    1    1    2    0    0  0.88340618541E+02  0.47641976984E+02  0.22683813322E+02  0.10289984568E+03  0.00000000000E+00 0. -1.
</event>
<event>
 6    1  0.2809573E-005  0.9118498E+02  0.7818608E-02  0.1301356E+00
          2   -1    0    0  502    0  0.00000000000E+00  0.00000000000E+00  0.19485266455E+03  0.19485266455E+03  0.00000000000E+00 0. -1.
          1   -1    0    0  501    0 -0.00000000000E+00 -0.00000000000E+00 -0.93024880807E+03  0.93024880807E+03  0.00000000000E+00 0.  1.
          2    1    1    2  501    0  0.45259679715E+02 -0.16818339674E+01  0.42096776654E+02  0.61833694520E+02  0.00000000000E+00 0. -1.
          1    1    1    2  502    0  0.14978450338E+02 -0.23671692196E+02 -0.88732765227E+03  0.88776971421E+03  0.00000000000E+00 0.  1.
         22    1    1    2    0    0  0.32720039226E+02 -0.11329660256E+02  0.15024467624E+02  0.37745155925E+02  0.00000000000E+00 0. -1.
         22    1    1    2    0    0 -0.92958169279E+02  0.36683186419E+02  0.94810264473E+02  0.13775290796E+03  0.00000000000E+00 0. -1.
</event>
<event>
 6    1  0.2809573E-005  0.1699003E+03  0.7818608E-02  0.1233606E+00
          2   -1    0    0  502    0  0.00000000000E+00  0.00000000000E+00  0.99994532273E+02  0.99994532273E+02  0.00000000000E+00 0. -1.
          1   -1    0    0  501    0 -0.00000000000E+00 -0.00000000000E+00 -0.42322340530E+03  0.42322340530E+03  0.00000000000E+00 0. -1.
          2    1    1    2  501    0  0.60226426175E+02  0.60628129985E+02 -0.63810625075E+02  0.10665265317E+03  0.00000000000E+00 0. -1.
          1    1    1    2  502    0 -0.45149557465E+02 -0.52957698856E+02 -0.28056911446E+03  0.28907097467E+03  0.00000000000E+00 0. -1.
         22    1    1    2    0    0  0.47341377196E+02  0.19751949707E+02  0.28902393750E+02  0.58878636843E+02  0.00000000000E+00 0. -1.
         22    1    1    2    0    0 -0.62418245906E+02 -0.27422380836E+02 -0.77515272483E+01  0.68615672899E+02  0.00000000000E+00 0. -1.
</event>
<event>
 6    1  0.2809573E-005  0.1711460E+03  0.7818608E-02  0.1234206E+00
          2   -1    0    0  502    0  0.00000000000E+00  0.00000000000E+00  0.73624406112E+02  0.73624406112E+02  0.00000000000E+00 0. -1.
          1   -1    0    0  501    0 -0.00000000000E+00 -0.00000000000E+00 -0.58042481861E+03  0.58042481861E+03  0.00000000000E+00 0. -1.
          2    1    1    2  501    0  0.61912479704E+01 -0.36374701219E+02 -0.11068811131E+03  0.11667608335E+03  0.00000000000E+00 0. -1.
          1    1    1    2  502    0  0.45462089350E+02  0.42666487803E+02 -0.39617377554E+03  0.40104973653E+03  0.00000000000E+00 0. -1.
         22    1    1    2    0    0 -0.36348335841E+01 -0.18596268553E+02  0.57447929471E+02  0.60492130230E+02  0.00000000000E+00 0. -1.
         22    1    1    2    0    0 -0.48018503736E+02  0.12304481969E+02 -0.57386455118E+02  0.75831274607E+02  0.00000000000E+00 0. -1.
</event>
<event>
 6    1  0.2809573E-005  0.9636265E+02  0.7818608E-02  0.1289419E+00
          2   -1    0    0  502    0  0.00000000000E+00  0.00000000000E+00  0.59546538701E+02  0.59546538701E+02  0.00000000000E+00 0.  1.
          1   -1    0    0  501    0 -0.00000000000E+00 -0.00000000000E+00 -0.15107456532E+04  0.15107456532E+04  0.00000000000E+00 0. -1.
          2    1    1    2  501    0  0.47234919228E+02  0.23041329754E+02 -0.34492202091E+02  0.62862965857E+02  0.00000000000E+00 0.  1.
          1    1    1    2  502    0  0.68042292510E+01 -0.22347379679E+02 -0.13558214863E+04  0.13560227157E+04  0.00000000000E+00 0. -1.
         22    1    1    2    0    0 -0.88401900654E+02 -0.29136534754E+02 -0.49253823715E+02  0.10530799042E+03  0.00000000000E+00 0. -1.
         22    1    1    2    0    0  0.34362752175E+02  0.28442584678E+02 -0.11631602395E+02  0.46098519873E+02  0.00000000000E+00 0. -1.
</event>
<event>
 6    1  0.2809573E-005  0.1438683E+03  0.7818608E-02  0.1230992E+00
          2   -1    0    0  502    0  0.00000000000E+00  0.00000000000E+00  0.45325654915E+03  0.45325654915E+03  0.00000000000E+00 0. -1.
          1   -1    0    0  501    0 -0.00000000000E+00 -0.00000000000E+00 -0.50273678923E+02  0.50273678923E+02  0.00000000000E+00 0. -1.
          2    1    1    2  501    0  0.22409516583E+02  0.47100705593E+02 -0.83666943910E+01  0.52826740160E+02  0.00000000000E+00 0. -1.
          1    1    1    2  502    0 -0.45313024976E+02 -0.30936280584E+01  0.80504216688E+02  0.92432514148E+02  0.00000000000E+00 0. -1.
         22    1    1    2    0    0 -0.25945708105E+02  0.35498007066E+02  0.11499103424E+03  0.12311062599E+03  0.00000000000E+00 0.  1.
         22    1    1    2    0    0  0.48849216498E+02 -0.79505084601E+02  0.21585431369E+03  0.23516034778E+03  0.00000000000E+00 0.  1.
</event>
<event>
 6    1  0.3378251E-005  0.8614903E+02  0.7818608E-02  0.1353794E+00
          2   -1    0    0  502    0  0.00000000000E+00  0.00000000000E+00  0.19510448233E+03  0.19510448233E+03  0.00000000000E+00 0. -1.
          1   -1    0    0  501    0 -0.00000000000E+00 -0.00000000000E+00 -0.11378641353E+04  0.11378641353E+04  0.00000000000E+00 0.  1.
          2    1    1    2  501    0 -0.26501282999E+02  0.49051150183E+02  0.26727777841E+01  0.55816458827E+02  0.00000000000E+00 0. -1.
          1    1    1    2  502    0  0.69583763104E+02 -0.42284633966E+02 -0.10816551245E+04  0.10847154921E+04  0.00000000000E+00 0.  1.
         22    1    1    2    0    0 -0.31019838649E+02 -0.27968831068E+02  0.15571028161E+03  0.16121469443E+03  0.00000000000E+00 0. -1.
         22    1    1    2    0    0 -0.12062641455E+02  0.21202314851E+02 -0.19487587824E+02  0.31221972281E+02  0.00000000000E+00 0. -1.
</event>
<event>
 6    1  0.2809573E-005  0.4374402E+02  0.7818608E-02  0.1491038E+00
          2   -1    0    0  502    0  0.00000000000E+00  0.00000000000E+00  0.25840599578E+03  0.25840599578E+03  0.00000000000E+00 0.  1.
          1   -1    0    0  501    0 -0.00000000000E+00 -0.00000000000E+00 -0.11631846391E+03  0.11631846391E+03  0.00000000000E+00 0.  1.
          2    1    1    2  501    0  0.26166004461E+02  0.21453860524E+02  0.20022066971E+02  0.39316804125E+02  0.00000000000E+00 0.  1.
          1    1    1    2  502    0 -0.16384850361E+02 -0.20199137397E+02 -0.87774077387E+02  0.91546475268E+02  0.00000000000E+00 0.  1.
         22    1    1    2    0    0  0.18988987710E+02  0.22291142107E+02 -0.14570463034E+01  0.29318929971E+02  0.00000000000E+00 0.  1.
         22    1    1    2    0    0 -0.28770141809E+02 -0.23545865235E+02  0.21129658859E+03  0.21454225033E+03  0.00000000000E+00 0.  1.
</event>
<event>
 6    1  0.2809573E-005  0.1044318E+03  0.7818608E-02  0.1301176E+00
          2   -1    0    0  502    0  0.00000000000E+00  0.00000000000E+00  0.17739841569E+03  0.17739841569E+03  0.00000000000E+00 0. -1.
          1   -1    0    0  501    0 -0.00000000000E+00 -0.00000000000E+00 -0.19865457315E+03  0.19865457315E+03  0.00000000000E+00 0. -1.
          2    1    1    2  501    0 -0.83542444180E+02 -0.40156880657E+02 -0.49423804322E+02  0.10504583513E+03  0.00000000000E+00 0. -1.
          1    1    1    2  502    0  0.78320063200E+02  0.24057344745E+02 -0.75005279592E+02  0.11107916142E+03  0.00000000000E+00 0. -1.
         22    1    1    2    0    0 -0.36156634565E+02 -0.26527257168E+02  0.49227735919E+01  0.45113537832E+02  0.00000000000E+00 0.  1.
         22    1    1    2    0    0  0.41379015545E+02  0.42626793080E+02  0.98250152858E+02  0.11481445446E+03  0.00000000000E+00 0. -1.
</event>
<event>
 6    1  0.2809573E-005  0.2740024E+03  0.7818608E-02  0.1179578E+00
          2   -1    0    0  502    0  0.00000000000E+00  0.00000000000E+00  0.47738723666E+03  0.47738723666E+03  0.00000000000E+00 0. -1.
          1   -1    0    0  501    0 -0.00000000000E+00 -0.00000000000E+00 -0.76129643887E+03  0.76129643887E+03  0.00000000000E+00 0. -1.
          2    1    1    2  501    0  0.79387759856E+02  0.84154573634E+02  0.46254219893E+02  0.12459478936E+03  0.00000000000E+00 0. -1.
          1    1    1    2  502    0 -0.36382301984E+02 -0.22169547808E+02 -0.70798504567E+03  0.70926580747E+03  0.00000000000E+00 0. -1.
         22    1    1    2    0    0  0.38563397258E+02  0.61363924772E+01  0.96942957445E+02  0.10451185540E+03  0.00000000000E+00 0.  1.
         22    1    1    2    0    0 -0.81568855130E+02 -0.68121418303E+02  0.28087866612E+03  0.30031122330E+03  0.00000000000E+00 0. -1.
</event>
<event>
 6    1  0.2809573E-005  0.1981091E+03  0.7818608E-02  0.1240767E+00
          2   -1    0    0  502    0  0.00000000000E+00  0.00000000000E+00  0.16264122906E+03  0.16264122906E+03  0.00000000000E+00 0. -1.
          1   -1    0    0  501    0 -0.00000000000E+00 -0.00000000000E+00 -0.13684141368E+04  0.13684141368E+04  0.00000000000E+00 0.  1.
          2    1    1    2  501    0 -0.14564059124E+03  0.10815740361E+03 -0.15912240385E+03  0.24130715941E+03  0.00000000000E+00 0. -1.
          1    1    1    2  502    0  0.14966339074E+03 -0.10886731825E+03 -0.11243389846E+04  0.11394689007E+04  0.00000000000E+00 0.  1.
         22    1    1    2    0    0 -0.30759025732E+02 -0.74639087609E+01 -0.27197172186E+02  0.41731448248E+02  0.00000000000E+00 0. -1.
         22    1    1    2    0    0  0.26736226238E+02  0.81738233986E+01  0.10488565288E+03  0.10854785747E+03  0.00000000000E+00 0. -1.
</event>
<event>
 6    1  0.2809573E-005  0.5902896E+02  0.7818608E-02  0.1451417E+00
          2   -1    0    0  502    0  0.00000000000E+00  0.00000000000E+00  0.17654820033E+03  0.17654820033E+03  0.00000000000E+00 0.  1.
          1   -1    0    0  501    0 -0.00000000000E+00 -0.00000000000E+00 -0.88603513102E+03  0.88603513102E+03  0.00000000000E+00 0.  1.
          2    1    1    2  501    0 -0.32892096380E+02 -0.34079443989E+02 -0.28942218243E+02  0.55506310485E+02  0.00000000000E+00 0.  1.
          1    1    1    2  502    0  0.37898593466E+02  0.40434835443E+02 -0.81679974487E+03  0.81867765483E+03  0.00000000000E+00 0.  1.
         22    1    1    2    0    0  0.91741730028E+01  0.26220543867E+02  0.14830397411E+03  0.15088323667E+03  0.00000000000E+00 0.  1.
         22    1    1    2    0    0 -0.14180670089E+02 -0.32575935322E+02 -0.12048941686E+02  0.37516129358E+02  0.00000000000E+00 0. -1.
</event>
<event>
 6    1  0.2809573E-005  0.1885251E+03  0.7818608E-02  0.1231286E+00
          2   -1    0    0  502    0  0.00000000000E+00  0.00000000000E+00  0.12864626228E+03  0.12864626228E+03  0.00000000000E+00 0.  1.
          1   -1    0    0  501    0 -0.00000000000E+00 -0.00000000000E+00 -0.50957537617E+03  0.50957537617E+03  0.00000000000E+00 0.  1.
          2    1    1    2  501    0  0.12019025670E+03  0.68493335865E+01 -0.15232492002E+03  0.19415327047E+03  0.00000000000E+00 0.  1.
          1    1    1    2  502    0 -0.18916740876E+03 -0.66467840834E+02 -0.21165767206E+03  0.29154974283E+03  0.00000000000E+00 0.  1.
         22    1    1    2    0    0  0.33659891932E+02  0.20440571739E+02  0.52301667396E+02  0.65469609058E+02  0.00000000000E+00 0.  1.
         22    1    1    2    0    0  0.35317260125E+02  0.39177935509E+02 -0.69248189215E+02  0.87049016094E+02  0.00000000000E+00 0.  1.
</event>
<event>
 6    1  0.2809573E-005  0.1585835E+03  0.7818608E-02  0.1261806E+00
          2   -1    0    0  502    0  0.00000000000E+00  0.00000000000E+00  0.36253359825E+03  0.36253359825E+03  0.00000000000E+00 0.  1.
          1   -1    0    0  501    0 -0.00000000000E+00 -0.00000000000E+00 -0.21675953878E+03  0.21675953878E+03  0.00000000000E+00 0. -1.
          2    1    1    2  501    0 -0.23229378681E+02 -0.22429727757E+02  0.10046453929E+02  0.33817568773E+02  0.00000000000E+00 0.  1.
          1    1    1    2  502    0  0.15251341452E+03  0.32854724287E+02 -0.14454860298E+03  0.21268303444E+03  0.00000000000E+00 0. -1.
         22    1    1    2    0    0 -0.22849608700E+02  0.27600946713E+02  0.17399966341E+03  0.17765078031E+03  0.00000000000E+00 0.  1.
         22    1    1    2    0    0 -0.10643442714E+03 -0.38025943244E+02  0.10627654510E+03  0.15514175350E+03  0.00000000000E+00 0.  1.
</event>
<event>
 6    1  0.2809573E-005  0.6087102E+02  0.7818608E-02  0.1401343E+00
          2   -1    0    0  502    0  0.00000000000E+00  0.00000000000E+00  0.70291986398E+02  0.70291986398E+02  0.00000000000E+00 0.  1.
          1   -1    0    0  501    0 -0.00000000000E+00 -0.00000000000E+00 -0.59112741262E+03  0.59112741262E+03  0.00000000000E+00 0.  1.
          2    1    1    2  501    0 -0.27644709361E+01 -0.26910161847E+02  0.10514400730E+02  0.29023296383E+02  0.00000000000E+00 0.  1.
          1    1    1    2  502    0  0.40365609352E+02  0.43271090573E+02 -0.49452391757E+03  0.49805187957E+03  0.00000000000E+00 0.  1.
         22    1    1    2    0    0 -0.62437037032E+02  0.10558007761E+02 -0.63002132657E+02  0.89325941588E+02  0.00000000000E+00 0. -1.
         22    1    1    2    0    0  0.24835898616E+02 -0.26918936487E+02  0.26176223277E+02  0.45018281472E+02  0.00000000000E+00 0. -1.
</event>
<event>
 6    1  0.2809573E-005  0.1949221E+03  0.7818608E-02  0.1183284E+00
          2   -1    0    0  502    0  0.00000000000E+00  0.00000000000E+00  0.21531823042E+03  0.21531823042E+03  0.00000000000E+00 0. -1.
          1   -1    0    0  501    0 -0.00000000000E+00 -0.00000000000E+00 -0.48108007381E+03  0.48108007381E+03  0.00000000000E+00 0. -1.
          2    1    1    2  501    0 -0.52596731245E+02 -0.51598191289E+02 -0.73926382860E+02  0.10437384521E+03  0.00000000000E+00 0. -1.
          1    1    1    2  502    0 -0.25037329908E+02  0.20837271129E+01 -0.36004800521E+03  0.36092350418E+03  0.00000000000E+00 0. -1.
         22    1    1    2    0    0 -0.26525726848E+02  0.47293791284E+02  0.60621246858E+02  0.81334202212E+02  0.00000000000E+00 0. -1.
         22    1    1    2    0    0  0.10415978800E+03  0.22206728927E+01  0.10759129783E+03  0.14976675263E+03  0.00000000000E+00 0.  1.
</event>
<event>
 6    1  0.2809573E-005  0.2558796E+03  0.7818608E-02  0.1194999E+00
          2   -1    0    0  502    0  0.00000000000E+00  0.00000000000E+00  0.84974449700E+03  0.84974449700E+03  0.00000000000E+00 0. -1.
          1   -1    0    0  501    0 -0.00000000000E+00 -0.00000000000E+00 -0.73002730400E+03  0.73002730400E+03  0.00000000000E+00 0.  1.
          2    1    1    2  501    0 -0.46617247305E+02  0.16045380805E+03  0.30594740304E+03  0.34860063926E+03  0.00000000000E+00 0. -1.
          1    1    1    2  502    0  0.34326279281E+02 -0.23457084921E+03 -0.67859493657E+03  0.71881351176E+03  0.00000000000E+00 0.  1.
         22    1    1    2    0    0  0.55643413847E+01  0.10749376443E+03  0.37944123996E+03  0.39441288755E+03  0.00000000000E+00 0. -1.
         22    1    1    2    0    0  0.67266266392E+01 -0.33376723277E+02  0.11292348657E+03  0.11794476242E+03  0.00000000000E+00 0. -1.
</event>
<event>
 6    1  0.2809573E-005  0.1253265E+03  0.7818608E-02  0.1236829E+00
          2   -1    0    0  502    0  0.00000000000E+00  0.00000000000E+00  0.38734111989E+03  0.38734111989E+03  0.00000000000E+00 0. -1.
          1   -1    0    0  501    0 -0.00000000000E+00 -0.00000000000E+00 -0.13037275710E+03  0.13037275710E+03  0.00000000000E+00 0.  1.
          2    1    1    2  501    0  0.54872061673E+02  0.69477651886E+02  0.63795933626E+02  0.10912382147E+03  0.00000000000E+00 0. -1.
          1    1    1    2  502    0 -0.44137072455E+02  0.22608564347E+02 -0.79428059515E+02  0.93637839494E+02  0.00000000000E+00 0.  1.
         22    1    1    2    0    0  0.30382827827E+02  0.21239121980E+02  0.58975879780E+02  0.69658961556E+02  0.00000000000E+00 0.  1.
         22    1    1    2    0    0 -0.41117817045E+02 -0.11332533821E+03  0.21362460890E+03  0.24529325447E+03  0.00000000000E+00 0. -1.
</event>
<event>
 6    1  0.2809573E-005  0.2273801E+03  0.7818608E-02  0.1129017E+00
          2   -1    0    0  502    0  0.00000000000E+00  0.00000000000E+00  0.10465871478E+03  0.10465871478E+03  0.00000000000E+00 0.  1.
          1   -1    0    0  501    0 -0.00000000000E+00 -0.00000000000E+00 -0.81654855525E+03  0.81654855525E+03  0.00000000000E+00 0.  1.
          2    1    1    2  501    0  0.68976793786E+02 -0.17924368142E+03 -0.13961140022E+03  0.23743933642E+03  0.00000000000E+00 0.  1.
          1    1    1    2  502    0 -0.48451234266E+01 -0.48847470682E+02 -0.28644856158E+03  0.29062403383E+03  0.00000000000E+00 0.  1.
         22    1    1    2    0    0 -0.79397982622E+02  0.23840874864E+03 -0.27014836874E+03  0.36894838692E+03  0.00000000000E+00 0.  1.
         22    1    1    2    0    0  0.15266312262E+02 -0.10317596543E+02 -0.15681509936E+02  0.24195512856E+02  0.00000000000E+00 0. -1.
</event>
<event>
 6    1  0.2809573E-005  0.2465677E+03  0.7818608E-02  0.1166355E+00
          2   -1    0    0  502    0  0.00000000000E+00  0.00000000000E+00  0.75880485600E+02  0.75880485600E+02  0.00000000000E+00 0.  1.
          1   -1    0    0  501    0 -0.00000000000E+00 -0.00000000000E+00 -0.16504497025E+04  0.16504497025E+04  0.00000000000E+00 0.  1.
          2    1    1    2  501    0 -0.12500123166E+03  0.18441521932E+02 -0.39556885625E+03  0.41525909705E+03  0.00000000000E+00 0.  1.
          1    1    1    2  502    0 -0.16333012630E+02  0.13343214400E+02 -0.11102653904E+04  0.11104656887E+04  0.00000000000E+00 0.  1.
         22    1    1    2    0    0  0.69260194677E+02  0.23038533602E+02  0.18037625884E+02  0.75187130180E+02  0.00000000000E+00 0.  1.
         22    1    1    2    0    0  0.72074049609E+02 -0.54823269934E+02 -0.86772596136E+02  0.12541827217E+03  0.00000000000E+00 0.  1.
</event>
<event>
 6    1  0.2809573E-005  0.5544063E+02  0.7818608E-02  0.1420655E+00
          2   -1    0    0  502    0  0.00000000000E+00  0.00000000000E+00  0.16223753627E+03  0.16223753627E+03  0.00000000000E+00 0. -1.
          1   -1    0    0  501    0 -0.00000000000E+00 -0.00000000000E+00 -0.26817328107E+03  0.26817328107E+03  0.00000000000E+00 0. -1.
          2    1    1    2  501    0  0.28297083899E+02 -0.31721118326E+02 -0.14105046843E+03  0.14731662822E+03  0.00000000000E+00 0. -1.
          1    1    1    2  502    0  0.16816241736E+02  0.68505174587E+02 -0.75140036529E+02  0.10306197175E+03  0.00000000000E+00 0. -1.
         22    1    1    2    0    0 -0.50343508619E+02 -0.25809662925E+02  0.13832254807E+03  0.14944475522E+03  0.00000000000E+00 0. -1.
         22    1    1    2    0    0  0.52301829837E+01 -0.10974393336E+02 -0.28067787898E+02  0.30587462147E+02  0.00000000000E+00 0. -1.
</event>
<event>
 6    1  0.2809573E-005  0.1676589E+03  0.7818608E-02  0.1238742E+00
          2   -1    0    0  502    0  0.00000000000E+00  0.00000000000E+00  0.40284502886E+03  0.40284502886E+03  0.00000000000E+00 0.  1.
          1   -1    0    0  501    0 -0.00000000000E+00 -0.00000000000E+00 -0.79663276193E+03  0.79663276193E+03  0.00000000000E+00 0. -1.
          2    1    1    2  501    0 -0.32031677560E+01 -0.20060973985E+02 -0.17931594750E+02  0.27096956493E+02  0.00000000000E+00 0.  1.
          1    1    1    2  502    0  0.27666502954E+02 -0.10418726561E+02 -0.76330598533E+03  0.76387827073E+03  0.00000000000E+00 0. -1.
         22    1    1    2    0    0 -0.36909173746E+02  0.74797830370E+02  0.24755390304E+03  0.26122775014E+03  0.00000000000E+00 0.  1.
         22    1    1    2    0    0  0.12445838547E+02 -0.44318129824E+02  0.13989594398E+03  0.14727481342E+03  0.00000000000E+00 0.  1.
</event>
<event>
 6    1  0.2809573E-005  0.1644084E+03  0.7818608E-02  0.1244894E+00
          2   -1    0    0  502    0  0.00000000000E+00  0.00000000000E+00  0.69887114123E+03  0.69887114123E+03  0.00000000000E+00 0. -1.
          1   -1    0    0  501    0 -0.00000000000E+00 -0.00000000000E+00 -0.89198894481E+02  0.89198894481E+02  0.00000000000E+00 0.  1.
          2    1    1    2  501    0 -0.42769203663E+02 -0.22659226439E+02  0.99994385995E+02  0.11109240548E+03  0.00000000000E+00 0. -1.
          1    1    1    2  502    0 -0.55322286591E+02 -0.23540429562E+02 -0.59565678464E+02  0.84633192475E+02  0.00000000000E+00 0.  1.
         22    1    1    2    0    0  0.18138286203E+02 -0.41181840842E+02  0.17510564032E+03  0.18079526187E+03  0.00000000000E+00 0. -1.
         22    1    1    2    0    0  0.79953204051E+02  0.87381496843E+02  0.39413789890E+03  0.41154917589E+03  0.00000000000E+00 0. -1.
</event>
<event>
 6    1  0.2809573E-005  0.6491658E+03  0.7818608E-02  0.1117544E+00
          2   -1    0    0  502    0  0.00000000000E+00  0.00000000000E+00  0.40018455734E+03  0.40018455734E+03  0.00000000000E+00 0.  1.
          1   -1    0    0  501    0 -0.00000000000E+00 -0.00000000000E+00 -0.90276496812E+03  0.90276496812E+03  0.00000000000E+00 0.  1.
          2    1    1    2  501    0  0.28269281450E+03  0.22009996484E+03 -0.32592987933E+03  0.48434441065E+03  0.00000000000E+00 0.  1.
          1    1    1    2  502    0 -0.42143717393E+03 -0.10853246906E+03 -0.33585977047E+03  0.54971844960E+03  0.00000000000E+00 0.  1.
         22    1    1    2    0    0  0.80300637698E+01  0.10007904506E+02  0.66517033527E+02  0.67743308348E+02  0.00000000000E+00 0.  1.
         22    1    1    2    0    0  0.13071429566E+03 -0.12157540028E+03  0.92692205501E+02  0.20114335685E+03  0.00000000000E+00 0.  1.
</event>
<event>
 6    1  0.2809573E-005  0.7445157E+02  0.7818608E-02  0.1346632E+00
          2   -1    0    0  502    0  0.00000000000E+00  0.00000000000E+00  0.66438922904E+03  0.66438922904E+03  0.00000000000E+00 0. -1.
          1   -1    0    0  501    0 -0.00000000000E+00 -0.00000000000E+00 -0.75977751906E+03  0.75977751906E+03  0.00000000000E+00 0.  1.
          2    1    1    2  501    0 -0.39985653121E+02 -0.91445170780E+00  0.23972961103E+03  0.24304315477E+03  0.00000000000E+00 0. -1.
          1    1    1    2  502    0 -0.68942289378E+02 -0.45272362240E+01 -0.73979266708E+03  0.74301192816E+03  0.00000000000E+00 0.  1.
         22    1    1    2    0    0 -0.22474710310E+02  0.10223366489E+02  0.14453608466E+03  0.14662983869E+03  0.00000000000E+00 0. -1.
         22    1    1    2    0    0  0.13140265281E+03 -0.47816785574E+01  0.26013868137E+03  0.29148182646E+03  0.00000000000E+00 0. -1.
</event>
<event>
 6    1  0.2809573E-005  0.4374314E+02  0.7818608E-02  0.1504442E+00
          2   -1    0    0  502    0  0.00000000000E+00  0.00000000000E+00  0.11957061180E+03  0.11957061180E+03  0.00000000000E+00 0. -1.
          1   -1    0    0  501    0 -0.00000000000E+00 -0.00000000000E+00 -0.14794929400E+03  0.14794929400E+03  0.00000000000E+00 0. -1.
          2    1    1    2  501    0  0.28039997392E+02 -0.67888336153E+01 -0.19156612475E+02  0.34630990703E+02  0.00000000000E+00 0. -1.
          1    1    1    2  502    0 -0.33049841909E+02 -0.14353983126E+02 -0.77150001256E+02  0.85149583532E+02  0.00000000000E+00 0. -1.
         22    1    1    2    0    0 -0.29833829339E+02  0.12106728768E+02  0.96533328712E+02  0.10176106233E+03  0.00000000000E+00 0. -1.
         22    1    1    2    0    0  0.34843673856E+02  0.90360879730E+01 -0.28605397178E+02  0.45978269230E+02  0.00000000000E+00 0.  1.
</event>
<event>
 6    1  0.2809573E-005  0.2055125E+03  0.7818608E-02  0.1155378E+00
          2   -1    0    0  502    0  0.00000000000E+00  0.00000000000E+00  0.16265107393E+03  0.16265107393E+03  0.00000000000E+00 0. -1.
          1   -1    0    0  501    0 -0.00000000000E+00 -0.00000000000E+00 -0.81936951921E+03  0.81936951921E+03  0.00000000000E+00 0. -1.
          2    1    1    2  501    0  0.96630683969E+02 -0.10599613226E+03  0.75141095759E+02  0.16192236847E+03  0.00000000000E+00 0. -1.
          1    1    1    2  502    0  0.76052130058E+02  0.62970391823E+02 -0.46937372801E+03  0.47964663376E+03  0.00000000000E+00 0. -1.
         22    1    1    2    0    0 -0.19134613221E+03  0.42542366871E+02 -0.22386244278E+03  0.29755266522E+03  0.00000000000E+00 0. -1.
         22    1    1    2    0    0  0.18663318185E+02  0.48337356681E+00 -0.38623370250E+02  0.42898925687E+02  0.00000000000E+00 0. -1.
</event>
<event>
 6    1  0.2809573E-005  0.1732757E+03  0.7818608E-02  0.1296377E+00
          2   -1    0    0  502    0  0.00000000000E+00  0.00000000000E+00  0.23412347926E+03  0.23412347926E+03  0.00000000000E+00 0. -1.
          1   -1    0    0  501    0 -0.00000000000E+00 -0.00000000000E+00 -0.88004832311E+03  0.88004832311E+03  0.00000000000E+00 0. -1.
          2    1    1    2  501    0 -0.35805012484E+02 -0.21195657287E+02  0.35220262757E+02  0.54513500304E+02  0.00000000000E+00 0. -1.
          1    1    1    2  502    0  0.24850224228E+00 -0.10002409262E+03 -0.82639812917E+03  0.83242942569E+03  0.00000000000E+00 0. -1.
         22    1    1    2    0    0  0.24490183165E+01 -0.13998455973E+02  0.65011654340E+02  0.66546747932E+02  0.00000000000E+00 0.  1.
         22    1    1    2    0    0  0.33107491925E+02  0.13521820588E+03  0.80241368228E+02  0.16068212843E+03  0.00000000000E+00 0. -1.
</event>
<event>
 6    1  0.2809573E-005  0.6813265E+02  0.7818608E-02  0.1373949E+00
          2   -1    0    0  502    0  0.00000000000E+00  0.00000000000E+00  0.24431504758E+02  0.24431504758E+02  0.00000000000E+00 0. -1.
          1   -1    0    0  501    0 -0.00000000000E+00 -0.00000000000E+00 -0.21643897286E+04  0.21643897286E+04  0.00000000000E+00 0.  1.
          2    1    1    2  501    0  0.42497964934E+02 -0.63343948763E+01 -0.21090017564E+03  0.21523263151E+03  0.00000000000E+00 0. -1.
          1    1    1    2  502    0 -0.32263445773E+02  0.81858684252E+01 -0.17789413979E+04  0.17792527745E+04  0.00000000000E+00 0.  1.
         22    1    1    2    0    0 -0.55397143872E+02 -0.12509205858E+02 -0.27235182357E+02  0.62984751633E+02  0.00000000000E+00 0. -1.
         22    1    1    2    0    0  0.45162624711E+02  0.10657732309E+02 -0.12288146794E+03  0.13135107571E+03  0.00000000000E+00 0. -1.
</event>
<event>
 6    1  0.5788747E-005  0.9877386E+02  0.7818608E-02  0.1370674E+00
          2   -1    0    0  502    0  0.00000000000E+00  0.00000000000E+00  0.36037361072E+03  0.36037361072E+03  0.00000000000E+00 0. -1.
          1   -1    0    0  501    0 -0.00000000000E+00 -0.00000000000E+00 -0.41971225193E+03  0.41971225193E+03  0.00000000000E+00 0. -1.
          2    1    1    2  501    0  0.16915159106E+02  0.44668000294E+02 -0.25826952764E+03  0.26264900869E+03  0.00000000000E+00 0. -1.
          1    1    1    2  502    0 -0.41315426209E+02 -0.29971374348E+02  0.33114419178E+03  0.33505480667E+03  0.00000000000E+00 0. -1.
         22    1    1    2    0    0  0.45279978392E+02 -0.15213035866E+02 -0.14843806830E+03  0.15593451518E+03  0.00000000000E+00 0. -1.
         22    1    1    2    0    0 -0.20879711290E+02  0.51640991975E+00  0.16224762937E+02  0.26447532118E+02  0.00000000000E+00 0.  1.
</event>
<event>
 6    1  0.2809573E-005  0.1047625E+03  0.7818608E-02  0.1358780E+00
          2   -1    0    0  502    0  0.00000000000E+00  0.00000000000E+00  0.14655539409E+03  0.14655539409E+03  0.00000000000E+00 0.  1.
          1   -1    0    0  501    0 -0.00000000000E+00 -0.00000000000E+00 -0.72833800455E+03  0.72833800455E+03  0.00000000000E+00 0.  1.
          2    1    1    2  501    0 -0.92412232565E+01  0.63529686128E+02 -0.10309865696E+02  0.65020877858E+02  0.00000000000E+00 0.  1.
          1    1    1    2  502    0 -0.23421834155E+02 -0.90755755756E+02 -0.65001567861E+03  0.65673858723E+03  0.00000000000E+00 0.  1.
         22    1    1    2    0    0  0.32578886425E+02  0.48574415979E+02 -0.12341337479E+02  0.59775967907E+02  0.00000000000E+00 0.  1.
         22    1    1    2    0    0  0.84170985876E-01 -0.21348346351E+02  0.90884271317E+02  0.93357965646E+02  0.00000000000E+00 0.  1.
</event>
<event>
 6    1  0.2809573E-005  0.1241255E+03  0.7818608E-02  0.1282877E+00
          2   -1    0    0  502    0  0.00000000000E+00  0.00000000000E+00  0.67060694270E+02  0.67060694270E+02  0.00000000000E+00 0. -1.
          1   -1    0    0  501    0 -0.00000000000E+00 -0.00000000000E+00 -0.18195449164E+04  0.18195449164E+04  0.00000000000E+00 0. -1.
          2    1    1    2  501    0 -0.40216629563E+02 -0.76464866602E+02 -0.12424801069E+03  0.15133347706E+03  0.00000000000E+00 0. -1.
          1    1    1    2  502    0  0.83078753264E+02  0.81738038844E+02 -0.15978511058E+04  0.16020959218E+04  0.00000000000E+00 0. -1.
         22    1    1    2    0    0 -0.49139972603E+02  0.80171378644E+01  0.38375309149E+02  0.62862355661E+02  0.00000000000E+00 0. -1.
         22    1    1    2    0    0  0.62778489014E+01 -0.13290310106E+02 -0.68760414785E+02  0.70313856181E+02  0.00000000000E+00 0. -1.
</event>
<event>
 6    1  0.2809573E-005  0.1095235E+03  0.7818608E-02  0.1356811E+00
          2   -1    0    0  502    0  0.00000000000E+00  0.00000000000E+00  0.13029206192E+03  0.13029206192E+03  0.00000000000E+00 0.  1.
          1   -1    0    0  501    0 -0.00000000000E+00 -0.00000000000E+00 -0.15998977823E+03  0.15998977823E+03  0.00000000000E+00 0.  1.
          2    1    1    2  501    0 -0.60947597311E+02  0.27781826278E+02 -0.41799807659E+02  0.78953552230E+02  0.00000000000E+00 0.  1.
          1    1    1    2  502    0  0.40534177565E+02  0.29334238847E+02 -0.36884038699E+02  0.62160674307E+02  0.00000000000E+00 0.  1.
         22    1    1    2    0    0  0.55931773563E+01 -0.44730548311E+02 -0.38680009468E+02  0.59399063272E+02  0.00000000000E+00 0.  1.
         22    1    1    2    0    0  0.14820242390E+02 -0.12385516813E+02  0.87666139518E+02  0.89768550335E+02  0.00000000000E+00 0.  1.
</event>
<event>
 6    1  0.2809573E-005  0.1740549E+03  0.7818608E-02  0.1291302E+00
          2   -1    0    0  502    0  0.00000000000E+00  0.00000000000E+00  0.31663735606E+02  0.31663735606E+02  0.00000000000E+00 0. -1.
          1   -1    0    0  501    0 -0.00000000000E+00 -0.00000000000E+00 -0.15657763731E+04  0.15657763731E+04  0.00000000000E+00 0. -1.
          2    1    1    2  501    0  0.51436482866E+02 -0.51795610272E+02 -0.39382398742E+03  0.40053193390E+03  0.00000000000E+00 0. -1.
          1    1    1    2  502    0  0.43086631473E+02  0.37494793698E+02 -0.94939267384E+03  0.95110922953E+03  0.00000000000E+00 0. -1.
         22    1    1    2    0    0 -0.82010367894E+02  0.23296047349E+02 -0.20678127161E+03  0.22366694113E+03  0.00000000000E+00 0. -1.
         22    1    1    2    0    0 -0.12512746445E+02 -0.89952307743E+01  0.15885295344E+02  0.22132004167E+02  0.00000000000E+00 0. -1.
</event>
<event>
 6    1  0.2809573E-005  0.1238988E+03  0.7818608E-02  0.1274411E+00
          2   -1    0    0  502    0  0.00000000000E+00  0.00000000000E+00  0.35683855776E+03  0.35683855776E+03  0.00000000000E+00 0.  1.
          1   -1    0    0  501    0 -0.00000000000E+00 -0.00000000000E+00 -0.23972668227E+04  0.23972668227E+04  0.00000000000E+00 0.  1.
          2    1    1    2  501    0  0.20882885688E+02  0.20372235434E+02  0.10174002490E+03  0.10584023601E+03  0.00000000000E+00 0.  1.
          1    1    1    2  502    0 -0.75258374168E+02 -0.77781126427E+02 -0.23711120625E+04  0.23735808685E+04  0.00000000000E+00 0.  1.
         22    1    1    2    0    0 -0.34052483830E+02  0.47980174730E+02  0.12312041416E+03  0.13645623916E+03  0.00000000000E+00 0.  1.
         22    1    1    2    0    0  0.88427972309E+02  0.94287162630E+01  0.10582335843E+03  0.13822803684E+03  0.00000000000E+00 0. -1.
</event>
<event>
 6    1  0.2809573E-005  0.1286849E+03  0.7818608E-02  0.1262871E+00
          2   -1    0    0  502    0  0.00000000000E+00  0.00000000000E+00  0.30054845680E+03  0.30054845680E+03  0.00000000000E+00 0. -1.
          1   -1    0    0  501    0 -0.00000000000E+00 -0.00000000000E+00 -0.10923168891E+03  0.10923168891E+03  0.00000000000E+00 0. -1.
          2    1    1    2  501    0 -0.38944674385E+02  0.10268700600E+02 -0.98902647311E+01  0.41472294504E+02  0.00000000000E+00 0. -1.
          1    1    1    2  502    0  0.15585308907E+02 -0.24459637461E+02 -0.65611093005E+02  0.71735564707E+02  0.00000000000E+00 0. -1.
         22    1    1    2    0    0  0.87916268994E+01  0.68503394098E+02  0.18337637331E+03  0.19595127454E+03  0.00000000000E+00 0. -1.
         22    1    1    2    0    0  0.14567738578E+02 -0.54312457236E+02  0.83441752313E+02  0.10062101196E+03  0.00000000000E+00 0. -1.
</event>
<event>
 6    1  0.2809573E-005  0.1788859E+03  0.7818608E-02  0.1268673E+00
          2   -1    0    0  502    0  0.00000000000E+00  0.00000000000E+00  0.23057145512E+03  0.23057145512E+03  0.00000000000E+00 0.  1.
          1   -1    0    0  501    0 -0.00000000000E+00 -0.00000000000E+00 -0.16177625448E+03  0.16177625448E+03  0.00000000000E+00 0. -1.
          2    1    1    2  501    0 -0.37202636863E+02 -0.29020533299E+02  0.59622187629E+01  0.47558128591E+02  0.00000000000E+00 0.  1.
          1    1    1    2  502    0  0.89492156431E+02 -0.66120842400E+02 -0.70566994234E+02  0.13175929773E+03  0.00000000000E+00 0. -1.
         22    1    1    2    0    0 -0.36188512548E+02  0.10989278860E+03  0.14717847343E+03  0.18720987279E+03  0.00000000000E+00 0.  1.
         22    1    1    2    0    0 -0.16101007020E+02 -0.14751412904E+02 -0.13778497324E+02  0.25820410497E+02  0.00000000000E+00 0.  1.
</event>
<event>
 6    1  0.2809573E-005  0.2283475E+03  0.7818608E-02  0.1180047E+00
          2   -1    0    0  502    0  0.00000000000E+00  0.00000000000E+00  0.11121414737E+04  0.11121414737E+04  0.00000000000E+00 0. -1.
          1   -1    0    0  501    0 -0.00000000000E+00 -0.00000000000E+00 -0.35943822539E+03  0.35943822539E+03  0.00000000000E+00 0.  1.
          2    1    1    2  501    0  0.90040903205E+02  0.21116067872E+02  0.22034604341E+03  0.23896784599E+03  0.00000000000E+00 0. -1.
          1    1    1    2  502    0 -0.20146644627E+03 -0.49351108925E+02 -0.31015711979E+03  0.37312424188E+03  0.00000000000E+00 0.  1.
         22    1    1    2    0    0  0.16207761584E+02  0.64759335665E+02  0.28415546281E+03  0.29189174386E+03  0.00000000000E+00 0. -1.
         22    1    1    2    0    0  0.95217781481E+02 -0.36524294612E+02  0.55835886187E+03  0.56759586735E+03  0.00000000000E+00 0. -1.
</event>
<event>
 6    1  0.2809573E-005  0.1835799E+03  0.7818608E-02  0.1210951E+00
          2   -1    0    0  502    0  0.00000000000E+00  0.00000000000E+00  0.32579516386E+03  0.32579516386E+03  0.00000000000E+00 0.  1.
          1   -1    0    0  501    0 -0.00000000000E+00 -0.00000000000E+00 -0.15247764876E+03  0.15247764876E+03  0.00000000000E+00 0.  1.
          2    1    1    2  501    0 -0.63220086671E+02  0.31248188359E+02  0.84107999738E+01  0.71020913755E+02  0.00000000000E+00 0.  1.
          1    1    1    2  502    0  0.11470407790E+03 -0.32564145866E+02 -0.68795264201E+02  0.13765986147E+03  0.00000000000E+00 0.  1.
         22    1    1    2    0    0 -0.24212615330E+02  0.60660257862E+02  0.85130382518E+02  0.10729911301E+03  0.00000000000E+00 0.  1.
         22    1    1    2    0    0 -0.27271375902E+02 -0.59344300355E+02  0.14857159680E+03  0.16229292438E+03  0.00000000000E+00 0.  1.
</event>
<event>
 6    1  0.2809573E-005  0.9247337E+02  0.7818608E-02  0.1304589E+00
          2   -1    0    0  502    0  0.00000000000E+00  0.00000000000E+00  0.16018259249E+02  0.16018259249E+02  0.00000000000E+00 0. -1.
          1   -1    0    0  501    0 -0.00000000000E+00 -0.00000000000E+00 -0.64307539612E+03  0.64307539612E+03  0.00000000000E+00 0. -1.
          2    1    1    2  501    0 -0.12690470542E+02 -0.27891243415E+02 -0.18047856870E+03  0.18306141937E+03  0.00000000000E+00 0. -1.
          1    1    1    2  502    0 -0.76545765845E+01 -0.23001891167E+02 -0.41528496581E+02  0.48086334527E+02  0.00000000000E+00 0. -1.
         22    1    1    2    0    0  0.68505088535E+02  0.57567387914E+02 -0.26236742912E+03  0.27720681660E+03  0.00000000000E+00 0. -1.
         22    1    1    2    0    0 -0.48160041408E+02 -0.66742533324E+01 -0.14268264247E+03  0.15073908487E+03  0.00000000000E+00 0. -1.
</event>
<event>
 6    1  0.2809573E-005  0.1012419E+03  0.7818608E-02  0.1303124E+00
          2   -1    0    0  502    0  0.00000000000E+00  0.00000000000E+00  0.28666649578E+03  0.28666649578E+03  0.00000000000E+00 0. -1.
          1   -1    0    0  501    0 -0.00000000000E+00 -0.00000000000E+00 -0.39023127995E+02  0.39023127995E+02  0.00000000000E+00 0. -1.
          2    1    1    2  501    0  0.37728975795E+01  0.37537678032E+02  0.31979334980E+02  0.49456949905E+02  0.00000000000E+00 0. -1.
          1    1    1    2  502    0 -0.19232262532E+02  0.10765295634E+02 -0.18923559754E+01  0.22121313779E+02  0.00000000000E+00 0. -1.
         22    1    1    2    0    0 -0.36186207237E+02 -0.48171739993E+02  0.48507777785E+02  0.77349613016E+02  0.00000000000E+00 0. -1.
         22    1    1    2    0    0  0.51645572189E+02 -0.13123367266E+00  0.16904861099E+03  0.17676174707E+03  0.00000000000E+00 0.  1.
</event>
<event>
 6    1  0.2809573E-005  0.1446018E+03  0.7818608E-02  0.1261490E+00
          2   -1    0    0  502    0  0.00000000000E+00  0.00000000000E+00  0.83937308836E+03  0.83937308836E+03  0.00000000000E+00 0.  1.
          1   -1    0    0  501    0 -0.00000000000E+00 -0.00000000000E+00 -0.50912374149E+02  0.50912374149E+02  0.00000000000E+00 0.  1.
          2    1    1    2  501    0 -0.42045623904E+01  0.66375688949E+02  0.10689268806E+02  0.67362236423E+02  0.00000000000E+00 0.  1.
          1    1    1    2  502    0 -0.21198566908E+02 -0.93275438958E+02  0.55188257856E+03  0.56011076339E+03  0.00000000000E+00 0.  1.
         22    1    1    2    0    0  0.93577215465E+01 -0.46626443111E+02  0.14374298673E+03  0.15140554278E+03  0.00000000000E+00 0.  1.
         22    1    1    2    0    0  0.16045407752E+02  0.73526193120E+02  0.82145880112E+02  0.11140691991E+03  0.00000000000E+00 0.  1.
</event>
<event>
 6    1  0.2809573E-005  0.1573234E+03  0.7818608E-02  0.1323401E+00
          2   -1    0    0  502    0  0.00000000000E+00  0.00000000000E+00  0.44228521374E+02  0.44228521374E+02  0.00000000000E+00 0.  1.
          1   -1    0    0  501    0 -0.00000000000E+00 -0.00000000000E+00 -0.48435861846E+03  0.48435861846E+03  0.00000000000E+00 0. -1.
          2    1    1    2  501    0  0.68639249712E+02  0.45306019900E+02 -0.71938490441E+02  0.10926631891E+03  0.00000000000E+00 0.  1.
          1    1    1    2  502    0 -0.39538556916E+02 -0.86402031435E+01 -0.20674035825E+03  0.21066448757E+03  0.00000000000E+00 0. -1.
         22    1    1    2    0    0 -0.28514084258E+01  0.11270328847E+02  0.17799179141E+02  0.21259388995E+02  0.00000000000E+00 0. -1.
         22    1    1    2    0    0 -0.26249284370E+02 -0.47936145604E+02 -0.17925042753E+03  0.18739694436E+03  0.00000000000E+00 0.  1.
</event>
<event>
 6    1  0.2809573E-005  0.9007683E+02  0.7818608E-02  0.1304954E+00
          2   -1    0    0  502    0  0.00000000000E+00  0.00000000000E+00  0.45690396283E+02  0.45690396283E+02  0.00000000000E+00 0. -1.
          1   -1    0    0  501    0 -0.00000000000E+00 -0.00000000000E+00 -0.71717275614E+03  0.71717275614E+03  0.00000000000E+00 0. -1.
          2    1    1    2  501    0 -0.48234640416E+02  0.17231196360E+02 -0.63392269849E+02  0.81498923555E+02  0.00000000000E+00 0. -1.
          1    1    1    2  502    0  0.26560080692E+02 -0.84083072272E+02 -0.47900801775E+03  0.48705654908E+03  0.00000000000E+00 0. -1.
         22    1    1    2    0    0  0.66509175109E+02  0.74213129489E+02 -0.84575462007E+02  0.13070603558E+03  0.00000000000E+00 0. -1.
         22    1    1    2    0    0 -0.44834615385E+02 -0.73612535765E+01 -0.44506610250E+02  0.63601644215E+02  0.00000000000E+00 0.  1.
</event>
<event>
 6    1  0.2809573E-005  0.1622960E+03  0.7818608E-02  0.1228546E+00
          2   -1    0    0  502    0  0.00000000000E+00  0.00000000000E+00  0.39659366499E+03  0.39659366499E+03  0.00000000000E+00 0.  1.
          1   -1    0    0  501    0 -0.00000000000E+00 -0.00000000000E+00 -0.19755273024E+04  0.19755273024E+04  0.00000000000E+00 0.  1.
          2    1    1    2  501    0  0.45511589488E+02  0.34469437288E+01  0.12998708139E+02  0.47456850001E+02  0.00000000000E+00 0.  1.
          1    1    1    2  502    0  0.39689418061E+02  0.19849071273E+02 -0.19413338646E+04  0.19418409846E+04  0.00000000000E+00 0.  1.
         22    1    1    2    0    0 -0.66182143333E+02  0.47010182889E+02  0.21739054905E+03  0.23205319262E+03  0.00000000000E+00 0.  1.
         22    1    1    2    0    0 -0.19018864216E+02 -0.70306197891E+02  0.13201097002E+03  0.15076994018E+03  0.00000000000E+00 0.  1.
</event>
<event>
 6    1  0.2809573E-005  0.2214068E+03  0.7818608E-02  0.1229023E+00
          2   -1    0    0  502    0  0.00000000000E+00  0.00000000000E+00  0.14106091271E+04  0.14106091271E+04  0.00000000000E+00 0. -1.
          1   -1    0    0  501    0 -0.00000000000E+00 -0.00000000000E+00 -0.81038928103E+02  0.81038928103E+02  0.00000000000E+00 0. -1.
          2    1    1    2  501    0 -0.88835626919E+01  0.59566629562E+02 -0.15313681993E+02  0.62141853043E+02  0.00000000000E+00 0. -1.
          1    1    1    2  502    0  0.12615411115E+03 -0.13945331600E+03  0.11165347081E+04  0.11322596175E+04  0.00000000000E+00 0. -1.
         22    1    1    2    0    0 -0.17628183898E+02 -0.18390154463E+02  0.11314177159E+03  0.11597418302E+03  0.00000000000E+00 0.  1.
         22    1    1    2    0    0 -0.99642364564E+02  0.98276840901E+02  0.11520740132E+03  0.18127240163E+03  0.00000000000E+00 0. -1.
</event>
<event>
 6    1  0.2809573E-005  0.1055583E+03  0.7818608E-02  0.1290922E+00
          2   -1    0    0  502    0  0.00000000000E+00  0.00000000000E+00  0.73465736964E+02  0.73465736964E+02  0.00000000000E+00 0.  1.
          1   -1    0    0  501    0 -0.00000000000E+00 -0.00000000000E+00 -0.25012638358E+03  0.25012638358E+03  0.00000000000E+00 0. -1.
          2    1    1    2  501    0  0.57204409274E+02  0.23217088886E+02 -0.39164730944E+02  0.73111242683E+02  0.00000000000E+00 0.  1.
          1    1    1    2  502    0 -0.18226498678E+02  0.48174381754E+02 -0.62920993477E+02  0.81314375923E+02  0.00000000000E+00 0. -1.
         22    1    1    2    0    0 -0.46302853583E+02 -0.56962027452E+02  0.17677326048E+02  0.75505726124E+02  0.00000000000E+00 0. -1.
         22    1    1    2    0    0  0.73249429869E+01 -0.14429443188E+02 -0.92252248245E+02  0.93660775818E+02  0.00000000000E+00 0.  1.
</event>
<event>
 6    1  0.2809573E-005  0.7727196E+02  0.7818608E-02  0.1339043E+00
          2   -1    0    0  502    0  0.00000000000E+00  0.00000000000E+00  0.25748656762E+03  0.25748656762E+03  0.00000000000E+00 0.  1.
          1   -1    0    0  501    0 -0.00000000000E+00 -0.00000000000E+00 -0.50241930064E+02  0.50241930064E+02  0.00000000000E+00 0.  1.
          2    1    1    2  501    0  0.25543251781E+02  0.66392839428E+01  0.14564223727E+02  0.30143895163E+02  0.00000000000E+00 0.  1.
          1    1    1    2  502    0  0.22402300676E+02 -0.45732183625E+02  0.85383916972E+02  0.99416844509E+02  0.00000000000E+00 0.  1.
         22    1    1    2    0    0  0.40716862493E+02 -0.88952373080E+00  0.52793777831E+02  0.66677110926E+02  0.00000000000E+00 0.  1.
         22    1    1    2    0    0 -0.88662414950E+02  0.39982423413E+02  0.54502719027E+02  0.11149064709E+03  0.00000000000E+00 0.  1.
</event>
<event>
 6    1  0.2809573E-005  0.1017411E+03  0.7818608E-02  0.1291855E+00
          2   -1    0    0  502    0  0.00000000000E+00  0.00000000000E+00  0.46579348492E+02  0.46579348492E+02  0.00000000000E+00 0. -1.
          1   -1    0    0  501    0 -0.00000000000E+00 -0.00000000000E+00 -0.10233920999E+04  0.10233920999E+04  0.00000000000E+00 0.  1.
          2    1    1    2  501    0  0.31344915799E+02  0.41953063656E+02 -0.12259215145E+02  0.53785236381E+02  0.00000000000E+00 0. -1.
          1    1    1    2  502    0  0.14890615685E+02  0.15807020905E+02 -0.79491342834E+03  0.79521000428E+03  0.00000000000E+00 0.  1.
         22    1    1    2    0    0 -0.33697026449E+02  0.29494171132E+02 -0.24185930335E+02  0.50895529749E+02  0.00000000000E+00 0. -1.
         22    1    1    2    0    0 -0.12538505035E+02 -0.87254255692E+02 -0.14545417756E+03  0.17008067796E+03  0.00000000000E+00 0. -1.
</event>
<event>
 6    1  0.2809573E-005  0.6884865E+02  0.7818608E-02  0.1373727E+00
          2   -1    0    0  502    0  0.00000000000E+00  0.00000000000E+00  0.94871476148E+02  0.94871476148E+02  0.00000000000E+00 0.  1.
          1   -1    0    0  501    0 -0.00000000000E+00 -0.00000000000E+00 -0.62000493394E+03  0.62000493394E+03  0.00000000000E+00 0. -1.
          2    1    1    2  501    0 -0.15672916981E+02 -0.28146771367E+02 -0.86221474778E+01  0.33349999883E+02  0.00000000000E+00 0.  1.
          1    1    1    2  502    0 -0.33219169842E+01  0.29258858153E+02 -0.55148245614E+03  0.55226806475E+03  0.00000000000E+00 0. -1.
         22    1    1    2    0    0  0.19812581566E+02 -0.54469920941E+02 -0.10793933641E+02  0.58957778783E+02  0.00000000000E+00 0. -1.
         22    1    1    2    0    0 -0.81774760075E+00  0.53357834155E+02  0.45765079463E+02  0.70300566677E+02  0.00000000000E+00 0. -1.
</event>
<event>
 6    1  0.2809573E-005  0.1134931E+03  0.7818608E-02  0.1270441E+00
          2   -1    0    0  502    0  0.00000000000E+00  0.00000000000E+00  0.29818119276E+02  0.29818119276E+02  0.00000000000E+00 0.  1.
          1   -1    0    0  501    0 -0.00000000000E+00 -0.00000000000E+00 -0.20649165268E+04  0.20649165268E+04  0.00000000000E+00 0. -1.
          2    1    1    2  501    0 -0.48628182578E+02  0.15563846017E+02 -0.14957015408E+03  0.15804481781E+03  0.00000000000E+00 0.  1.
          1    1    1    2  502    0 -0.10696132324E+02 -0.67247401491E+02 -0.16845885729E+04  0.16859641990E+04  0.00000000000E+00 0. -1.
         22    1    1    2    0    0  0.75409965613E+02 -0.18084898751E+02 -0.11742286495E+03  0.14071906655E+03  0.00000000000E+00 0.  1.
         22    1    1    2    0    0 -0.16085650711E+02  0.69768454225E+02 -0.83516815614E+02  0.11000656278E+03  0.00000000000E+00 0.  1.
</event>
<event>
 6    1  0.2809573E-005  0.1056977E+03  0.7818608E-02  0.1327203E+00
          2   -1    0    0  502    0  0.00000000000E+00  0.00000000000E+00  0.22566277383E+03  0.22566277383E+03  0.00000000000E+00 0. -1.
          1   -1    0    0  501    0 -0.00000000000E+00 -0.00000000000E+00 -0.32988688309E+03  0.32988688309E+03  0.00000000000E+00 0.  1.
          2    1    1    2  501    0  0.20779648283E+02 -0.62001060315E+02 -0.85141687456E+02  0.10735470277E+03  0.00000000000E+00 0. -1.
          1    1    1    2  502    0 -0.28759623380E+02  0.11977143176E+03 -0.19002643919E+03  0.22645608712E+03  0.00000000000E+00 0.  1.
         22    1    1    2    0    0  0.66679318199E+01 -0.35210563756E+02  0.18927700899E+03  0.19263964091E+03  0.00000000000E+00 0. -1.
         22    1    1    2    0    0  0.13120432775E+01 -0.22559807685E+02 -0.18332991599E+02  0.29099226129E+02  0.00000000000E+00 0.  1.
</event>
<event>
 6    1  0.2809573E-005  0.1352743E+03  0.7818608E-02  0.1225016E+00
          2   -1    0    0  502    0  0.00000000000E+00  0.00000000000E+00  0.81350650718E+03  0.81350650718E+03  0.00000000000E+00 0. -1.
          1   -1    0    0  501    0 -0.00000000000E+00 -0.00000000000E+00 -0.64235833668E+02  0.64235833668E+02  0.00000000000E+00 0. -1.
          2    1    1    2  501    0 -0.86265588584E+02  0.80448268693E+02  0.54481801969E+02  0.12993052934E+03  0.00000000000E+00 0. -1.
          1    1    1    2  502    0  0.32758983094E+01 -0.78792307795E+02  0.46672187111E+03  0.47333736833E+03  0.00000000000E+00 0. -1.
         22    1    1    2    0    0 -0.22385978049E+02  0.34582593904E+02  0.65700849700E+02  0.77547981699E+02  0.00000000000E+00 0.  1.
         22    1    1    2    0    0  0.10537566832E+03 -0.36238554801E+02  0.16236615073E+03  0.19692646149E+03  0.00000000000E+00 0. -1.
</event>
<event>
 6    1  0.2809573E-005  0.1099075E+03  0.7818608E-02  0.1275280E+00
          2   -1    0    0  502    0  0.00000000000E+00  0.00000000000E+00  0.35736559838E+02  0.35736559838E+02  0.00000000000E+00 0.  1.
          1   -1    0    0  501    0 -0.00000000000E+00 -0.00000000000E+00 -0.13699564016E+04  0.13699564016E+04  0.00000000000E+00 0.  1.
          2    1    1    2  501    0 -0.65854695551E+02 -0.59425103477E+01 -0.96457080736E+02  0.11694495620E+03  0.00000000000E+00 0.  1.
          1    1    1    2  502    0  0.11143076752E+02 -0.37999386025E+02 -0.10567077336E+04  0.10574494578E+04  0.00000000000E+00 0.  1.
         22    1    1    2    0    0  0.55657294271E+02  0.68573942687E+02 -0.57680010846E+02  0.10548508744E+03  0.00000000000E+00 0.  1.
         22    1    1    2    0    0 -0.94567547249E+00 -0.24632046315E+02 -0.12337501652E+03  0.12581345997E+03  0.00000000000E+00 0.  1.
</event>
<event>
 6    1  0.2809573E-005  0.1017364E+03  0.7818608E-02  0.1287983E+00
          2   -1    0    0  502    0  0.00000000000E+00  0.00000000000E+00  0.12407020380E+03  0.12407020380E+03  0.00000000000E+00 0.  1.
          1   -1    0    0  501    0 -0.00000000000E+00 -0.00000000000E+00 -0.16958505694E+03  0.16958505694E+03  0.00000000000E+00 0.  1.
          2    1    1    2  501    0  0.46050425840E+02 -0.34421967538E+01 -0.50132215735E+02  0.68159588416E+02  0.00000000000E+00 0.  1.
          1    1    1    2  502    0 -0.30233126078E+02  0.43234504499E+02 -0.57724809353E+02  0.78201137502E+02  0.00000000000E+00 0.  1.
         22    1    1    2    0    0  0.38688016236E+02  0.24559433714E+02  0.68297075577E+01  0.46331126578E+02  0.00000000000E+00 0.  1.
         22    1    1    2    0    0 -0.54505315998E+02 -0.64351741459E+02  0.55512464396E+02  0.10096340824E+03  0.00000000000E+00 0.  1.
</event>
<event>
 6    1  0.2809573E-005  0.1229123E+03  0.7818608E-02  0.1299384E+00
          2   -1    0    0  502    0  0.00000000000E+00  0.00000000000E+00  0.30433733765E+03  0.30433733765E+03  0.00000000000E+00 0. -1.
          1   -1    0    0  501    0 -0.00000000000E+00 -0.00000000000E+00 -0.95750267352E+02  0.95750267352E+02  0.00000000000E+00 0. -1.
          2    1    1    2  501    0 -0.28577970429E+02  0.68501022862E+01 -0.85596796491E+01  0.30608698288E+02  0.00000000000E+00 0. -1.
          1    1    1    2  502    0  0.12658679844E+03  0.42473779759E+02  0.10035797909E+03  0.16703282154E+03  0.00000000000E+00 0. -1.
         22    1    1    2    0    0 -0.61413826066E+02 -0.58223418976E+02  0.53273846573E+01  0.84793900586E+02  0.00000000000E+00 0. -1.
         22    1    1    2    0    0 -0.36595001940E+02  0.88995369310E+01  0.11146138620E+03  0.11765218459E+03  0.00000000000E+00 0. -1.
</event>
<event>
 6    1  0.2809573E-005  0.5522035E+02  0.7818608E-02  0.1426537E+00
          2   -1    0    0  502    0  0.00000000000E+00  0.00000000000E+00  0.17467111389E+03  0.17467111389E+03  0.00000000000E+00 0. -1.
          1   -1    0    0  501    0 -0.00000000000E+00 -0.00000000000E+00 -0.27992918331E+03  0.27992918331E+03  0.00000000000E+00 0. -1.
          2    1    1    2  501    0 -0.55785577072E+02 -0.30994971347E+02 -0.37346129119E+02  0.73942222162E+02  0.00000000000E+00 0. -1.
          1    1    1    2  502    0  0.28308734800E+02  0.17987673049E+02 -0.19621577053E+03  0.19906172272E+03  0.00000000000E+00 0. -1.
         22    1    1    2    0    0 -0.19223818799E+02  0.28495655827E+01 -0.18729774081E+02  0.26990362546E+02  0.00000000000E+00 0. -1.
         22    1    1    2    0    0  0.46700661071E+02  0.10157732715E+02  0.14703360431E+03  0.15460598977E+03  0.00000000000E+00 0. -1.
</event>
<event>
 6    1  0.2809573E-005  0.8397491E+02  0.7818608E-02  0.1321111E+00
          2   -1    0    0  502    0  0.00000000000E+00  0.00000000000E+00  0.46979764198E+03  0.46979764198E+03  0.00000000000E+00 0.  1.
          1   -1    0    0  501    0 -0.00000000000E+00 -0.00000000000E+00 -0.10372658947E+03  0.10372658947E+03  0.00000000000E+00 0.  1.
          2    1    1    2  501    0  0.41860716116E+02  0.35717612229E+01  0.11513344989E+03  0.12255932569E+03  0.00000000000E+00 0.  1.
          1    1    1    2  502    0 -0.40636656247E+02  0.19504151286E+02 -0.82395592865E+02  0.93919026145E+02  0.00000000000E+00 0.  1.
         22    1    1    2    0    0 -0.58343046381E+02 -0.38549756228E+01  0.97990089111E+02  0.11410884918E+03  0.00000000000E+00 0.  1.
         22    1    1    2    0    0  0.57118986512E+02 -0.19220936886E+02  0.23534310638E+03  0.24293703043E+03  0.00000000000E+00 0. -1.
</event>
<event>
 6    1  0.2809573E-005  0.1631486E+03  0.7818608E-02  0.1300522E+00
          2   -1    0    0  502    0  0.00000000000E+00  0.00000000000E+00  0.11753139744E+03  0.11753139744E+03  0.00000000000E+00 0.  1.
          1   -1    0    0  501    0 -0.00000000000E+00 -0.00000000000E+00 -0.28654875273E+03  0.28654875273E+03  0.00000000000E+00 0.  1.
          2    1    1    2  501    0 -0.55025025510E+02 -0.42365800255E+02 -0.20303654659E+01  0.69474720924E+02  0.00000000000E+00 0.  1.
          1    1    1    2  502    0 -0.16710138757E+02  0.11686987190E+02 -0.18499843848E+03  0.18611887773E+03  0.00000000000E+00 0.  1.
         22    1    1    2    0    0 -0.13702781353E+02 -0.78051658182E+01  0.47661263541E+02  0.50202418992E+02  0.00000000000E+00 0.  1.
         22    1    1    2    0    0  0.85437945620E+02  0.38483978883E+02 -0.29649814890E+02  0.98284132521E+02  0.00000000000E+00 0.  1.
</event>
<event>
 6    1  0.2809573E-005  0.1644855E+03  0.7818608E-02  0.1205527E+00
          2   -1    0    0  502    0  0.00000000000E+00  0.00000000000E+00  0.57889479875E+03  0.57889479875E+03  0.00000000000E+00 0.  1.
          1   -1    0    0  501    0 -0.00000000000E+00 -0.00000000000E+00 -0.53359694856E+03  0.53359694856E+03  0.00000000000E+00 0.  1.
          2    1    1    2  501    0 -0.96693309812E+02  0.15208935819E+03  0.18785971062E+03  0.26033063575E+03  0.00000000000E+00 0.  1.
          1    1    1    2  502    0  0.30936305993E+01 -0.14663117581E+03 -0.46908477125E+03  0.49147817336E+03  0.00000000000E+00 0.  1.
         22    1    1    2    0    0  0.66487049243E+01  0.47847457651E+02  0.74338732996E+02  0.88655691889E+02  0.00000000000E+00 0.  1.
         22    1    1    2    0    0  0.86950974288E+02 -0.53305640029E+02  0.25218417783E+03  0.27202724631E+03  0.00000000000E+00 0.  1.
</event>
<event>
 6    1  0.2809573E-005  0.3386361E+03  0.7818608E-02  0.1147767E+00
          2   -1    0    0  502    0  0.00000000000E+00  0.00000000000E+00  0.91948360466E+03  0.91948360466E+03  0.00000000000E+00 0. -1.
          1   -1    0    0  501    0 -0.00000000000E+00 -0.00000000000E+00 -0.96619316355E+02  0.96619316355E+02  0.00000000000E+00 0. -1.
          2    1    1    2  501    0  0.21235541339E+03  0.22912771648E+01  0.13344259330E+03  0.25081267363E+03  0.00000000000E+00 0. -1.
          1    1    1    2  502    0 -0.10797694986E+03  0.36802190692E+02  0.49358527762E+03  0.50659633755E+03  0.00000000000E+00 0. -1.
         22    1    1    2    0    0 -0.12152684889E+03  0.53243834165E+00  0.11639034648E+03  0.16827290705E+03  0.00000000000E+00 0. -1.
         22    1    1    2    0    0  0.17148385367E+02 -0.39625906198E+02  0.79446070904E+02  0.90421002786E+02  0.00000000000E+00 0. -1.
</event>
<event>
 6    1  0.2809573E-005  0.9599056E+02  0.7818608E-02  0.1295419E+00
          2   -1    0    0  502    0  0.00000000000E+00  0.00000000000E+00  0.81859760862E+03  0.81859760862E+03  0.00000000000E+00 0. -1.
          1   -1    0    0  501    0 -0.00000000000E+00 -0.00000000000E+00 -0.48174694622E+02  0.48174694622E+02  0.00000000000E+00 0. -1.
          2    1    1    2  501    0  0.40405903718E+02 -0.34790780740E+02  0.84779159532E+00  0.53326862184E+02  0.00000000000E+00 0. -1.
          1    1    1    2  502    0 -0.11651727889E+03  0.27093525258E+02  0.34526355279E+03  0.36540013174E+03  0.00000000000E+00 0. -1.
         22    1    1    2    0    0  0.99752136458E+02  0.21077213395E+02  0.39557144013E+03  0.40849908433E+03  0.00000000000E+00 0. -1.
         22    1    1    2    0    0 -0.23640761286E+02 -0.13379957913E+02  0.28740129479E+02  0.39546224983E+02  0.00000000000E+00 0.  1.
</event>
<event>
 6    1  0.2809573E-005  0.1381409E+03  0.7818608E-02  0.1253458E+00
          2   -1    0    0  502    0  0.00000000000E+00  0.00000000000E+00  0.43172343871E+03  0.43172343871E+03  0.00000000000E+00 0. -1.
          1   -1    0    0  501    0 -0.00000000000E+00 -0.00000000000E+00 -0.40119845271E+03  0.40119845271E+03  0.00000000000E+00 0. -1.
          2    1    1    2  501    0 -0.79856047982E+02 -0.41576026355E+02 -0.13680164975E+02  0.91064270055E+02  0.00000000000E+00 0. -1.
          1    1    1    2  502    0  0.77771108461E+02  0.11808218196E+03 -0.31993372837E+03  0.34978470172E+03  0.00000000000E+00 0. -1.
         22    1    1    2    0    0  0.27280674386E+02 -0.57801695155E+02  0.35305396184E+03  0.35879293629E+03  0.00000000000E+00 0. -1.
         22    1    1    2    0    0 -0.25195734865E+02 -0.18704460446E+02  0.11084917504E+02  0.33279983354E+02  0.00000000000E+00 0.  1.
</event>
<event>
 6    1  0.2809573E-005  0.1560437E+03  0.7818608E-02  0.1281460E+00
          2   -1    0    0  502    0  0.00000000000E+00  0.00000000000E+00  0.15894715235E+03  0.15894715235E+03  0.00000000000E+00 0. -1.
          1   -1    0    0  501    0 -0.00000000000E+00 -0.00000000000E+00 -0.10722566741E+03  0.10722566741E+03  0.00000000000E+00 0. -1.
          2    1    1    2  501    0 -0.38946752281E+02  0.28415641155E+02 -0.18800203249E+02  0.51746940177E+02  0.00000000000E+00 0. -1.
          1    1    1    2  502    0 -0.90500765937E+01 -0.21680138648E+02 -0.38152255588E+02  0.44805433874E+02  0.00000000000E+00 0. -1.
         22    1    1    2    0    0  0.84270777055E+01  0.33230514134E+02 -0.12131058649E+02  0.36365440905E+02  0.00000000000E+00 0. -1.
         22    1    1    2    0    0  0.39569751169E+02 -0.39966016641E+02  0.12080500243E+03  0.13325500481E+03  0.00000000000E+00 0. -1.
</event>
<event>
 6    1  0.2809573E-005  0.8146513E+02  0.7818608E-02  0.1353070E+00
          2   -1    0    0  502    0  0.00000000000E+00  0.00000000000E+00  0.16110847150E+03  0.16110847150E+03  0.00000000000E+00 0. -1.
          1   -1    0    0  501    0 -0.00000000000E+00 -0.00000000000E+00 -0.22693270617E+03  0.22693270617E+03  0.00000000000E+00 0. -1.
          2    1    1    2  501    0 -0.27710453094E+02 -0.15915497909E+02  0.70479919193E+01  0.32723790649E+02  0.00000000000E+00 0. -1.
          1    1    1    2  502    0 -0.22753588657E+01  0.60906839505E+02 -0.17305982513E+03  0.18347894547E+03  0.00000000000E+00 0. -1.
         22    1    1    2    0    0 -0.23796446464E+01 -0.83107551698E+02  0.36329944372E+02  0.90732533945E+02  0.00000000000E+00 0. -1.
         22    1    1    2    0    0  0.32365456606E+02  0.38116210103E+02  0.63857654159E+02  0.81105907607E+02  0.00000000000E+00 0. -1.
</event>
<event>
 6    1  0.2809573E-005  0.2200785E+03  0.7818608E-02  0.1200125E+00
          2   -1    0    0  502    0  0.00000000000E+00  0.00000000000E+00  0.37951248505E+03  0.37951248505E+03  0.00000000000E+00 0. -1.
          1   -1    0    0  501    0 -0.00000000000E+00 -0.00000000000E+00 -0.34704328266E+03  0.34704328266E+03  0.00000000000E+00 0. -1.
          2    1    1    2  501    0  0.10889927298E+03 -0.17616348330E+03 -0.23348788475E+03  0.31210449665E+03  0.00000000000E+00 0. -1.
          1    1    1    2  502    0 -0.85176797058E+02  0.16025840470E+03  0.10980643715E+03  0.21212094822E+03  0.00000000000E+00 0. -1.
         22    1    1    2    0    0 -0.30901427841E+02  0.36537731846E+02  0.16990493640E+03  0.17651513109E+03  0.00000000000E+00 0. -1.
         22    1    1    2    0    0  0.71789519216E+01 -0.20632653251E+02 -0.13754286404E+02  0.25815191755E+02  0.00000000000E+00 0.  1.
</event>
<event>
 6    1  0.2809573E-005  0.1758860E+03  0.7818608E-02  0.1305059E+00
          2   -1    0    0  502    0  0.00000000000E+00  0.00000000000E+00  0.21083040017E+02  0.21083040017E+02  0.00000000000E+00 0. -1.
          1   -1    0    0  501    0 -0.00000000000E+00 -0.00000000000E+00 -0.17717497264E+04  0.17717497264E+04  0.00000000000E+00 0. -1.
          2    1    1    2  501    0 -0.27744979345E+02 -0.34423972522E+02 -0.15683201622E+03  0.16294500629E+03  0.00000000000E+00 0. -1.
          1    1    1    2  502    0  0.15747864739E+03  0.22328272560E+02 -0.85078409261E+03  0.86552391555E+03  0.00000000000E+00 0. -1.
         22    1    1    2    0    0 -0.83453881406E+01 -0.80284224263E+01 -0.39801869083E+00  0.11587039689E+02  0.00000000000E+00 0.  1.
         22    1    1    2    0    0 -0.12138827991E+03  0.20124122389E+02 -0.74265255884E+03  0.75277680487E+03  0.00000000000E+00 0. -1.
</event>
<event>
 6    1  0.2809573E-005  0.1503637E+03  0.7818608E-02  0.1298338E+00
          2   -1    0    0  502    0  0.00000000000E+00  0.00000000000E+00  0.19367616633E+03  0.19367616633E+03  0.00000000000E+00 0. -1.
          1   -1    0    0  501    0 -0.00000000000E+00 -0.00000000000E+00 -0.37140875319E+03  0.37140875319E+03  0.00000000000E+00 0. -1.
          2    1    1    2  501    0 -0.13265625946E+02  0.21773570373E+02 -0.18666794300E+02  0.31599278599E+02  0.00000000000E+00 0. -1.
          1    1    1    2  502    0  0.30849632711E+02  0.40033993221E+02 -0.31925834925E+03  0.32323414736E+03  0.00000000000E+00 0. -1.
         22    1    1    2    0    0  0.20556005917E+02  0.41588847227E+01 -0.10403685180E+02  0.23411159021E+02  0.00000000000E+00 0. -1.
         22    1    1    2    0    0 -0.38140012683E+02 -0.65966448317E+02  0.17059624188E+03  0.18684033455E+03  0.00000000000E+00 0. -1.
</event>
<event>
 6    1  0.2809573E-005  0.5694201E+02  0.7818608E-02  0.1413289E+00
          2   -1    0    0  502    0  0.00000000000E+00  0.00000000000E+00  0.12623349544E+03  0.12623349544E+03  0.00000000000E+00 0. -1.
          1   -1    0    0  501    0 -0.00000000000E+00 -0.00000000000E+00 -0.29470670805E+03  0.29470670805E+03  0.00000000000E+00 0.  1.
          2    1    1    2  501    0  0.35518993023E+02  0.14628892717E+02  0.72818421569E+02  0.82329374389E+02  0.00000000000E+00 0. -1.
          1    1    1    2  502    0  0.28872993983E+02 -0.11415594264E+02 -0.18174376970E+03  0.18437668887E+03  0.00000000000E+00 0.  1.
         22    1    1    2    0    0  0.10005127697E+02  0.14213044699E+02  0.31130579157E+02  0.35654258912E+02  0.00000000000E+00 0. -1.
         22    1    1    2    0    0 -0.74397114704E+02 -0.17426343152E+02 -0.90678443641E+02  0.11857988132E+03  0.00000000000E+00 0.  1.
</event>
<event>
 6    1  0.2809573E-005  0.3456410E+03  0.7818608E-02  0.1180464E+00
          2   -1    0    0  502    0  0.00000000000E+00  0.00000000000E+00  0.30501840316E+03  0.30501840316E+03  0.00000000000E+00 0.  1.
          1   -1    0    0  501    0 -0.00000000000E+00 -0.00000000000E+00 -0.69448240717E+03  0.69448240717E+03  0.00000000000E+00 0.  1.
          2    1    1    2  501    0  0.29703546134E+02 -0.16385254926E+03  0.15390869170E+02  0.16723288375E+03  0.00000000000E+00 0.  1.
          1    1    1    2  502    0 -0.16289783664E+03  0.26989857547E+03 -0.50610796697E+03  0.59626019526E+03  0.00000000000E+00 0.  1.
         22    1    1    2    0    0  0.14764185451E+03 -0.11849250429E+03  0.75150946042E+02  0.20368175045E+03  0.00000000000E+00 0. -1.
         22    1    1    2    0    0 -0.14447564002E+02  0.12446478087E+02  0.26102147751E+02  0.32325980875E+02  0.00000000000E+00 0.  1.
</event>
<event>
 6    1  0.2809573E-005  0.9423637E+02  0.7818608E-02  0.1307451E+00
          2   -1    0    0  502    0  0.00000000000E+00  0.00000000000E+00  0.22120146499E+03  0.22120146499E+03  0.00000000000E+00 0.  1.
          1   -1    0    0  501    0 -0.00000000000E+00 -0.00000000000E+00 -0.90311652763E+02  0.90311652763E+02  0.00000000000E+00 0.  1.
          2    1    1    2  501    0 -0.23749937128E+02 -0.19546051460E+02 -0.95312272032E+01  0.32201738047E+02  0.00000000000E+00 0.  1.
          1    1    1    2  502    0 -0.23489118314E+02  0.89851435366E+02  0.48203308449E+02  0.10463545318E+03  0.00000000000E+00 0.  1.
         22    1    1    2    0    0  0.71750285360E+02 -0.68326852306E+01  0.75974222657E+02  0.10472283201E+03  0.00000000000E+00 0.  1.
         22    1    1    2    0    0 -0.24511229919E+02 -0.63472698675E+02  0.16243508323E+02  0.69953094513E+02  0.00000000000E+00 0.  1.
</event>
<event>
 6    1  0.2809573E-005  0.1502468E+03  0.7818608E-02  0.1229853E+00
          2   -1    0    0  502    0  0.00000000000E+00  0.00000000000E+00  0.13360060038E+03  0.13360060038E+03  0.00000000000E+00 0.  1.
          1   -1    0    0  501    0 -0.00000000000E+00 -0.00000000000E+00 -0.26249378169E+03  0.26249378169E+03  0.00000000000E+00 0.  1.
          2    1    1    2  501    0  0.76128501875E+02 -0.19477171084E+02 -0.42026109273E+02  0.89112865804E+02  0.00000000000E+00 0.  1.
          1    1    1    2  502    0 -0.61887745138E+01  0.67816391466E+02 -0.13560726095E+03  0.15174548792E+03  0.00000000000E+00 0.  1.
         22    1    1    2    0    0  0.70851822699E+01 -0.10640858688E+02  0.66452053435E+02  0.67670548151E+02  0.00000000000E+00 0. -1.
         22    1    1    2    0    0 -0.77024909631E+02 -0.37698361694E+02 -0.17711864521E+02  0.87565480201E+02  0.00000000000E+00 0.  1.
</event>
<event>
 6    1  0.2809573E-005  0.2008080E+03  0.7818608E-02  0.1259238E+00
          2   -1    0    0  502    0  0.00000000000E+00  0.00000000000E+00  0.51889231013E+02  0.51889231013E+02  0.00000000000E+00 0. -1.
          1   -1    0    0  501    0 -0.00000000000E+00 -0.00000000000E+00 -0.99502921883E+03  0.99502921883E+03  0.00000000000E+00 0. -1.
          2    1    1    2  501    0  0.38003934430E+02  0.79490260186E+02 -0.28967166507E+02  0.92747491783E+02  0.00000000000E+00 0. -1.
          1    1    1    2  502    0 -0.78359248920E+01 -0.58231298161E+02 -0.69454594756E+03  0.69702679939E+03  0.00000000000E+00 0. -1.
         22    1    1    2    0    0  0.18176504627E+02 -0.37585438699E+01  0.10512663564E+02  0.21331386914E+02  0.00000000000E+00 0. -1.
         22    1    1    2    0    0 -0.48344514165E+02 -0.17500418155E+02 -0.23013953732E+03  0.23581277176E+03  0.00000000000E+00 0. -1.
</event>
<event>
 6    1  0.2809573E-005  0.8650845E+02  0.7818608E-02  0.1313938E+00
          2   -1    0    0  502    0  0.00000000000E+00  0.00000000000E+00  0.66778853457E+02  0.66778853457E+02  0.00000000000E+00 0. -1.
          1   -1    0    0  501    0 -0.00000000000E+00 -0.00000000000E+00 -0.92582789283E+03  0.92582789283E+03  0.00000000000E+00 0. -1.
          2    1    1    2  501    0 -0.48870243948E+02  0.25161592895E+02 -0.36195294543E+02  0.65814176646E+02  0.00000000000E+00 0. -1.
          1    1    1    2  502    0  0.30520247054E+02 -0.38714867639E+02 -0.79693538595E+03  0.79845872519E+03  0.00000000000E+00 0. -1.
         22    1    1    2    0    0 -0.50852802351E+02  0.22974163747E+02 -0.97752799251E+01  0.56651353068E+02  0.00000000000E+00 0. -1.
         22    1    1    2    0    0  0.69202799245E+02 -0.94208890029E+01 -0.16143078959E+02  0.71682491386E+02  0.00000000000E+00 0.  1.
</event>
<event>
 6    1  0.2809573E-005  0.6801059E+02  0.7818608E-02  0.1398011E+00
          2   -1    0    0  502    0  0.00000000000E+00  0.00000000000E+00  0.14845043062E+03  0.14845043062E+03  0.00000000000E+00 0. -1.
          1   -1    0    0  501    0 -0.00000000000E+00 -0.00000000000E+00 -0.21884254253E+03  0.21884254253E+03  0.00000000000E+00 0.  1.
          2    1    1    2  501    0  0.38488071836E+02  0.56797406642E+02  0.60942986721E+02  0.91767775964E+02  0.00000000000E+00 0. -1.
          1    1    1    2  502    0 -0.11836525250E+02 -0.53432141283E+02 -0.13844101272E+03  0.14886574843E+03  0.00000000000E+00 0.  1.
         22    1    1    2    0    0 -0.26962937834E+02 -0.30993708408E+02 -0.49106260489E+02  0.64023704960E+02  0.00000000000E+00 0.  1.
         22    1    1    2    0    0  0.31139124798E+00  0.27628443049E+02  0.56212174578E+02  0.62635743794E+02  0.00000000000E+00 0. -1.
</event>
<event>
 6    1  0.2809573E-005  0.2727647E+03  0.7818608E-02  0.1106734E+00
          2   -1    0    0  502    0  0.00000000000E+00  0.00000000000E+00  0.17982176585E+03  0.17982176585E+03  0.00000000000E+00 0. -1.
          1   -1    0    0  501    0 -0.00000000000E+00 -0.00000000000E+00 -0.10698001980E+04  0.10698001980E+04  0.00000000000E+00 0. -1.
          2    1    1    2  501    0  0.17457397173E+03  0.38569771588E+02 -0.20062300957E+03  0.26872530743E+03  0.00000000000E+00 0. -1.
          1    1    1    2  502    0  0.49047493705E+02 -0.26831868768E+03 -0.54108372612E+03  0.60594733556E+03  0.00000000000E+00 0. -1.
         22    1    1    2    0    0 -0.23910177626E+03  0.20617207963E+03 -0.14131346722E+03  0.34589894745E+03  0.00000000000E+00 0. -1.
         22    1    1    2    0    0  0.15480310833E+02  0.23576836462E+02 -0.69582292458E+01  0.29050373410E+02  0.00000000000E+00 0.  1.
</event>
<event>
 6    1  0.2809573E-005  0.1583060E+03  0.7818608E-02  0.1209114E+00
          2   -1    0    0  502    0  0.00000000000E+00  0.00000000000E+00  0.14001963855E+04  0.14001963855E+04  0.00000000000E+00 0. -1.
          1   -1    0    0  501    0 -0.00000000000E+00 -0.00000000000E+00 -0.12412634144E+04  0.12412634144E+04  0.00000000000E+00 0. -1.
          2    1    1    2  501    0 -0.29460596256E+02  0.90370529256E+02  0.78527955578E+03  0.79101121358E+03  0.00000000000E+00 0. -1.
          1    1    1    2  502    0  0.25952631434E+02  0.85991285748E+01 -0.12280452889E+04  0.12283495901E+04  0.00000000000E+00 0. -1.
         22    1    1    2    0    0  0.40441762764E+02  0.84789335552E+01  0.11164439308E+03  0.11904578529E+03  0.00000000000E+00 0.  1.
         22    1    1    2    0    0 -0.36933797942E+02 -0.10744859139E+03  0.49005431109E+03  0.50305321094E+03  0.00000000000E+00 0.  1.
</event>
<event>
 6    1  0.2809573E-005  0.7772731E+02  0.7818608E-02  0.1366538E+00
          2   -1    0    0  502    0  0.00000000000E+00  0.00000000000E+00  0.10037815926E+03  0.10037815926E+03  0.00000000000E+00 0. -1.
          1   -1    0    0  501    0 -0.00000000000E+00 -0.00000000000E+00 -0.12722987824E+03  0.12722987824E+03  0.00000000000E+00 0. -1.
          2    1    1    2  501    0 -0.26377821741E+02  0.28359903315E+01 -0.26483851514E+02  0.37486353677E+02  0.00000000000E+00 0. -1.
          1    1    1    2  502    0  0.56999696948E+02  0.38037942983E+01  0.15682944275E+02  0.59240096593E+02  0.00000000000E+00 0. -1.
         22    1    1    2    0    0 -0.54943332405E+02  0.32293553187E+02 -0.43716511752E+02  0.77283741841E+02  0.00000000000E+00 0. -1.
         22    1    1    2    0    0  0.24321457199E+02 -0.38933337816E+02  0.27665700012E+02  0.53597845395E+02  0.00000000000E+00 0. -1.
</event>
<event>
 6    1  0.2809573E-005  0.1230956E+03  0.7818608E-02  0.1243876E+00
          2   -1    0    0  502    0  0.00000000000E+00  0.00000000000E+00  0.46417988642E+02  0.46417988642E+02  0.00000000000E+00 0.  1.
          1   -1    0    0  501    0 -0.00000000000E+00 -0.00000000000E+00 -0.10755513842E+04  0.10755513842E+04  0.00000000000E+00 0. -1.
          2    1    1    2  501    0  0.17346346377E+02  0.83765241045E+02 -0.34581984307E+02  0.92268223016E+02  0.00000000000E+00 0.  1.
          1    1    1    2  502    0 -0.24416099402E+02 -0.23693910035E+02 -0.74102793357E+03  0.74180856399E+03  0.00000000000E+00 0. -1.
         22    1    1    2    0    0 -0.16453130996E+02  0.34029143366E+02 -0.52493956795E+02  0.64686193410E+02  0.00000000000E+00 0.  1.
         22    1    1    2    0    0  0.23522884021E+02 -0.94100474376E+02 -0.20102952087E+03  0.22320639241E+03  0.00000000000E+00 0. -1.
</event>
<event>
 6    1  0.2809573E-005  0.8315974E+02  0.7818608E-02  0.1445972E+00
          2   -1    0    0  502    0  0.00000000000E+00  0.00000000000E+00  0.29104319749E+02  0.29104319749E+02  0.00000000000E+00 0.  1.
          1   -1    0    0  501    0 -0.00000000000E+00 -0.00000000000E+00 -0.63606013256E+03  0.63606013256E+03  0.00000000000E+00 0.  1.
          2    1    1    2  501    0 -0.11876548101E+02 -0.33333083387E+02 -0.16352080836E+03  0.16730571302E+03  0.00000000000E+00 0.  1.
          1    1    1    2  502    0  0.39099122227E+02  0.78516534754E+02 -0.19711146785E+03  0.21574642140E+03  0.00000000000E+00 0.  1.
         22    1    1    2    0    0  0.14335250083E+01 -0.10670739736E+02  0.14163386680E+02  0.17791042766E+02  0.00000000000E+00 0. -1.
         22    1    1    2    0    0 -0.28656099134E+02 -0.34512711631E+02 -0.26048692328E+03  0.26432127512E+03  0.00000000000E+00 0.  1.
</event>
<event>
 6    1  0.3586951E-005  0.6390174E+02  0.7818608E-02  0.1479524E+00
          2   -1    0    0  502    0  0.00000000000E+00  0.00000000000E+00  0.80330937290E+02  0.80330937290E+02  0.00000000000E+00 0. -1.
          1   -1    0    0  501    0 -0.00000000000E+00 -0.00000000000E+00 -0.10966635219E+04  0.10966635219E+04  0.00000000000E+00 0. -1.
          2    1    1    2  501    0 -0.14285655252E+02  0.46073304822E+02 -0.28312677840E+03  0.28720654939E+03  0.00000000000E+00 0. -1.
          1    1    1    2  502    0  0.37712725925E+02 -0.51404638088E+02 -0.76126124945E+03  0.76392628992E+03  0.00000000000E+00 0. -1.
         22    1    1    2    0    0 -0.90561583013E+01  0.79133723464E+01 -0.47453597087E+02  0.48953849099E+02  0.00000000000E+00 0.  1.
         22    1    1    2    0    0 -0.14370912371E+02 -0.25820390801E+01  0.75509040289E+02  0.76907770827E+02  0.00000000000E+00 0. -1.
</event>
<event>
 6    1  0.2809573E-005  0.2588540E+03  0.7818608E-02  0.1209173E+00
          2   -1    0    0  502    0  0.00000000000E+00  0.00000000000E+00  0.33813202931E+03  0.33813202931E+03  0.00000000000E+00 0. -1.
          1   -1    0    0  501    0 -0.00000000000E+00 -0.00000000000E+00 -0.33152956594E+03  0.33152956594E+03  0.00000000000E+00 0.  1.
          2    1    1    2  501    0  0.53893916348E+02  0.12589382650E+03  0.67547601520E+02  0.15269737471E+03  0.00000000000E+00 0. -1.
          1    1    1    2  502    0  0.27809948236E+02 -0.72826837438E+02 -0.25521458108E+03  0.26685506153E+03  0.00000000000E+00 0.  1.
         22    1    1    2    0    0 -0.97146228820E+02 -0.34435263477E+02  0.20021770954E+03  0.22518949434E+03  0.00000000000E+00 0. -1.
         22    1    1    2    0    0  0.15442364237E+02 -0.18631725588E+02 -0.59482666162E+01  0.24919664671E+02  0.00000000000E+00 0. -1.
</event>
<event>
 6    1  0.2809573E-005  0.1652998E+03  0.7818608E-02  0.1223882E+00
          2   -1    0    0  502    0  0.00000000000E+00  0.00000000000E+00  0.11618464036E+03  0.11618464036E+03  0.00000000000E+00 0. -1.
          1   -1    0    0  501    0 -0.00000000000E+00 -0.00000000000E+00 -0.54670653339E+03  0.54670653339E+03  0.00000000000E+00 0. -1.
          2    1    1    2  501    0  0.84605703491E+02  0.12463742933E+02 -0.12862238843E+03  0.15445772482E+03  0.00000000000E+00 0. -1.
          1    1    1    2  502    0 -0.13124997533E+03 -0.18568476473E+02 -0.34388305456E+03  0.36854701132E+03  0.00000000000E+00 0. -1.
         22    1    1    2    0    0  0.51158387579E+02 -0.44969960505E+02  0.54352687981E+02  0.87141796276E+02  0.00000000000E+00 0. -1.
         22    1    1    2    0    0 -0.45141157441E+01  0.51074694045E+02 -0.12369138021E+02  0.52744641322E+02  0.00000000000E+00 0.  1.
</event>
<event>
 6    1  0.2809573E-005  0.1151105E+03  0.7818608E-02  0.1300348E+00
          2   -1    0    0  502    0  0.00000000000E+00  0.00000000000E+00  0.80736981860E+03  0.80736981860E+03  0.00000000000E+00 0. -1.
          1   -1    0    0  501    0 -0.00000000000E+00 -0.00000000000E+00 -0.24826146008E+02  0.24826146008E+02  0.00000000000E+00 0. -1.
          2    1    1    2  501    0  0.35051484429E+02  0.49445472329E+01  0.42918961019E+02  0.55633553930E+02  0.00000000000E+00 0. -1.
          1    1    1    2  502    0 -0.47852555882E+02 -0.78164738076E+02  0.33601419579E+03  0.34828886453E+03  0.00000000000E+00 0. -1.
         22    1    1    2    0    0  0.57421306185E+02  0.67065590985E+02  0.18392750010E+03  0.20402040386E+03  0.00000000000E+00 0. -1.
         22    1    1    2    0    0 -0.44620234731E+02  0.61545998581E+01  0.21968301569E+03  0.22425314229E+03  0.00000000000E+00 0. -1.
</event>
<event>
 6    1  0.2809573E-005  0.5619827E+03  0.7818608E-02  0.1095709E+00
          2   -1    0    0  502    0  0.00000000000E+00  0.00000000000E+00  0.87094926231E+03  0.87094926231E+03  0.00000000000E+00 0.  1.
          1   -1    0    0  501    0 -0.00000000000E+00 -0.00000000000E+00 -0.48355541387E+03  0.48355541387E+03  0.00000000000E+00 0.  1.
          2    1    1    2  501    0  0.48255669271E+03  0.83112601260E+02  0.29288198284E+03  0.57056859539E+03  0.00000000000E+00 0.  1.
          1    1    1    2  502    0 -0.51467772496E+03 -0.55786191485E+02 -0.12092081165E+03  0.53162684509E+03  0.00000000000E+00 0.  1.
         22    1    1    2    0    0  0.30882141731E+02 -0.61916835538E+02  0.55573394928E+02  0.88745723417E+02  0.00000000000E+00 0.  1.
         22    1    1    2    0    0  0.12388905165E+01  0.34590425762E+02  0.15985928233E+03  0.16356351229E+03  0.00000000000E+00 0. -1.
</event>
<event>
 6    1  0.2809573E-005  0.6061854E+02  0.7818608E-02  0.1410358E+00
          2   -1    0    0  502    0  0.00000000000E+00  0.00000000000E+00  0.53009088219E+02  0.53009088219E+02  0.00000000000E+00 0.  1.
          1   -1    0    0  501    0 -0.00000000000E+00 -0.00000000000E+00 -0.43391469351E+03  0.43391469351E+03  0.00000000000E+00 0.  1.
          2    1    1    2  501    0 -0.20922944931E+02 -0.27577281513E+02 -0.10448333276E+03  0.11006835560E+03  0.00000000000E+00 0.  1.
          1    1    1    2  502    0  0.16976091332E+02  0.64851385601E+02 -0.23344729958E+03  0.24288172342E+03  0.00000000000E+00 0.  1.
         22    1    1    2    0    0 -0.22445113006E+02  0.25433719145E+01 -0.73761350811E+02  0.77142651705E+02  0.00000000000E+00 0. -1.
         22    1    1    2    0    0  0.26391966606E+02 -0.39817476002E+02  0.30786377858E+02  0.56831051003E+02  0.00000000000E+00 0.  1.
</event>
<event>
 6    1  0.2809573E-005  0.3096799E+03  0.7818608E-02  0.1101013E+00
          2   -1    0    0  502    0  0.00000000000E+00  0.00000000000E+00  0.88814079750E+03  0.88814079750E+03  0.00000000000E+00 0. -1.
          1   -1    0    0  501    0 -0.00000000000E+00 -0.00000000000E+00 -0.31850382871E+03  0.31850382871E+03  0.00000000000E+00 0. -1.
          2    1    1    2  501    0 -0.23694385423E+03 -0.10886648312E+03 -0.22353547107E+03  0.34345655916E+03  0.00000000000E+00 0. -1.
          1    1    1    2  502    0  0.13523227650E+03 -0.40260125230E+01  0.41645243610E+03  0.43787739028E+03  0.00000000000E+00 0. -1.
         22    1    1    2    0    0  0.12062409182E+03  0.12456379762E+03  0.31291266821E+03  0.35774383171E+03  0.00000000000E+00 0.  1.
         22    1    1    2    0    0 -0.18912514088E+02 -0.11671301975E+02  0.63807335556E+02  0.67566845047E+02  0.00000000000E+00 0.  1.
</event>
<event>
 6    1  0.2809573E-005  0.3328950E+03  0.7818608E-02  0.1133207E+00
          2   -1    0    0  502    0  0.00000000000E+00  0.00000000000E+00  0.13484497687E+04  0.13484497687E+04  0.00000000000E+00 0. -1.
          1   -1    0    0  501    0 -0.00000000000E+00 -0.00000000000E+00 -0.17502314343E+03  0.17502314343E+03  0.00000000000E+00 0. -1.
          2    1    1    2  501    0 -0.42635474335E+02 -0.19672729901E+03 -0.52248798325E+02  0.20796478253E+03  0.00000000000E+00 0. -1.
          1    1    1    2  502    0  0.11733313505E+03  0.24115561501E+03  0.10406015174E+04  0.10746043985E+04  0.00000000000E+00 0. -1.
         22    1    1    2    0    0 -0.49795917756E+02  0.41082329246E+02  0.88341356048E+02  0.10941474485E+03  0.00000000000E+00 0.  1.
         22    1    1    2    0    0 -0.24901742956E+02 -0.85510645245E+02  0.96732550182E+02  0.13148898630E+03  0.00000000000E+00 0. -1.
</event>
<event>
 6    1  0.2809573E-005  0.5965488E+02  0.7818608E-02  0.1409672E+00
          2   -1    0    0  502    0  0.00000000000E+00  0.00000000000E+00  0.21162415578E+03  0.21162415578E+03  0.00000000000E+00 0. -1.
          1   -1    0    0  501    0 -0.00000000000E+00 -0.00000000000E+00 -0.50797674050E+03  0.50797674050E+03  0.00000000000E+00 0. -1.
          2    1    1    2  501    0 -0.21509733095E+02 -0.85546641921E+00  0.13258439624E+02  0.25282141165E+02  0.00000000000E+00 0. -1.
          1    1    1    2  502    0  0.21208163969E+02 -0.12698565700E+02 -0.48015873607E+03  0.48079460440E+03  0.00000000000E+00 0. -1.
         22    1    1    2    0    0  0.36141658217E+02 -0.30472821060E+02  0.14263081570E+03  0.15026097919E+03  0.00000000000E+00 0. -1.
         22    1    1    2    0    0 -0.35840089090E+02  0.44026853180E+02  0.27916896041E+02  0.63263171526E+02  0.00000000000E+00 0.  1.
</event>
<event>
 6    1  0.2809573E-005  0.1207188E+03  0.7818608E-02  0.1272595E+00
          2   -1    0    0  502    0  0.00000000000E+00  0.00000000000E+00  0.13300269999E+03  0.13300269999E+03  0.00000000000E+00 0. -1.
          1   -1    0    0  501    0 -0.00000000000E+00 -0.00000000000E+00 -0.42394177144E+03  0.42394177144E+03  0.00000000000E+00 0. -1.
          2    1    1    2  501    0 -0.15447054933E+02  0.38703530716E+02 -0.22162811217E+02  0.47199205470E+02  0.00000000000E+00 0. -1.
          1    1    1    2  502    0  0.33834909252E+02 -0.19314718148E+02 -0.35188608466E+03  0.35403626368E+03  0.00000000000E+00 0. -1.
         22    1    1    2    0    0  0.10090491315E+02 -0.52376309932E+02 -0.87345469313E+01  0.54049867411E+02  0.00000000000E+00 0. -1.
         22    1    1    2    0    0 -0.28478345634E+02  0.32987497364E+02  0.91844371357E+02  0.10165913487E+03  0.00000000000E+00 0. -1.
</event>
<event>
 6    1  0.2809573E-005  0.2060856E+03  0.7818608E-02  0.1217654E+00
          2   -1    0    0  502    0  0.00000000000E+00  0.00000000000E+00  0.53601905067E+02  0.53601905067E+02  0.00000000000E+00 0.  1.
          1   -1    0    0  501    0 -0.00000000000E+00 -0.00000000000E+00 -0.14433555417E+04  0.14433555417E+04  0.00000000000E+00 0.  1.
          2    1    1    2  501    0 -0.13103839710E+01  0.66283406380E+02 -0.20809406332E+03  0.21839951066E+03  0.00000000000E+00 0.  1.
          1    1    1    2  502    0 -0.33600514052E+02 -0.44602205072E+01 -0.11166014241E+04  0.11171157632E+04  0.00000000000E+00 0.  1.
         22    1    1    2    0    0  0.22198634602E+02 -0.37025757597E+02 -0.10454796748E+03  0.11311040451E+03  0.00000000000E+00 0.  1.
         22    1    1    2    0    0  0.12712263421E+02 -0.24797428275E+02  0.39489818258E+02  0.48331768397E+02  0.00000000000E+00 0.  1.
</event>
<event>
 6    1  0.2809573E-005  0.9723357E+02  0.7818608E-02  0.1287000E+00
          2   -1    0    0  502    0  0.00000000000E+00  0.00000000000E+00  0.38622027343E+02  0.38622027343E+02  0.00000000000E+00 0.  1.
          1   -1    0    0  501    0 -0.00000000000E+00 -0.00000000000E+00 -0.14104816596E+04  0.14104816596E+04  0.00000000000E+00 0.  1.
          2    1    1    2  501    0 -0.24057821254E+02  0.47006134321E+02 -0.10100862569E+03  0.11397849750E+03  0.00000000000E+00 0.  1.
          1    1    1    2  502    0 -0.61701672209E+02 -0.31867667693E+02 -0.11199594274E+04  0.11221104062E+04  0.00000000000E+00 0.  1.
         22    1    1    2    0    0  0.10853742734E+03 -0.33785248510E+02 -0.88621596052E+02  0.14413744634E+03  0.00000000000E+00 0.  1.
         22    1    1    2    0    0 -0.22777933881E+02  0.18646781882E+02 -0.62269983038E+02  0.68877336868E+02  0.00000000000E+00 0.  1.
</event>
<event>
 6    1  0.2809573E-005  0.1485275E+03  0.7818608E-02  0.1279554E+00
          2   -1    0    0  502    0  0.00000000000E+00  0.00000000000E+00  0.16044159620E+03  0.16044159620E+03  0.00000000000E+00 0.  1.
          1   -1    0    0  501    0 -0.00000000000E+00 -0.00000000000E+00 -0.11520321677E+03  0.11520321677E+03  0.00000000000E+00 0.  1.
          2    1    1    2  501    0  0.47731105814E+02  0.18418798546E+02 -0.37422402878E+01  0.51298293973E+02  0.00000000000E+00 0.  1.
          1    1    1    2  502    0  0.37422169897E+02 -0.15632826449E+02 -0.31947410399E+02  0.51627910027E+02  0.00000000000E+00 0.  1.
         22    1    1    2    0    0 -0.93094666715E+02 -0.32703462499E+02  0.14893773323E+02  0.99789568162E+02  0.00000000000E+00 0.  1.
         22    1    1    2    0    0  0.79413910033E+01  0.29917490402E+02  0.66034256796E+02  0.72929040811E+02  0.00000000000E+00 0.  1.
</event>
<event>
 6    1  0.2809573E-005  0.8678613E+02  0.7818608E-02  0.1383771E+00
          2   -1    0    0  502    0  0.00000000000E+00  0.00000000000E+00  0.77231647219E+02  0.77231647219E+02  0.00000000000E+00 0. -1.
          1   -1    0    0  501    0 -0.00000000000E+00 -0.00000000000E+00 -0.50878427273E+03  0.50878427273E+03  0.00000000000E+00 0. -1.
          2    1    1    2  501    0  0.75197128599E+00  0.41870741432E+02 -0.42249188444E+02  0.59487127793E+02  0.00000000000E+00 0. -1.
          1    1    1    2  502    0 -0.27846757950E+02 -0.77400814967E+02 -0.38627837653E+03  0.39493963116E+03  0.00000000000E+00 0. -1.
         22    1    1    2    0    0  0.23866033694E+02  0.10893532690E+02 -0.62147380298E+02  0.67457790481E+02  0.00000000000E+00 0. -1.
         22    1    1    2    0    0  0.32287529702E+01  0.24636540845E+02  0.59122319760E+02  0.64131370517E+02  0.00000000000E+00 0. -1.
</event>
<event>
 6    1  0.2809573E-005  0.5490260E+02  0.7818608E-02  0.1491169E+00
          2   -1    0    0  502    0  0.00000000000E+00  0.00000000000E+00  0.14473183560E+03  0.14473183560E+03  0.00000000000E+00 0. -1.
          1   -1    0    0  501    0 -0.00000000000E+00 -0.00000000000E+00 -0.16884033820E+03  0.16884033820E+03  0.00000000000E+00 0. -1.
          2    1    1    2  501    0  0.18082923683E+02  0.10344182262E+02  0.21929604485E+01  0.20947632590E+02  0.00000000000E+00 0. -1.
          1    1    1    2  502    0 -0.50460006386E+02 -0.66998955421E+01 -0.12282967126E+03  0.13295950130E+03  0.00000000000E+00 0. -1.
         22    1    1    2    0    0 -0.10572594223E+02 -0.16448669657E+02  0.11089130658E+03  0.11260204420E+03  0.00000000000E+00 0. -1.
         22    1    1    2    0    0  0.42949676925E+02  0.12804382937E+02 -0.14363098379E+02  0.47062995712E+02  0.00000000000E+00 0. -1.
</event>
<event>
 6    1  0.2809573E-005  0.1404984E+03  0.7818608E-02  0.1239667E+00
          2   -1    0    0  502    0  0.00000000000E+00  0.00000000000E+00  0.34964927656E+03  0.34964927656E+03  0.00000000000E+00 0. -1.
          1   -1    0    0  501    0 -0.00000000000E+00 -0.00000000000E+00 -0.44670257113E+03  0.44670257113E+03  0.00000000000E+00 0.  1.
          2    1    1    2  501    0  0.58458801222E+02 -0.23092364386E+02  0.82986882267E+02  0.10410336864E+03  0.00000000000E+00 0. -1.
          1    1    1    2  502    0  0.22712590392E+01 -0.84924256556E+02 -0.40166783248E+03  0.41055369395E+03  0.00000000000E+00 0.  1.
         22    1    1    2    0    0 -0.99882275545E+01  0.45976434307E+02  0.11081354113E+01  0.47061929044E+02  0.00000000000E+00 0. -1.
         22    1    1    2    0    0 -0.50741832707E+02  0.62040186634E+02  0.22051952023E+03  0.23463285606E+03  0.00000000000E+00 0. -1.
</event>
<event>
 6    1  0.2809573E-005  0.6787961E+02  0.7818608E-02  0.1371443E+00
          2   -1    0    0  502    0  0.00000000000E+00  0.00000000000E+00  0.79913430796E+02  0.79913430796E+02  0.00000000000E+00 0. -1.
          1   -1    0    0  501    0 -0.00000000000E+00 -0.00000000000E+00 -0.81514300210E+03  0.81514300210E+03  0.00000000000E+00 0.  1.
          2    1    1    2  501    0  0.22330117246E+02 -0.32979871328E+02  0.51199453192E+02  0.64866709923E+02  0.00000000000E+00 0. -1.
          1    1    1    2  502    0 -0.20678412459E+02 -0.17833501271E+01 -0.62744990796E+03  0.62779309018E+03  0.00000000000E+00 0.  1.
         22    1    1    2    0    0 -0.15949570218E+02  0.54734971562E+02 -0.16707525807E+03  0.17653455118E+03  0.00000000000E+00 0.  1.
         22    1    1    2    0    0  0.14297865431E+02 -0.19971750107E+02  0.80961415218E+01  0.25862081621E+02  0.00000000000E+00 0.  1.
</event>
<event>
 6    1  0.2809573E-005  0.6836660E+02  0.7818608E-02  0.1428798E+00
          2   -1    0    0  502    0  0.00000000000E+00  0.00000000000E+00  0.93047900550E+02  0.93047900550E+02  0.00000000000E+00 0.  1.
          1   -1    0    0  501    0 -0.00000000000E+00 -0.00000000000E+00 -0.27641384641E+03  0.27641384641E+03  0.00000000000E+00 0.  1.
          2    1    1    2  501    0  0.12590298881E+02  0.16970931876E+02 -0.16821007122E+03  0.16953216867E+03  0.00000000000E+00 0.  1.
          1    1    1    2  502    0 -0.52047548307E+01 -0.24985220065E+02 -0.61468371010E+02  0.66556076576E+02  0.00000000000E+00 0.  1.
         22    1    1    2    0    0  0.19875905720E+02  0.15281532871E+02  0.83221643460E+02  0.86916159690E+02  0.00000000000E+00 0.  1.
         22    1    1    2    0    0 -0.27261449770E+02 -0.72672446820E+01 -0.36909147091E+02  0.46457342023E+02  0.00000000000E+00 0. -1.
</event>
<event>
 6    1  0.2809573E-005  0.2897495E+03  0.7818608E-02  0.1208024E+00
          2   -1    0    0  502    0  0.00000000000E+00  0.00000000000E+00  0.19694842369E+03  0.19694842369E+03  0.00000000000E+00 0. -1.
          1   -1    0    0  501    0 -0.00000000000E+00 -0.00000000000E+00 -0.19781538818E+04  0.19781538818E+04  0.00000000000E+00 0. -1.
          2    1    1    2  501    0  0.62011715400E+02 -0.36492267328E+02 -0.39032941703E+02  0.81857858264E+02  0.00000000000E+00 0. -1.
          1    1    1    2  502    0 -0.11467659811E+03 -0.14624164297E+03 -0.18367148682E+04  0.18460928599E+04  0.00000000000E+00 0. -1.
         22    1    1    2    0    0  0.59204879349E+02  0.19916415333E+03  0.75259721084E+02  0.22098779000E+03  0.00000000000E+00 0. -1.
         22    1    1    2    0    0 -0.65399966416E+01 -0.16430243033E+02  0.19282630729E+02  0.26163797317E+02  0.00000000000E+00 0. -1.
</event>
<event>
 6    1  0.2809573E-005  0.4539660E+03  0.7818608E-02  0.1026546E+00
          2   -1    0    0  502    0  0.00000000000E+00  0.00000000000E+00  0.72325304140E+03  0.72325304140E+03  0.00000000000E+00 0. -1.
          1   -1    0    0  501    0 -0.00000000000E+00 -0.00000000000E+00 -0.31724858791E+03  0.31724858791E+03  0.00000000000E+00 0.  1.
          2    1    1    2  501    0 -0.14400563365E+03  0.11911110309E+03  0.13374162038E+03  0.22980839503E+03  0.00000000000E+00 0. -1.
          1    1    1    2  502    0  0.36349257636E+03 -0.17849736776E+03 -0.36440805621E+02  0.40659082094E+03  0.00000000000E+00 0.  1.
         22    1    1    2    0    0 -0.10078647490E+03  0.47594838420E+02  0.24433875711E+03  0.26856025468E+03  0.00000000000E+00 0. -1.
         22    1    1    2    0    0 -0.11870046780E+03  0.11791426249E+02  0.64364881617E+02  0.13554215866E+03  0.00000000000E+00 0.  1.
</event>
<event>
 6    1  0.2809573E-005  0.1418512E+03  0.7818608E-02  0.1293977E+00
          2   -1    0    0  502    0  0.00000000000E+00  0.00000000000E+00  0.81489660421E+02  0.81489660421E+02  0.00000000000E+00 0. -1.
          1   -1    0    0  501    0 -0.00000000000E+00 -0.00000000000E+00 -0.33752433467E+03  0.33752433467E+03  0.00000000000E+00 0. -1.
          2    1    1    2  501    0  0.74552447287E+02  0.14668053814E+02 -0.22275904030E+03  0.23536101893E+03  0.00000000000E+00 0. -1.
          1    1    1    2  502    0 -0.38861742568E+02  0.19716378354E+02 -0.81594593869E+01  0.44334494339E+02  0.00000000000E+00 0. -1.
         22    1    1    2    0    0 -0.15970619032E+02  0.21873538653E+02  0.41731915439E+02  0.49750026448E+02  0.00000000000E+00 0. -1.
         22    1    1    2    0    0 -0.19720085687E+02 -0.56257970820E+02 -0.66848090002E+02  0.89568455370E+02  0.00000000000E+00 0. -1.
</event>
<event>
 6    1  0.2809573E-005  0.1172009E+03  0.7818608E-02  0.1271134E+00
          2   -1    0    0  502    0  0.00000000000E+00  0.00000000000E+00  0.36394322148E+03  0.36394322148E+03  0.00000000000E+00 0. -1.
          1   -1    0    0  501    0 -0.00000000000E+00 -0.00000000000E+00 -0.93123441902E+03  0.93123441902E+03  0.00000000000E+00 0.  1.
          2    1    1    2  501    0 -0.28472208134E+01  0.25647620672E+02 -0.79587871060E+01  0.27004618210E+02  0.00000000000E+00 0. -1.
          1    1    1    2  502    0  0.50277863807E+02 -0.35986813523E+02 -0.89979283328E+03  0.90191466179E+03  0.00000000000E+00 0.  1.
         22    1    1    2    0    0  0.16230594040E+02  0.54919938378E+02  0.14879069643E+03  0.15943118628E+03  0.00000000000E+00 0.  1.
         22    1    1    2    0    0 -0.63661237033E+02 -0.44580745527E+02  0.19166972641E+03  0.20682717422E+03  0.00000000000E+00 0. -1.
</event>
<event>
 6    1  0.2809573E-005  0.1722019E+03  0.7818608E-02  0.1236798E+00
          2   -1    0    0  502    0  0.00000000000E+00  0.00000000000E+00  0.13232399269E+04  0.13232399269E+04  0.00000000000E+00 0. -1.
          1   -1    0    0  501    0 -0.00000000000E+00 -0.00000000000E+00 -0.32392592031E+02  0.32392592031E+02  0.00000000000E+00 0. -1.
          2    1    1    2  501    0  0.98435351884E+01  0.90181027455E+02  0.29791611791E+03  0.31142178184E+03  0.00000000000E+00 0. -1.
          1    1    1    2  502    0 -0.82453350643E+02 -0.13238908651E+03  0.33847198153E+03  0.37267775294E+03  0.00000000000E+00 0. -1.
         22    1    1    2    0    0  0.16946942628E+02 -0.42925889530E+02  0.26621457163E+03  0.27018517540E+03  0.00000000000E+00 0. -1.
         22    1    1    2    0    0  0.55662872827E+02  0.85133948588E+02  0.38824466385E+03  0.40134780879E+03  0.00000000000E+00 0. -1.
</event>
<event>
 6    1  0.2809573E-005  0.1623196E+03  0.7818608E-02  0.1187010E+00
          2   -1    0    0  502    0  0.00000000000E+00  0.00000000000E+00  0.22282238173E+03  0.22282238173E+03  0.00000000000E+00 0. -1.
          1   -1    0    0  501    0 -0.00000000000E+00 -0.00000000000E+00 -0.73662851746E+03  0.73662851746E+03  0.00000000000E+00 0. -1.
          2    1    1    2  501    0 -0.13269608334E+03  0.83181458314E+02  0.11889011487E+03  0.19662722333E+03  0.00000000000E+00 0. -1.
          1    1    1    2  502    0  0.53046432600E+02  0.13990255971E+02 -0.57644242898E+03  0.57904708376E+03  0.00000000000E+00 0. -1.
         22    1    1    2    0    0  0.88083404911E+02 -0.10533841582E+03 -0.78828834472E+02  0.15833146627E+03  0.00000000000E+00 0. -1.
         22    1    1    2    0    0 -0.84337541735E+01  0.81667015342E+01  0.22575012860E+02  0.25445125840E+02  0.00000000000E+00 0.  1.
</event>
<event>
 6    1  0.2809573E-005  0.1376883E+03  0.7818608E-02  0.1233925E+00
          2   -1    0    0  502    0  0.00000000000E+00  0.00000000000E+00  0.70691811824E+03  0.70691811824E+03  0.00000000000E+00 0. -1.
          1   -1    0    0  501    0 -0.00000000000E+00 -0.00000000000E+00 -0.74030752405E+02  0.74030752405E+02  0.00000000000E+00 0. -1.
          2    1    1    2  501    0  0.46181748640E+02  0.16092486274E+02 -0.14478369625E+02  0.51003384289E+02  0.00000000000E+00 0. -1.
          1    1    1    2  502    0 -0.13467620701E+03  0.70862884714E+02  0.22693695621E+03  0.27323911005E+03  0.00000000000E+00 0. -1.
         22    1    1    2    0    0  0.61455868385E+02  0.48968164228E+01  0.69287062623E+02  0.92744269995E+02  0.00000000000E+00 0. -1.
         22    1    1    2    0    0  0.27038589980E+02 -0.91852187411E+02  0.35114171663E+03  0.36396210632E+03  0.00000000000E+00 0. -1.
</event>
<event>
 6    1  0.2809573E-005  0.1186399E+03  0.7818608E-02  0.1254620E+00
          2   -1    0    0  502    0  0.00000000000E+00  0.00000000000E+00  0.35722376619E+02  0.35722376619E+02  0.00000000000E+00 0.  1.
          1   -1    0    0  501    0 -0.00000000000E+00 -0.00000000000E+00 -0.12137277797E+04  0.12137277797E+04  0.00000000000E+00 0.  1.
          2    1    1    2  501    0 -0.18808951517E+01 -0.26422788921E+02 -0.61756430303E+03  0.61813216218E+03  0.00000000000E+00 0.  1.
          1    1    1    2  502    0 -0.10280359748E+03  0.59218585186E+02 -0.17539307665E+03  0.21175021091E+03  0.00000000000E+00 0.  1.
         22    1    1    2    0    0  0.12257113624E+03 -0.45262484341E+01 -0.22699594012E+03  0.25801419960E+03  0.00000000000E+00 0.  1.
         22    1    1    2    0    0 -0.17886643605E+02 -0.28269547831E+02 -0.15805208331E+03  0.16155358366E+03  0.00000000000E+00 0. -1.
</event>
<event>
 6    1  0.2809573E-005  0.1639520E+03  0.7818608E-02  0.1286718E+00
          2   -1    0    0  502    0  0.00000000000E+00  0.00000000000E+00  0.94995840897E+02  0.94995840897E+02  0.00000000000E+00 0. -1.
          1   -1    0    0  501    0 -0.00000000000E+00 -0.00000000000E+00 -0.12589719541E+04  0.12589719541E+04  0.00000000000E+00 0. -1.
          2    1    1    2  501    0 -0.52703394895E+02  0.66839172582E+02 -0.10419112276E+03  0.13453963315E+03  0.00000000000E+00 0. -1.
          1    1    1    2  502    0  0.10822578337E+03 -0.10176847459E+03 -0.10698899274E+04  0.10801546645E+04  0.00000000000E+00 0. -1.
         22    1    1    2    0    0  0.19938005915E+02  0.24984627963E+01  0.45574578681E+02  0.49807716452E+02  0.00000000000E+00 0.  1.
         22    1    1    2    0    0 -0.75460394395E+02  0.32430839215E+02 -0.35469641689E+02  0.89465780810E+02  0.00000000000E+00 0.  1.
</event>
<event>
 6    1  0.2809573E-005  0.3190112E+03  0.7818608E-02  0.1174057E+00
          2   -1    0    0  502    0  0.00000000000E+00  0.00000000000E+00  0.63111084463E+03  0.63111084463E+03  0.00000000000E+00 0. -1.
          1   -1    0    0  501    0 -0.00000000000E+00 -0.00000000000E+00 -0.19186221572E+03  0.19186221572E+03  0.00000000000E+00 0.  1.
          2    1    1    2  501    0 -0.11287906291E+03  0.17992265016E+03  0.12299335926E+03  0.24544084686E+03  0.00000000000E+00 0. -1.
          1    1    1    2  502    0  0.21877704087E+03 -0.19737307645E+03  0.10844841596E+03  0.31397545102E+03  0.00000000000E+00 0.  1.
         22    1    1    2    0    0 -0.93608023667E+02 -0.77429586405E+01  0.56363670522E+02  0.10954121990E+03  0.00000000000E+00 0. -1.
         22    1    1    2    0    0 -0.12289954296E+02  0.25193384931E+02  0.15144318318E+03  0.15401554257E+03  0.00000000000E+00 0. -1.
</event>
<event>
 6    1  0.2809573E-005  0.7866299E+02  0.7818608E-02  0.1345215E+00
          2   -1    0    0  502    0  0.00000000000E+00  0.00000000000E+00  0.21682265272E+03  0.21682265272E+03  0.00000000000E+00 0. -1.
          1   -1    0    0  501    0 -0.00000000000E+00 -0.00000000000E+00 -0.61912177468E+02  0.61912177468E+02  0.00000000000E+00 0. -1.
          2    1    1    2  501    0  0.66879782962E+01  0.55697642489E+02  0.23573540860E+02  0.60849554322E+02  0.00000000000E+00 0. -1.
          1    1    1    2  502    0 -0.79523505280E+00 -0.43119296080E+02  0.43612699482E+02  0.61334930092E+02  0.00000000000E+00 0. -1.
         22    1    1    2    0    0  0.47744016552E+02 -0.37042126879E+02  0.74868076912E+02  0.96212469154E+02  0.00000000000E+00 0. -1.
         22    1    1    2    0    0 -0.53636759796E+02  0.24463780470E+02  0.12856157995E+02  0.60337876617E+02  0.00000000000E+00 0. -1.
</event>
<event>
 6    1  0.2809573E-005  0.7617531E+02  0.7818608E-02  0.1355387E+00
          2   -1    0    0  502    0  0.00000000000E+00  0.00000000000E+00  0.21905718531E+03  0.21905718531E+03  0.00000000000E+00 0.  1.
          1   -1    0    0  501    0 -0.00000000000E+00 -0.00000000000E+00 -0.52743517655E+03  0.52743517655E+03  0.00000000000E+00 0.  1.
          2    1    1    2  501    0  0.19910377649E+02  0.13626849845E+02 -0.51749419277E+01  0.24675781625E+02  0.00000000000E+00 0.  1.
          1    1    1    2  502    0 -0.80672549651E+01 -0.51569588975E+02 -0.48979865227E+03  0.49257204841E+03  0.00000000000E+00 0.  1.
         22    1    1    2    0    0  0.36621933277E+02  0.61193672786E+02  0.65820069345E+02  0.97046963449E+02  0.00000000000E+00 0.  1.
         22    1    1    2    0    0 -0.48465055961E+02 -0.23250933657E+02  0.12077553361E+03  0.13219756838E+03  0.00000000000E+00 0.  1.
</event>
<event>
 6    1  0.2809573E-005  0.2329714E+03  0.7818608E-02  0.1191670E+00
          2   -1    0    0  502    0  0.00000000000E+00  0.00000000000E+00  0.26760687327E+03  0.26760687327E+03  0.00000000000E+00 0.  1.
          1   -1    0    0  501    0 -0.00000000000E+00 -0.00000000000E+00 -0.38196160093E+03  0.38196160093E+03  0.00000000000E+00 0.  1.
          2    1    1    2  501    0  0.17328827212E+03  0.11268643682E+03 -0.15855968583E+03  0.26051532060E+03  0.00000000000E+00 0.  1.
          1    1    1    2  502    0 -0.16423470286E+03 -0.12963923255E+03 -0.68904117420E+02  0.22028877782E+03  0.00000000000E+00 0.  1.
         22    1    1    2    0    0 -0.45729785135E+02  0.16259471901E+02  0.12175888520E+03  0.13107558812E+03  0.00000000000E+00 0.  1.
         22    1    1    2    0    0  0.36676215872E+02  0.69332382662E+00 -0.86498096250E+01  0.37688787658E+02  0.00000000000E+00 0. -1.
</event>
<event>
 6    1  0.2809573E-005  0.5058841E+02  0.7818608E-02  0.1468249E+00
          2   -1    0    0  502    0  0.00000000000E+00  0.00000000000E+00  0.70515370528E+02  0.70515370528E+02  0.00000000000E+00 0. -1.
          1   -1    0    0  501    0 -0.00000000000E+00 -0.00000000000E+00 -0.31711348872E+03  0.31711348872E+03  0.00000000000E+00 0. -1.
          2    1    1    2  501    0 -0.26186937575E+02  0.13584861292E+02 -0.50471663152E+02  0.58461037770E+02  0.00000000000E+00 0. -1.
          1    1    1    2  502    0  0.31745749559E+02 -0.37306854756E+02 -0.20061525376E+03  0.20650925904E+03  0.00000000000E+00 0. -1.
         22    1    1    2    0    0  0.16444735422E+02  0.30393237586E+02  0.56251930091E+02  0.66018617473E+02  0.00000000000E+00 0. -1.
         22    1    1    2    0    0 -0.22003547405E+02 -0.66712441231E+01 -0.51763131364E+02  0.56639944961E+02  0.00000000000E+00 0. -1.
</event>
<event>
 6    1  0.2809573E-005  0.8937044E+02  0.7818608E-02  0.1306159E+00
          2   -1    0    0  502    0  0.00000000000E+00  0.00000000000E+00  0.14837225331E+03  0.14837225331E+03  0.00000000000E+00 0. -1.
          1   -1    0    0  501    0 -0.00000000000E+00 -0.00000000000E+00 -0.10519379120E+03  0.10519379120E+03  0.00000000000E+00 0. -1.
          2    1    1    2  501    0 -0.26700361940E+02  0.49665893093E+02  0.42163235764E+02  0.70408442069E+02  0.00000000000E+00 0. -1.
          1    1    1    2  502    0  0.45038973748E+01  0.23256673986E+02 -0.24076737027E+02  0.33776430278E+02  0.00000000000E+00 0. -1.
         22    1    1    2    0    0 -0.19107343703E+02  0.18825998108E+02  0.39490588756E+02  0.47739034223E+02  0.00000000000E+00 0.  1.
         22    1    1    2    0    0  0.41303808268E+02 -0.91748565188E+02 -0.14398625389E+02  0.10164213794E+03  0.00000000000E+00 0. -1.
</event>
<event>
 6    1  0.2809573E-005  0.8656856E+02  0.7818608E-02  0.1351005E+00
          2   -1    0    0  502    0  0.00000000000E+00  0.00000000000E+00  0.40815420815E+02  0.40815420815E+02  0.00000000000E+00 0. -1.
          1   -1    0    0  501    0 -0.00000000000E+00 -0.00000000000E+00 -0.16281222642E+04  0.16281222642E+04  0.00000000000E+00 0. -1.
          2    1    1    2  501    0 -0.19989661314E+02  0.25329145010E+01 -0.57339082762E+03  0.57374475459E+03  0.00000000000E+00 0. -1.
          1    1    1    2  502    0  0.52794990252E+02  0.60925481918E+02 -0.92570114729E+03  0.92920495018E+03  0.00000000000E+00 0. -1.
         22    1    1    2    0    0 -0.16131042828E+02 -0.40033641165E+02  0.24522767571E+02  0.49641405067E+02  0.00000000000E+00 0. -1.
         22    1    1    2    0    0 -0.16674286110E+02 -0.23424755254E+02 -0.11273763604E+03  0.11634657518E+03  0.00000000000E+00 0. -1.
</event>
<event>
 6    1  0.2809573E-005  0.1886008E+03  0.7818608E-02  0.1218820E+00
          2   -1    0    0  502    0  0.00000000000E+00  0.00000000000E+00  0.12124302333E+04  0.12124302333E+04  0.00000000000E+00 0. -1.
          1   -1    0    0  501    0 -0.00000000000E+00 -0.00000000000E+00 -0.82905540092E+02  0.82905540092E+02  0.00000000000E+00 0.  1.
          2    1    1    2  501    0  0.59130182797E+02  0.49730222615E+02  0.25749038895E+03  0.26883224130E+03  0.00000000000E+00 0. -1.
          1    1    1    2  502    0 -0.55431745610E+01 -0.16253060495E+03  0.28566061577E+02  0.16511494240E+03  0.00000000000E+00 0.  1.
         22    1    1    2    0    0 -0.37529741070E+01  0.12359349989E+03  0.61314285026E+03  0.62548668480E+03  0.00000000000E+00 0. -1.
         22    1    1    2    0    0 -0.49834034129E+02 -0.10793117564E+02  0.23032539240E+03  0.23590190488E+03  0.00000000000E+00 0.  1.
</event>
<event>
 6    1  0.2809573E-005  0.3023800E+03  0.7818608E-02  0.1141172E+00
          2   -1    0    0  502    0  0.00000000000E+00  0.00000000000E+00  0.24333598145E+03  0.24333598145E+03  0.00000000000E+00 0. -1.
          1   -1    0    0  501    0 -0.00000000000E+00 -0.00000000000E+00 -0.61826162401E+03  0.61826162401E+03  0.00000000000E+00 0.  1.
          2    1    1    2  501    0 -0.41942344089E+02  0.23246485403E+03 -0.38672685553E+03  0.45316302737E+03  0.00000000000E+00 0. -1.
          1    1    1    2  502    0  0.66032404279E+02 -0.26326270971E+03 -0.19927753334E+02  0.27214820979E+03  0.00000000000E+00 0.  1.
         22    1    1    2    0    0 -0.99650882857E+01  0.70309797671E+02  0.53597529716E+02  0.88968903695E+02  0.00000000000E+00 0. -1.
         22    1    1    2    0    0 -0.14124971904E+02 -0.39511941990E+02 -0.21868563406E+02  0.47317464604E+02  0.00000000000E+00 0.  1.
</event>
<event>
 6    1  0.2809573E-005  0.8399556E+02  0.7818608E-02  0.1327594E+00
          2   -1    0    0  502    0  0.00000000000E+00  0.00000000000E+00  0.75314125571E+02  0.75314125571E+02  0.00000000000E+00 0. -1.
          1   -1    0    0  501    0 -0.00000000000E+00 -0.00000000000E+00 -0.10965289221E+04  0.10965289221E+04  0.00000000000E+00 0. -1.
          2    1    1    2  501    0 -0.37952353860E+02 -0.14296538456E+02 -0.23511974638E+02  0.46878407894E+02  0.00000000000E+00 0. -1.
          1    1    1    2  502    0  0.27512142247E+02  0.23961563660E+02 -0.10014605255E+04  0.10021248718E+04  0.00000000000E+00 0. -1.
         22    1    1    2    0    0  0.39442714344E+02  0.45568178942E+02  0.46710873936E+01  0.60448372223E+02  0.00000000000E+00 0. -1.
         22    1    1    2    0    0 -0.29002502732E+02 -0.55233204146E+02 -0.91338385143E+00  0.62391395841E+02  0.00000000000E+00 0. -1.
</event>
